
127000  0.0000000e+00
  72.2696447  24.6417737  44.2623711  71.5920544  25.3895879  44.2205286
  71.8365335  24.0368629  44.9454546  72.2897291  24.1564274  43.3768559
  73.6767530  25.0486398  44.5214748  74.2711926  24.1870880  44.8255587
  74.3929434  25.3622556  43.1538248  75.4575443  25.3810668  43.3869934
  74.2055941  24.5138693  42.4956131  73.8349628  26.6551161  42.5590467
  74.5914745  27.3557210  41.8760252  72.7294016  27.0766950  42.7995396
  73.8784933  26.1953926  45.5453873  72.9523897  26.8196964  46.1194134
  75.1333761  26.5953255  45.7914782  75.9050035  26.0397935  45.4507637
  75.4243422  27.6852965  46.7108870  74.8506689  27.6141858  47.6349783
  76.8205881  27.5317502  47.1705770  77.0952845  28.4647369  47.6626968
  77.0941687  26.3689351  48.1114674  76.4088440  26.3343620  48.9583683
  76.8851519  25.4350829  47.5896120  78.1179380  26.3762569  48.4855509
  77.8065109  27.5019169  46.2084436  77.9334497  26.5995646  45.9063721
  75.2129650  29.1066790  46.1303234  75.2724886  30.0811696  46.8632555
  74.8467636  29.1794395  44.8383379  74.8636818  28.3079863  44.3280554
  74.2620230  30.4070520  44.2559576  74.7282267  31.1767340  44.8710537
  74.8159170  30.5703330  42.8352642  74.7896910  31.6523457  42.7061892
  75.8149338  30.1371598  42.7860451  74.0266228  29.9816799  41.8165207
  74.1124105  29.0272188  41.8734741  72.7416277  30.7192683  44.4131756
  72.2428465  31.7326474  44.0633154  71.9702244  29.8550034  45.0954819
  72.4290180  29.1148758  45.6071663  70.5341578  30.0095272  45.3841066
  70.0530195  30.0464630  44.4067430  70.0378275  28.7634587  46.1889839
  70.8468914  28.4213138  46.8343115  69.1734838  28.9475632  46.8270397
  69.9501038  27.5293398  45.2938986  70.9662771  27.2737765  44.9936056
  69.2700529  26.3983464  46.1196375  69.7188425  26.2598634  47.1032572
  68.1903982  26.4664459  46.2531185  69.6176338  25.5660772  45.5075788
  69.0710926  27.7488470  44.0181398  69.6056795  28.2512188  43.2119513
  68.6957979  26.8089962  43.6132526  68.2346725  28.3987069  44.2754030
  70.1399422  31.3488126  46.0239935  69.0287209  31.8673754  45.7662487
  70.9162092  31.9807172  46.9397402  72.1228933  31.4988661  47.4991035
  72.8919125  31.9448400  46.8683815  72.2174025  30.4129720  47.4977493
  72.2959614  32.0026922  48.9531612  73.3076382  31.9534612  49.3558884
  71.5559578  31.3720107  49.4458437  71.6678429  33.4355450  48.6405849
  72.5059891  34.0135789  48.2513666  71.2077093  33.8692880  49.5284176
  70.6147766  33.2165170  47.5997734  69.7052908  33.2117224  48.2005310
  70.5299139  34.4269538  46.6899538  69.8849821  35.4048181  47.0753384
  71.2698507  34.4247842  45.5532122  71.7124128  33.5265207  45.4214287
  71.2943268  35.4385519  44.5188046  70.5637550  36.2310696  44.6809483
  72.6806116  36.0123730  44.1900969  72.5910473  36.7003083  43.3493662
  73.2235575  36.7659211  45.4002142  74.1622162  37.2421241  45.1169205
  72.5026274  37.5086379  45.7418823  73.5327339  36.0981822  46.2043571
  73.6258888  35.0634789  43.8423920  73.4391642  34.8376131  42.9282188
  70.6502390  35.0164604  43.1783485  70.8160067  35.7388687  42.2334766
  69.9619818  33.9026380  43.0576372  69.8355293  33.4326649  43.9426422
  69.3737030  33.3070946  41.8359518  70.0242186  33.6367393  41.0258532
  69.4579792  31.8117785  41.7913103  69.2412901  31.4959121  40.7708311
  70.4925728  31.5450072  42.0070887  68.5681534  31.2548423  42.7894878
  68.3828783  30.3417087  42.5582647  67.9044199  33.7351608  41.5639877
  67.4003220  33.4856081  40.4993296  67.2906399  34.5513058  42.4752522
  67.8460836  34.7364593  43.2982349  65.9676027  35.1999474  42.3831081
  65.8152342  35.6654406  43.3568668  66.0398436  36.3308978  41.3020229
  66.2054682  35.9304476  40.3018713  65.1120901  36.8924880  41.1924839
  67.1810532  37.3005819  41.6193581  67.3056173  37.9517579  42.8462362
  68.3897495  38.7314177  42.7249575  68.8310623  39.3842793  43.4634781
  68.9323759  38.5886788  41.5218735  69.6847200  39.1680837  41.1778164
  68.1893539  37.6587582  40.7981873  68.3506727  37.1965718  39.8355031
  64.7034454  34.3701959  42.2052813  63.7749147  34.6688080  41.4363670
  64.6037817  33.3042645  42.9950857  65.2996874  33.0682039  43.6879730
  63.5725355  32.3351479  42.7062321  63.5547876  32.1024370  41.6415119
  63.9023924  31.0153508  43.4193611  62.9901600  30.4206610  43.4671307
  64.9239635  30.1624894  42.7255487  64.5124054  29.6720099  41.8434238
  65.8033037  30.7699728  42.5114822  65.3136349  29.4155931  43.4172153
  64.2689180  31.2337303  44.7896957  63.4995508  31.2581563  45.3633499
  62.1307659  32.8227711  42.9740906  61.1562300  32.1761417  42.5797319
  62.0342302  34.0314245  43.6130571  62.8838444  34.4971323  43.8983297
  60.7738400  34.6941209  43.9178419  60.1677752  34.0003037  44.5004272
  61.0926867  35.9121323  44.7989178  60.1299238  36.4129543  44.9007273
  61.2855101  35.5729103  45.8166838  62.0739365  36.9449759  44.3524408
  63.4641457  36.7938352  44.6574926  63.7491989  35.9681892  45.2926731
  64.3899488  37.7135921  44.2027712  65.4242706  37.5939989  44.4896030
  63.9416599  38.8278055  43.4537983  64.8454523  39.7196531  42.9978657
  65.7036877  39.2950368  42.9290628  62.5580406  38.9087796  43.0309010
  62.3229504  39.7751331  42.4304295  61.6403961  37.9362106  43.5221863
  60.6311560  38.0836034  43.1670666  60.0129557  35.2179193  42.7330017
  58.8862467  35.6362104  42.8644085  60.6577969  35.3128672  41.5519381
  61.6295147  35.0375009  41.5456629  60.1140833  35.9383035  40.3719711
  59.3107510  36.6167998  40.6590223  61.2342882  36.7757893  39.8387742
  61.7480421  37.3729801  40.5921125  61.9854307  36.0586309  39.5077586
  60.8472967  37.8757644  38.7437296  60.3532600  37.4508452  37.8699613
  59.8047113  38.8163710  39.3992138  59.6733189  39.7045302  38.7811494
  58.8533401  38.2903004  39.4782400  60.1307535  39.1646695  40.3792572
  62.0671034  38.6355758  38.3416200  62.5544262  39.0151691  39.2396879
  62.7006483  38.0158734  37.7070403  61.6595459  39.5169592  37.8464842
  59.4585609  34.9718857  39.3138027  58.6667919  35.3895736  38.4803653
  59.8371267  33.6724544  39.4508052  60.3967333  33.4166288  40.2517462
  59.5777893  32.6175165  38.4855962  60.0883102  31.6838789  38.7217903
  58.5082054  32.4770856  38.3294773  60.0684452  32.9829764  37.0482183
  59.4588232  32.6468968  36.0616183  61.2291813  33.6294508  36.8659258
  61.8311453  33.8886952  37.6343894  61.8058014  33.8969159  35.5787945
  61.0116100  34.0958548  34.8592162  62.5746298  35.2129865  35.5969906
  62.8513479  35.4729319  34.5752501  61.9375563  35.9037924  36.1492872
  63.4287024  35.1037002  36.2653613  62.5351048  32.6900911  34.9677873
  63.7439585  32.5813079  34.9005771  61.7067432  31.7122936  34.5573950
  60.7156515  31.9054890  34.5348668  62.1741009  30.3090048  34.1965699
  63.2471561  30.1351810  34.2767954  61.6155434  29.2144847  35.1790595
  60.5307341  29.3018484  35.1186347  61.9604015  28.2139659  34.9180079
  62.0684004  29.4369197  36.6596246  61.1922455  29.4026852  37.5634885
  63.2247162  29.6890330  36.9654369  62.0228052  29.9853635  32.7104616
  62.1593952  28.8196445  32.3530293  61.6659355  30.8928037  31.8378973
  61.3830853  31.7796540  32.2298098  61.2689304  30.6424356  30.4114771
  61.4805031  29.6036339  30.1580358  59.8076677  30.8735204  30.1297855
  59.5638275  31.8719506  30.4928041  59.5891190  30.8630967  29.0619707
  58.8943434  29.8490191  30.9426451  58.9628792  28.8965011  30.4171824
  59.3647289  29.7116327  31.9162846  57.2369909  30.3548384  31.2956595
  56.5441465  30.0327325  29.6506572  57.0410490  30.6400537  28.8941121
  56.5431452  28.9622450  29.4453359  55.4833269  30.2831483  29.6584797
  62.0555449  31.4240432  29.4277048  62.5084496  32.5048852  29.8697996
  62.3040771  30.9384179  28.2247734  61.8409204  30.0842118  27.9492283
  63.2129383  31.5528727  27.1788311  63.0153275  31.1004353  26.2070560
  63.1294250  33.0231810  26.9423985  63.3012247  33.5070181  27.9039001
  63.8245487  33.3651423  26.1756086  61.6990137  33.5300827  26.6151571
  61.0413933  33.0826068  27.3604131  61.6392088  34.6107602  26.7442203
  61.1614084  33.1543875  25.1654649  59.9915457  32.7651620  25.0717330
  61.9028759  33.1968856  24.1536713  64.6768808  31.0942316  27.4060321
  65.1961708  30.3564239  26.5967131  65.3815842  31.5406227  28.4740067
  64.9061966  32.1304011  29.1420412  66.6777325  31.0040927  28.9272714
  67.1186686  31.6582799  29.6794128  66.5301371  29.5759201  29.5268822
  66.1936474  28.8597155  28.7772632  67.4837971  29.1947484  29.8920417
  65.5216789  29.4639587  30.6544828  65.7513523  30.3285813  31.2771988
  64.5370960  29.5865655  30.2031946  65.6965160  28.1714869  31.3975883
  65.3754282  27.1144724  30.8319712  66.0354137  28.1122947  32.5997496
  67.8022480  30.9898186  27.7433896  68.5432768  30.0042963  27.5741434
  67.9628468  32.1425891  27.1646643  67.2193766  32.8127265  27.2998285
  68.9514017  32.5650048  26.2338114  68.8475037  31.9548965  25.3365541
  68.7374067  34.0381002  25.8901143  68.8407660  34.6153665  26.8089104
  69.5806456  34.1957879  25.2176690  67.4582005  34.4210911  25.0800896
  66.3267660  35.0528979  25.6158638  66.4076281  35.4349852  26.6227770
  65.1163435  35.2701354  24.8859382  64.1622448  35.6288767  25.2428770
  65.0398111  34.7956920  23.5598421  64.0962410  34.8408747  23.0363560
  66.2058592  34.2065239  22.9626369  66.2637424  33.8343167  21.9504571
  67.3908901  34.0119338  23.7328696  68.1963778  33.4388423  23.2979512
  70.3466082  32.3517847  26.7987609  70.4906178  32.4213266  28.0495882
  71.3906193  32.1432281  25.9171534  71.2524128  32.2752023  24.9253964
  72.5853968  31.4506221  26.4131737  72.6043034  31.4498758  27.5030112
  72.6138210  29.9488854  25.9964967  73.5796738  29.5009232  26.2300777
  71.9746494  29.3368053  26.6328263  72.2421932  29.5802832  24.5578432
  73.0567551  29.7054410  23.4108210  72.2966862  29.2543364  22.4284744
  72.5956106  29.1768742  21.3935614  71.1885023  28.7390161  22.8183222
  70.5811119  28.1724191  22.2437334  71.1008978  28.9190912  24.1742682
  70.3221941  28.5409164  24.8200226  73.9043188  32.1396875  25.9664106
  74.9957180  31.8701720  26.3541555  73.8089037  33.0557632  24.9835539
  72.8591871  33.3088446  24.7509956  74.7921658  33.8848662  24.3395972
  75.6685925  33.2665205  24.1456294  74.4475365  34.0253115  23.3150959
  75.1237392  35.1608014  25.0985551  74.8217392  35.3184080  26.2892675
  75.6492376  36.1325407  24.3740129  75.6422949  35.9341431  23.3837128
  75.9826612  37.5220418  24.7168779  75.3692293  37.9268718  25.5218101
  77.4709034  37.5174785  25.1555276  78.0861521  37.1709442  24.3251777
  77.8065825  38.5470366  25.2797413  77.8300858  36.5834904  26.3044882
  77.0088434  36.6422391  27.0187783  77.9824066  35.5965042  25.8677268
  79.0227461  36.9520736  27.1208286  79.8400831  37.1880865  26.4393926
  78.8455963  37.8874016  27.6517630  79.3306398  35.8684754  28.0679679
  79.5130062  34.9629593  27.6594543  79.2587805  35.8054209  29.3923569
  79.1631079  34.6221042  29.9292374  79.1605711  33.8096261  29.3292594
  79.2463827  34.4778848  30.9254146  79.1573620  36.8481708  30.1613975
  79.1442060  37.8030109  29.8324466  78.9566898  36.8122458  31.1506104
  75.7706928  38.3630133  23.4251571  76.6799164  38.3818030  22.5478506
  74.6826696  39.1737199  23.3781934  74.0482330  39.1374826  24.1632247
  74.4669962  40.1548719  22.3210025  74.6315241  39.6764779  21.3555121
  72.9985905  40.6552029  22.2849941  72.6951504  41.1712456  23.1958866
  72.8525686  41.6111183  21.0586381  73.4976006  41.3741875  20.2125287
  71.8039703  41.4594126  20.8026385  73.0075455  42.6099205  21.4666438
  72.1872902  39.5191360  22.0853949  71.9854927  39.1087437  22.9294705
  75.4552078  41.3135242  22.5599885  75.3626060  42.0188570  23.5062623
  76.3236666  41.6121626  21.6025496  76.2780476  41.1692905  20.6959724
  77.3820114  42.5991392  21.7803311  76.8937111  43.2872200  22.4704099
  78.7022686  41.8640471  22.2515678  79.0260649  41.1264229  21.5172887
  79.5487213  42.5504827  22.2720957  78.6726904  41.1861515  23.6696219
  77.7152205  40.7229137  23.9078736  79.6786022  40.1058960  23.9537716
  80.6806374  40.5303478  23.8916516  79.5463848  39.8958397  25.0151396
  79.4326353  39.2267823  23.3581519  78.8091946  42.2755241  24.6978903
  77.9394960  42.9159737  24.5511055  78.6771917  41.8219233  25.6801987
  79.6878433  42.9180622  24.6411204  77.7686262  43.3785677  20.5125451
  77.7729225  42.8772831  19.4513988  78.1502819  44.6788406  20.7493997
  78.3207464  44.9555159  21.7056894  78.3958101  45.7509899  19.8184788
  78.2313442  45.3204203  18.8307226  77.5159931  46.9875526  20.1331592
  77.7709675  47.2796583  21.1518669  77.9132175  47.8098106  19.5380092
  75.9906578  46.8535614  19.8681271  75.3956318  46.8198586  18.6103106
  74.1213512  46.6031218  18.8349950  73.3259678  46.4547443  18.1196237
  73.7829924  46.6300678  20.1442075  72.9051018  46.3392353  20.5501962
  74.9673080  46.7674208  20.8208060  75.0544024  46.7091036  21.8957067
  79.9024773  46.0834503  19.8104012  80.4905701  46.0643673  20.8856964
  80.4145908  46.4454603  18.6379397  79.8207712  46.5052366  17.8231347
  81.7645359  47.0106125  18.4434533  82.3562241  46.1766005  18.8208413
  82.0172215  47.2381830  16.9653928  81.1825848  47.6486921  16.3971043
  82.8272629  47.9501390  16.8071234  82.4035645  45.9442663  16.1679316
  83.1102085  45.0722456  16.7613971  82.0270348  45.7722950  14.9869800
  82.1066380  48.2251549  19.2264044  81.2042141  49.0366030  19.4313455
  83.3689594  48.4486961  19.6482205  84.0487003  47.7271843  19.4546497
  83.7923717  49.7016144  20.3864574  83.2673359  49.6928883  21.3416338
  85.2168274  49.6153975  20.7712078  85.8705711  49.6034479  19.8991001
  85.4619980  50.5120611  21.3404083  85.6707764  48.4386015  21.6369104
  86.7395592  47.8969908  21.3481975  84.8727322  47.9689074  22.4585795
  83.4509277  50.8921719  19.5169711  83.5129738  50.7076645  18.2736325
  83.0895615  52.0810461  20.0778937  82.8929710  52.0015335  21.0653806
  82.8488255  53.3780718  19.4473398  82.8478336  54.0593338  20.2982116
  84.0435505  53.7230158  18.4764338  83.9093304  53.2820702  17.4886835
  83.9912224  54.8082876  18.3895230  85.4848671  53.3230019  18.9088213
  85.8648777  53.4218645  20.0803971  86.3014603  53.0455256  18.0171144
  81.4845943  53.5599661  18.7696517  81.0680199  54.6049213  18.3294821
  80.6952381  52.4224663  18.6249614  81.1503792  51.6295528  19.0541923
  79.4860506  52.4501371  17.7981305  79.7018003  52.8632259  16.8127835
  79.0003157  50.9957409  17.5621104  78.3578396  50.6204081  18.3586335
  78.3513832  50.9931231  16.6863382  79.9954128  50.0489998  17.2917688
  80.3293228  49.8428154  18.1678975  78.3725119  53.3290291  18.3991122
  77.9698181  53.1080246  19.5638418  77.8115749  54.3058681  17.6228154
  78.0161476  54.2615700  16.6347420  76.7154741  55.1797676  18.0770898
  76.8797970  55.3469086  19.1415906  76.8527365  56.5397930  17.3989666
  76.9623375  56.3773537  16.3267255  75.6949663  57.5057650  17.7240062
  74.7610664  57.1757936  17.2689688  75.5728149  57.4933863  18.8070703
  76.0413790  58.4854269  17.3948228  78.1731653  57.2219372  18.0710614
  78.0491209  57.6426268  19.0689266  78.9470148  56.4569044  18.1341815
  78.8451481  58.4063816  17.3863196  78.0913687  59.1736221  17.2094941
  79.6472597  58.8998413  17.9351473  79.2027044  58.1610012  16.3862991
  75.3283787  54.5423317  17.8280747  74.7580671  54.6531677  16.7737544
  74.8648548  53.7341022  18.7936997  75.4946661  53.6245728  19.5756495
  73.6264372  52.9255104  18.7991297  73.3121967  52.8756666  17.7565992
  74.0167189  51.5155745  19.3280399  74.5352983  51.5590477  20.2857900
  73.0350161  51.0818291  19.5183623  74.8778057  50.5818319  18.3775866
  75.8255148  51.0912514  18.2031047  75.1458931  49.6107292  18.7937438
  74.1823912  50.2279282  17.0708120  73.4799099  49.2234039  16.8251121
  74.4042110  51.1323881  16.1337006  73.9700317  51.0291195  15.2276516
  74.9166012  51.9905376  16.2790895  72.4796295  53.7445164  19.4939983
  72.7362299  54.7490454  20.1951838  71.2230158  53.1522799  19.4584811
  71.0116863  52.4071169  18.8102770  69.9775934  53.7249231  19.9763882
  70.2076530  54.5065975  20.7003760  69.1813087  54.3250942  18.8623023
  69.1560221  53.4767485  18.1783664  67.8032923  54.7533321  19.2566335
  67.2764111  53.9392853  19.7544599  67.7388191  55.5811882  19.9627507
  67.2628641  55.0692987  18.3643317  69.8735046  55.5264187  18.2017720
  69.1622162  55.9046078  17.4675071  70.0352526  56.3397312  18.9092100
  70.7853365  55.1874208  17.7100956  69.1768265  52.5947666  20.6566310
  68.7918997  51.6015625  20.0560713  69.0417528  52.6916218  22.0291090
  69.4089270  53.5790348  22.3418069  68.6564827  51.5998554  22.8923559
  68.2828760  50.7498217  22.3214316  69.8728228  51.0370111  23.6474442
  70.2480936  51.7010593  24.4261098  69.5128012  49.7866964  24.4006824
  69.2185879  49.0866899  23.6186695  70.3786469  49.3724489  24.9172163
  68.7587023  49.9933529  25.1601100  71.1094904  50.8332968  22.7432728
  70.8579874  50.2041483  21.8894482  71.4182091  51.7943478  22.3319626
  72.3183298  50.2643394  23.5241389  73.1636047  50.3006124  22.8368998
  72.5190067  50.8441639  24.4250488  72.1267891  49.2274380  23.8002801
  67.5296640  52.1385431  23.8787150  67.5814009  53.3298254  24.2507958
  66.4164257  51.3979626  24.3178320  66.1281013  50.0081778  23.8809705
  66.9667292  49.3151903  23.9485407  65.8621120  50.0209856  22.8240013
  64.9201012  49.5307302  24.7514224  65.2837420  49.0618753  25.6657743
  64.3268633  48.9080286  24.0817881  64.2102718  50.8266306  25.0768876
  63.7207222  50.7424212  26.0471225  63.5834789  51.1964464  24.2654276
  65.3495646  51.8454742  25.2245617  64.9954081  52.8104973  24.8620677
  65.9121275  51.9615984  26.6507888  66.9534731  51.3098574  26.8965483
  65.2981758  52.7996445  27.4156785  64.5118427  53.2147360  26.9366384
  65.5728722  53.2003069  28.7550282  66.3864660  52.6120901  29.1794872
  66.1036301  54.6445560  28.8746190  65.4648018  55.2954197  28.2776523
  66.1268234  55.2187347  30.3356743  65.1928663  55.7720089  30.4341960
  66.3729763  54.4599724  31.0785055  66.8629122  56.0226202  30.3292370
  67.5208044  54.5984364  28.2793689  67.5990486  54.1298676  27.2983360
  67.9759026  55.5845022  28.1862926  68.1476450  53.9645624  28.9065742
  64.3501425  52.9747248  29.7071671  63.3148432  53.6658525  29.5226884
  64.5120907  52.2440672  30.7773948  65.4783773  52.0405865  30.9895277
  63.5101080  51.9119692  31.7653942  62.5344801  52.1892643  31.3661909
  63.4888744  50.3688717  31.8519115  64.4252443  50.0736713  32.3253751
  62.7273035  49.9811697  32.5285268  63.4304428  49.5863438  30.5065584
  64.2195034  49.9112129  29.8283672  63.6047029  48.0979204  30.6249356
  62.7758598  47.6760721  31.1934066  63.5784483  47.6876640  29.6154284
  64.6188259  47.9199362  30.9826756  62.1705961  49.7725010  29.6335649
  62.4080324  49.4406557  28.6228228  61.2458706  49.2658567  29.9097896
  62.0766211  50.8565569  29.5695210  63.7673283  52.6912785  33.0359221
  64.4690037  52.1749020  33.8941598  63.2155418  53.9405966  33.2345271
  62.5728846  54.7382641  32.2264123  61.7067814  54.1655207  31.8948507
  63.2690525  54.9106169  31.4055967  62.1582031  56.0595894  32.9083943
  61.1908627  55.8503532  33.3650970  62.0218754  56.8639088  32.1854925
  63.2360697  56.2287188  33.9491343  62.8992510  56.8325472  34.7917771
  64.0644598  56.7407942  33.4595847  63.6135006  54.8236179  34.3390489
  64.6897554  54.7299194  34.4840002  62.8877592  54.5045471  35.6818342
  62.9943037  55.2260494  36.6667175  62.0169067  53.4630728  35.7472038
  61.7387581  53.1296206  34.8353148  61.8628263  52.7691412  37.0326495
  61.2336493  53.4598303  37.5940633  61.1310101  51.4500999  36.7588949
  60.1855183  51.5761662  36.2313962  61.7128611  50.7638454  36.1435843
  60.7371855  50.6477928  37.9955530  60.5305147  49.6311569  37.6611280
  61.5601015  50.6505251  38.7103319  59.4660711  51.1367798  38.7483907
  59.0826178  52.2610855  38.4230304  58.8665676  50.4350710  39.6944666
  57.9396105  50.6958532  39.9991703  59.0840960  49.4690609  39.8934746
  63.1750870  52.5052118  37.7859211  63.1500292  52.5234556  38.9966488
  64.2620993  52.1588564  37.0816016  64.2322350  52.1855879  36.0723972
  65.5599403  51.7793274  37.6443100  65.5703640  51.3951731  38.6643243
  66.3368607  50.7558441  36.8358850  66.8017244  51.2900972  36.0072827
  67.4685144  50.1436996  37.6895714  68.2064867  49.7268438  37.0042133
  68.0022049  50.8295774  38.3474755  67.0980978  49.3074751  38.2825470
  65.4630041  49.6067762  36.3049221  64.5826817  49.9866152  35.7864118
  66.1127901  49.0729952  35.6114125  64.9999046  49.0665245  37.1306109
  66.4211988  53.0172396  37.7911687  66.5962076  53.7776089  36.8219805
  66.8643808  53.3180475  38.9726949  66.5181589  52.8513384  39.7987795
  67.7703762  54.4184971  39.3506670  68.0658484  54.9581861  38.4509254
  66.9482803  55.4575062  40.1613235  67.5348568  56.3752699  40.2030087
  66.0036707  55.6433249  39.6501613  66.7881966  55.0060749  41.5995932
  67.6826048  54.5368814  42.0094585  66.5811205  55.9009790  42.1864319
  65.3872156  53.7790108  41.7671108  63.9707422  54.9054909  41.5537405
  63.0965328  54.3474007  41.8889809  64.1194963  55.7907867  42.1719837
  63.9950705  55.1500177  40.4918003  69.0958214  54.0354824  39.9736452
  69.9419260  54.8774910  40.1742458  69.2395639  52.7361012  40.1822233
  68.5033178  52.1254349  39.8579741  70.5724096  52.1697807  40.5604744
  71.0189438  52.6794338  41.4142704  70.3642464  50.6907320  40.9807968
  71.2811947  50.2810621  41.4044523  69.5785761  50.7710171  41.7320442
  69.8488760  49.7047377  39.9339795  68.7642241  49.7955179  39.9922061
  70.2343607  49.9946213  38.9564919  70.3770304  48.0026627  40.1576376
  71.8931723  48.0799580  39.2382002  72.2615957  49.0914536  39.4092226
  72.6350212  47.4060869  39.6667576  71.6965723  47.8865576  38.1836677
  71.6227531  52.3199987  39.4376230  71.3276148  52.1622324  38.2801247
  72.8868580  52.6426697  39.8144841  73.1524897  52.5317383  40.7825899
  73.9575911  52.6828384  38.8664722  73.5528946  53.1415319  37.9642963
  75.0526142  53.6702442  39.3000150  75.5093098  53.4123611  40.2555418
  76.2341213  53.6733627  38.2045937  76.7830801  54.5966387  38.3898401
  76.7754841  52.7311134  38.2893872  75.8025599  53.7243700  37.2049689
  74.6098137  55.1310825  39.3514991  75.5338287  55.6070900  39.6796966
  74.3226194  55.4725361  38.3570004  73.4805012  55.5368567  40.2488422
  72.6285553  55.5435371  39.5689535  73.3970022  54.9200726  41.1436653
  73.5835505  56.5549326  40.6243372  74.4168854  51.3208866  38.4876537
  75.1771212  50.7333231  39.1865230  73.9671850  50.7605219  37.3527408
  73.1743145  51.1668348  36.8769622  74.3490934  49.4189119  36.8291402
  74.0615463  48.6467743  37.5427437  73.4782267  49.0808964  35.5569243
  72.4560738  49.3639565  35.8082724  73.8614511  49.8066521  34.8396206
  73.5159397  47.6246262  35.0572753  74.5288706  47.2650003  34.8763204
  72.8211832  46.6139984  36.0543704  72.6280642  45.6241751  35.6407833
  73.4789944  46.6057682  36.9234610  71.8079901  46.8963242  36.3404346
  72.8209925  47.5791502  33.7048769  73.2339096  48.3557510  33.0610704
  73.0277586  46.6416073  33.1887674  71.7390203  47.5957537  33.8359070
  75.7892942  49.2329884  36.4271903  76.2713766  50.0852251  35.6325436
  76.4998150  48.1405973  36.7346263  76.1714125  47.4200678  37.3615980
  77.8479242  47.8228378  36.1913443  78.0337763  48.6094332  35.4600263
  78.9395618  47.8984404  37.2137952  79.9060678  47.9693270  36.7148495
  78.8207674  49.1237164  38.1490374  77.9097271  49.0391827  38.7414503
  79.7153473  49.1636229  38.7705183  78.7168980  50.0752687  37.6276398
  78.9888763  46.6352177  38.0709529  79.9061537  46.5767813  38.6568546
  78.1427956  46.5523720  38.7531447  78.9520645  45.7525396  37.4325037
  77.8153133  46.4774942  35.3672552  76.9779634  45.6196356  35.5982924
  78.7533665  46.2384796  34.4239902  79.5325756  47.3146152  33.8408613
  80.2754593  47.6481390  34.5654225  78.9681244  48.1947899  33.5329938
  80.2679348  46.6972256  32.5806952  81.2109089  47.2302961  32.4593067
  79.5516682  46.7531157  31.7609882  80.4661751  45.2766562  33.0690837
  81.2091541  45.2952480  33.8664198  80.6080818  44.5641279  32.2565126
  79.0719318  44.9734020  33.7911558  78.3574295  44.7878170  32.9891920
  78.9596128  43.7568712  34.6586490  79.5677137  43.7491846  35.7026958
  78.1913233  42.6865625  34.2804408  77.7404547  42.8043270  33.3843684
  78.0636072  41.4405489  35.0651002  77.9582119  40.5292940  34.4763660
  78.9837980  41.3238955  35.6375909  76.8239307  41.3410378  35.9935617
  76.2937784  40.2509785  36.2022924  76.2598801  42.4854898  36.5031815
  76.7158175  43.3652401  36.3075686  75.1362848  42.3546457  37.4275851
  75.3669643  41.6951466  38.2642150  74.9154949  43.7111092  38.0583596
  74.7063017  44.4904423  37.3255706  74.0403986  43.6449289  38.7048340
  76.2122440  44.0647411  38.8725519  76.6835928  43.2369328  39.4023323
  76.9932318  44.4683647  38.2281590  75.8791733  45.1374912  39.9000573
  75.9223127  46.3390398  39.6706820  75.5608654  44.7096062  41.1347675
  75.4011536  45.3920412  41.8620014  75.5899286  43.7079906  41.2613487
  73.8800573  41.8741894  36.6417384  73.4445715  42.4687338  35.6408334
  73.2551146  40.8443356  37.1811676  73.6671686  40.3845501  37.9804850
  71.8599319  40.4750586  36.8532515  71.7555141  40.2782106  35.7862711
  71.5224838  39.0242529  37.3496199  71.8738794  38.8659811  38.3692145
  70.0228786  38.5760665  37.2191143  69.6788692  38.7114239  36.1937189
  69.9411583  37.5080156  37.4208474  69.2787123  39.0677190  37.8456903
  72.1417761  38.1173420  36.4488077  73.0753803  38.1981730  36.6572618
  70.9104967  41.4782524  37.3859930  70.9801865  42.0059347  38.5383010
  69.8262739  41.8258667  36.6308355  69.9804831  41.5305471  35.6773639
  68.8713837  42.9051495  36.9173741  69.0076065  43.2954931  37.9259253
  69.2422915  44.1389990  36.1194706  70.2616787  44.4977999  36.2616587
  69.1555738  43.9498806  35.0495100  68.3413553  45.3856277  36.2615299
  67.2832155  45.1539564  36.1399913  68.2488966  45.9433460  37.6890564
  67.6082850  46.8231773  37.6289964  67.9279518  45.2467728  38.4635758
  69.2281914  46.3383245  37.9593658  68.8091946  46.4746189  35.2811217
  69.8530722  46.7520428  35.4276013  68.6356163  46.1023092  34.2714882
  68.1450939  47.3296642  35.4075003  67.4933481  42.3998260  36.6734648
  67.1203804  42.2667980  35.4857230  66.7687893  42.0777559  37.7360821
  67.1786308  41.9124556  39.1156554  67.2593355  42.9352570  39.4836998
  68.0311394  41.2385368  39.2002630  66.0996723  41.1079359  39.8343182
  65.6377172  41.8389797  40.4978418  66.5543079  40.2650213  40.3547955
  65.0508356  40.7063675  38.7568021  64.0706015  40.9587145  39.1612291
  65.2355194  39.6618748  38.5057402  65.3977299  41.6001129  37.5325561
  65.2817059  40.9392548  36.6735387  64.4109392  42.8245831  37.5158095
  64.4238615  43.7393713  38.2471585  63.4221268  42.7160454  36.6032863
  63.3948135  41.9291592  35.9706974  62.3267794  43.6857843  36.4431572
  62.2468138  44.3621778  37.2941566  62.6191854  44.4718504  35.1843429
  62.4976015  43.7272358  34.3976617  61.8183279  45.1993895  35.0523472
  63.9985323  45.1586485  35.2052832  64.8277712  44.4783831  35.3994513
  64.2492437  45.7568264  33.8203263  64.3982935  44.9159241  33.1430054
  63.3908176  46.3280106  33.4668183  65.1668072  46.3239002  33.9771962
  64.0581179  46.2960529  36.1798954  65.0408983  46.7567110  36.0797238
  63.3331013  47.0935106  36.0170770  63.9352989  45.9002972  37.1880651
  60.9085655  43.0259705  36.3286734  60.8301163  41.9277525  35.7376957
  59.8113823  43.7284708  36.7570210  59.9715328  44.6622038  37.1071482
  58.4120607  43.3204412  36.6245627  58.3472776  42.4569702  35.9625077
  57.8711033  43.0922842  38.0035257  58.2296658  42.1894312  38.4978819
  58.1229067  43.9999819  38.5519576  56.3529778  43.0144930  37.9603171
  55.9894180  44.0417099  37.9328156  55.9752321  42.4088335  37.1365571
  55.7705593  42.4355125  39.3296838  56.1667633  41.3580894  39.7905874
  54.7752571  43.0429792  39.8848152  54.4856071  42.8315783  40.8290148
  54.4736433  43.9198685  39.4845676  57.7110338  44.4617701  35.9096360
  57.8757858  45.6846189  36.2275767  57.0373678  44.2207050  34.7626972
  56.9448137  43.2700729  34.4343281  56.5125608  45.2335644  33.7809730
  56.7194462  46.2305975  34.1698408  57.2237301  45.1157331  32.4325871
  57.0459938  44.1395664  31.9813561  56.8067169  45.8770657  31.7733669
  58.7762594  45.3344679  32.6212502  59.0399647  45.8502722  33.5445619
  59.5344305  43.9643192  32.6977539  60.5989027  44.1255903  32.8680325
  59.1215944  43.2881260  33.4463763  59.3800020  43.4772539  31.7349339
  59.2898321  46.1412859  31.4060712  60.3688955  46.1646748  31.5582848
  58.9370823  45.8071899  30.4303408  59.0090513  47.1743631  31.6110325
  55.0242567  45.0835657  33.4169841  54.5230532  43.9726734  33.2525778
  54.2717505  46.1748743  33.4225917  54.6817923  47.0757914  33.6233687
  52.8073263  46.1258316  33.4867692  52.4931765  45.1283264  33.1795311
  52.4540520  46.4223003  34.9634647  52.7348614  45.5603075  35.5686283
  52.9860592  47.2727442  35.3898573  50.9203243  46.6233015  35.2338815
  50.4706430  47.7005196  35.9777403  51.1597157  48.4306669  36.3758254
  49.1039371  47.8766108  36.1152506  48.8241100  48.7671852  36.6583657
  48.2066250  46.9336128  35.6551003  47.1770954  47.1619272  35.8882093
  48.5726833  45.8287334  34.8297167  47.8931904  45.2401876  34.2311311
  49.9955225  45.7578087  34.5928502  50.3178644  44.9721909  33.9255428
  52.1644688  47.0178461  32.4853945  51.1661625  46.6193724  31.8814445
  52.7757406  48.1834698  32.1633005  53.6862564  48.3413982  32.5708818
  52.2614431  49.0407991  31.1032033  51.2233210  49.2360258  31.3720655
  52.9167080  50.4235172  30.9428549  52.9719019  50.7803965  31.9712949
  53.9455891  50.4118061  30.5831885  52.1637869  51.3258457  30.0225711
  52.1457386  51.0997868  28.6632371  51.3522100  52.0159340  28.1028414
  51.2677002  52.1761799  27.0381451  50.7945728  52.8136635  29.0771437
  50.1528168  53.5684109  28.8806510  51.3717127  52.4075747  30.2844238
  51.2925291  52.8497553  31.2665677  52.3168850  48.2682323  29.7225785
  53.4469271  47.8397703  29.3844676  51.2439203  48.1779575  28.9270353
  49.8718452  48.6066675  29.2901850  49.7888041  49.6934271  29.2777348
  49.7868633  48.2538033  30.3179812  48.9478540  47.7977896  28.2943702
  48.0814362  48.3786154  27.9780507  48.6564732  46.8345451  28.7131262
  49.8673964  47.5355673  27.0680380  49.8601961  48.4230757  26.4352798
  49.5719481  46.6614389  26.4877653  51.2546825  47.4017572  27.6937985
  51.2560844  46.3611126  28.0180836  52.3311329  47.7742338  26.6734362
  52.7129459  46.9135475  25.8874869  52.8438187  48.9860582  26.6182733
  52.3822594  49.6837234  27.1842480  53.9084482  49.4148731  25.7531238
  53.6303854  48.9933062  24.7871733  53.9111423  50.9448433  25.6523538
  52.8842115  51.2777805  25.8028984  54.6013355  51.4382219  26.3366818
  54.1854429  51.3577223  24.1580915  55.0342178  50.8596516  23.6894727
  53.3570910  51.1271763  23.4881759  54.5654535  52.8313065  24.0162230
  53.8744926  53.6978674  24.4747090  55.7370090  53.0769825  23.4943962
  55.8983517  54.0735912  23.4653282  56.5101480  52.4594450  23.2919049
  55.3500366  48.8926363  26.1341739  56.1919355  48.6566591  25.2724719
  55.5799627  48.8046503  27.4699903  54.8409605  48.9511299  28.1426930
  56.7109251  48.1966352  28.0109930  57.5749874  48.3845139  27.3736572
  56.9960546  48.7285566  29.4131255  56.2229443  48.2550192  30.0182390
  57.9420614  48.2699823  29.7010112  56.9047499  50.2277422  29.6291542
  57.7008724  50.7066154  29.0590882  55.9507275  50.5783510  29.2354393
  57.0962858  50.6522989  31.0851240  57.0742655  49.7544003  31.9298673
  57.3187733  51.8276024  31.3445854  56.5883398  46.5984917  27.9128957
  57.5897741  45.8905220  27.6201129  55.3441048  46.0755539  27.9274726
  54.6254396  46.6971111  28.2699442  55.1029110  44.6473026  27.7876115
  55.8128166  44.1225719  28.4269810  53.6712170  44.3902397  28.2965755
  52.9872465  45.0111437  27.7179885  53.2596874  42.9061747  27.9986191
  53.1739616  42.8473663  26.9135880  54.0127754  42.2388411  28.4176898
  52.2564840  42.7010012  28.3722353  53.3995724  44.5867491  29.7473145
  53.6157036  45.5918455  30.1094842  52.3686790  44.3066406  29.9638748
  53.9507961  43.8734722  30.3600907  55.4033089  44.1671276  26.3550019
  56.1670828  43.2662392  26.0989952  54.7693968  44.9029732  25.4654741
  54.1546440  45.6328392  25.7963443  55.0260401  44.7850418  24.0606618
  54.8684502  43.7314367  23.8300467  54.0107584  45.6110859  23.2717562
  54.1404819  45.4676819  22.1990466  52.9864597  45.3042078  23.4832954
  54.2090654  46.9780016  23.6327505  53.8423109  47.1780872  24.4970775
  56.5274286  45.0531530  23.6626434  57.0478678  44.1783905  23.0234146
  57.1228647  46.2070799  24.0305448  56.5755177  46.9091702  24.5076060
  58.5443497  46.4100313  23.8068271  58.8972425  46.4720345  22.7774000
  59.1281891  47.7102232  24.3680954  58.6477280  48.4476805  23.7251234
  58.7237120  47.8802967  25.3658772  60.6385803  47.8431845  24.4185114
  61.1602974  46.8927097  24.5303488  60.9092951  48.2615328  23.4490800
  61.2677240  48.7585688  25.8544850  61.0214138  47.4751043  27.1856165
  61.2689972  46.5040445  26.7568445  61.7855167  47.5633287  27.9579306
  60.0188303  47.3785448  27.6022720  59.3931437  45.2164316  24.3505526
  60.2432013  44.7104740  23.6694026  59.1861057  44.7088528  25.6032610
  58.5281706  45.1898432  26.1998153  59.8743248  43.4878445  26.1287189
  60.8911753  43.8790989  26.1610126  59.5074844  43.2014322  27.6051879
  58.4290695  43.1188393  27.7404714  60.0502253  41.8121052  27.9588032
  61.1185980  41.6743517  27.7923751  59.8608875  41.5158415  28.9905405
  59.5582056  41.0048342  27.4162793  60.0838566  44.1140985  28.6295724
  59.7612476  43.8724947  29.6423197  61.1727619  44.1617632  28.6193585
  59.6711159  45.0940180  28.3897829  59.8076296  42.3456430  25.1792049
  60.8400965  41.8710375  24.6790743  58.6844778  41.9473648  24.6428728
  57.8617764  42.4513292  24.9416804  58.5718203  40.8349705  23.6211324
  58.9757776  39.8841524  23.9687872  57.0735979  40.5030966  23.3818817
  56.5385723  41.4254522  23.1558275  56.9154549  39.8242068  22.5439000
  56.4121103  39.9380970  24.6810055  56.6512966  38.8815665  24.8019743
  56.6764832  40.4652405  25.5977011  54.8490906  40.0935888  24.5080066
  54.6775103  41.1676311  24.5793581  54.4781923  39.8032761  23.5250258
  54.1599703  39.3064880  25.5509853  54.6942234  38.5428143  25.9401751
  52.9425287  39.4564605  26.0075784  52.1871519  40.4401827  25.7465816
  52.6384497  41.0332012  25.0648475  51.2514973  40.4983950  26.1224294
  52.4956369  38.4823656  26.7243695  52.9152441  37.5669909  26.8026042
  51.5198374  38.4139228  26.9758391  59.3055582  41.1473513  22.2366023
  60.0234842  40.3254652  21.7744112  58.9963627  42.3118734  21.6754723
  58.2122183  42.8242826  22.0531607  59.8737049  43.0352402  20.7427740
  59.6505785  42.6736116  19.7390103  59.4220161  44.5038939  20.4602361
  59.4876909  45.0351906  21.4097166  59.9987698  44.9957752  19.6769691
  58.0332565  44.6561670  20.0000238  57.2749329  43.7244177  19.9632227
  57.6432371  45.7338476  19.3700075  56.6911125  45.6317091  19.0488672
  58.2057333  46.5572166  19.2095101  61.3434982  43.1284618  20.9142423
  62.0211649  42.8521061  19.9471450  61.9415569  43.2361937  22.1059203
  61.3806772  43.6108780  22.8576756  63.3702230  43.0019045  22.3616028
  63.9165497  43.4570360  21.5354776  63.8135433  43.6234951  23.6998987
  63.2096195  43.2093716  24.5072865  64.8331213  43.3375025  23.9582968
  63.7735748  45.1684761  23.8204670  62.7516842  45.5046797  23.6449432
  63.9638376  45.5812216  25.2714109  63.4866858  46.5471888  25.4367518
  63.4248686  44.8892736  25.9185743  65.0247478  45.7236910  25.4769993
  64.6141338  45.9576559  22.8218746  65.6478930  45.6407070  22.9596519
  64.2529964  45.6917191  21.8284178  64.4675207  47.0198727  23.0175662
  63.7556839  41.5275097  22.2328806  64.6920586  41.1336851  21.5271044
  62.9886389  40.6290483  22.9633212  62.3032618  40.9252310  23.6434960
  63.1190157  39.1825342  23.0002618  64.1020632  38.9368892  23.4019780
  62.0546770  38.5097480  23.9315128  61.0851002  39.0064883  23.8959479
  61.6311598  37.0363474  23.6430430  61.6141701  36.8193460  22.5749946
  62.2684860  36.3500047  24.2005873  60.6151199  37.0363784  24.0377092
  62.6565170  38.5980821  25.3592110  63.5740185  38.0179882  25.4580903
  62.9212570  39.6223235  25.6217837  61.6319084  38.2543063  26.4377093
  60.7635832  38.9127231  26.4623618  61.3873959  37.1935439  26.3820672
  62.1480322  38.3117437  27.3960519  63.1342077  38.6158824  21.5570259
  63.9844322  37.7968192  21.2306905  62.2651815  39.0850973  20.6712031
  61.4869547  39.5780277  21.0853004  62.2083855  38.6725068  19.2318892
  62.2088385  37.5849342  19.1591632  60.8613253  39.1723442  18.6299169
  60.6874847  40.2033758  18.9378965  60.9897947  39.1179848  17.5488782
  59.6272945  38.4086394  18.9427602  59.7877836  37.3449922  18.7666929
  59.4899321  38.5759568  20.0110459  58.4195375  38.9648485  18.2339668
  58.4178591  40.0110006  17.5529480  57.3274469  38.2677126  18.2391465
  56.5069294  38.6693931  17.8084445  57.3273706  37.4353480  18.8112223
  63.5084248  39.1945291  18.4977722  63.8775587  38.5937071  17.4706006
  64.1597080  40.2696180  18.9383447  63.7994814  40.6237650  19.8129404
  65.2072573  40.9963226  18.2427144  65.4773140  40.5034304  17.3087847
  64.6722507  42.4308109  17.8362894  64.3100595  42.9053020  18.7483096
  65.4381704  43.0427027  17.3597860  63.5413599  42.3397398  16.8154335
  63.6278820  41.9464111  15.7121384  62.3716736  42.7827549  17.2122264
  61.6405392  42.5648022  16.5503824  62.2356224  42.9777765  18.1938326
  66.4807892  40.9886885  19.0669668  66.8790579  39.9280739  19.5106971
  67.1237516  42.1263313  19.3375504  66.7053509  43.0101728  19.0848267
  68.5192251  42.0967150  19.9702227  69.0022135  41.2582970  19.4683409
  69.2611170  43.4024715  19.6354234  70.2839518  43.3044291  19.9991536
  69.2301321  43.5201931  18.5522425  68.6320543  44.6287394  20.3693223
  68.9569092  45.7914782  19.9588239  67.7482319  44.5592690  21.2290549
  68.6152458  41.8169832  21.5177131  69.7249889  41.9648695  22.1522021
  67.4584103  41.7197084  22.1646571  66.6375351  41.6400814  21.5816212
  67.2470713  41.5224552  23.6114478  66.1884546  41.3820410  23.8298678
  67.9882908  40.2013254  24.0124106  69.0295506  40.3551435  23.7291718
  67.9410744  40.0251675  25.0870490  67.4762106  38.9764476  23.2265902
  66.3918734  38.9407229  23.3316684  67.7519703  38.9379907  22.1727514
  67.9101324  37.7612925  23.9647412  67.6000881  37.7152967  25.0087047
  67.4394369  36.9246268  23.4484649  69.4327784  37.4863124  23.8952446
  70.0030470  37.9472756  24.5897985  70.0068378  36.7067957  23.0015111
  69.3984795  36.0682797  22.0424747  68.4009981  36.1839843  21.9341278
  69.9125099  35.4305267  21.4515853  71.2716246  36.4964557  23.0143070
  71.9079113  36.7796111  23.7457919  71.6755724  35.9314489  22.2810316
  67.7351189  42.6623201  24.5460486  67.7239656  42.4464321  25.7602859
  68.1145382  43.8518190  24.0188599  67.9838133  43.9592743  23.0231357
  68.9751101  44.7956848  24.7314763  69.2625856  44.3706274  25.6931376
  70.2529716  45.0720787  23.9202976  69.9556446  45.4955578  22.9609394
  71.2156248  46.1219072  24.4421244  71.7446995  45.8350420  25.3509116
  71.9201612  46.3099670  23.6319613  70.7202244  47.0505333  24.7255516
  71.0717106  43.8921309  23.8097167  70.5708694  43.1894827  23.3889532
  68.3144093  46.2242603  25.0553036  68.0811834  46.9948673  24.1008782
  68.1363678  46.5481567  26.3336754  68.4860611  45.9355688  27.0565534
  67.7874041  47.8677320  26.7530584  67.5064516  48.5187721  25.9252214
  66.5246916  47.8786182  27.6653647  66.1498499  48.9013720  27.7049971
  65.8144331  47.2481108  27.1304727  66.7092228  47.3707104  29.0659380
  66.4984179  45.9739161  29.2093635  66.2011099  45.3597403  28.3722258
  66.6046715  45.4019833  30.5088830  66.3858938  44.3496227  30.6141138
  66.8859529  46.1599207  31.6351151  66.9476795  45.7243443  32.6214552
  67.1927261  47.5453043  31.4606166  67.5371075  48.1275129  32.3025417
  67.0797777  48.1610918  30.1980114  67.1273613  49.2351389  30.0952315
  69.0174055  48.5840178  27.4360061  70.1837063  48.1459427  27.3021150
  68.9095497  49.6983671  28.0317092  68.0220509  50.1765251  28.0934381
  70.0613117  50.4321671  28.6472178  70.9407711  49.7993708  28.7664819
  70.3432417  51.4502001  27.6338077  70.9947395  50.9172153  26.9412923
  69.4298172  51.8992949  27.2438526  70.9855461  52.2763300  27.9388642
  69.7078562  50.9175539  30.0812912  68.5503387  51.2618828  30.2906656
  70.7252836  51.0971165  30.9968472  71.6940165  50.9634209  30.7443023
  70.5557156  51.6974211  32.2845101  69.5719004  52.1462011  32.4216390
  70.8019161  50.7611656  33.4635735  71.7855644  50.3069544  33.3442807
  70.6903839  51.5316725  34.7938418  69.9196339  52.3009300  34.7459769
  70.4408598  50.8487797  35.6059384  71.6332197  51.9507742  35.1452827
  69.5917511  49.7124672  33.5414386  69.5663834  49.0610743  32.6678562
  69.7454405  49.0788126  34.4149184  68.6685276  50.2620316  33.7251186
  71.4470243  52.8521633  32.3902345  72.6480579  52.5877857  32.2461033
  70.9740210  54.0938330  32.6321292  70.1055574  54.0818071  33.1476164
  71.7772722  55.2355957  32.7753186  72.6319027  55.2302313  32.0987988
  70.9552479  56.5290976  32.3526549  70.4964352  56.8942642  33.2714820
  71.6795969  57.2635651  32.0005536  69.8692560  56.4867306  31.2950516
  69.0371275  55.8386946  31.5702152  69.4205093  57.9491329  31.0953403
  70.1394653  58.6052847  30.6047559  68.5381889  57.9258156  30.4557562
  69.1075039  58.4159088  32.0292807  70.4534626  56.0403109  29.9397302
  70.5255890  54.9594116  29.8190475  69.8075151  56.3030005  29.1019654
  71.4345264  56.4995956  29.8186088  72.3321724  55.2417040  34.1944313
  71.7114305  54.7351980  35.1022530  73.4437084  55.9352541  34.3308902
  73.8899946  56.3474178  33.5240102  74.1002703  56.2276220  35.5898237
  73.7730742  55.4999971  36.3325238  75.5760813  56.0138750  35.3812623
  76.1070776  56.2840891  36.2940192  75.7608032  54.9791527  35.0925779
  75.8845949  56.6922665  34.5858359  73.7889910  57.5909567  36.1811495
  74.3489885  58.6145735  35.6738925  72.7789688  57.6525974  37.1096420
  72.2124767  56.8368959  37.2935343  72.2736406  58.9251471  37.5916123
  72.2017384  59.6064711  36.7438364  70.8784056  58.8266325  38.1800818
  70.8453846  58.2623053  39.1120386  70.5597782  59.8483276  38.3867693
  69.9373245  58.2239962  37.1154046  69.5403814  58.9414740  35.9498525
  69.7815466  59.9878693  35.8345532  68.8396835  58.3592129  34.9401569
  68.4848785  58.9446163  34.1048050  68.5446501  56.9880724  35.0123930
  67.8341341  56.4136744  33.9393663  67.4049711  57.1531296  33.5027504
  68.8946772  56.2786007  36.1884832  68.6274767  55.2363682  36.2820530
  69.6198797  56.8672895  37.2107863  70.0177145  56.2310362  37.9875183
  73.1504631  59.6309137  38.5596728  73.1433153  59.2571402  39.7511315
  73.9324903  60.6200695  38.1394625  73.8498020  60.8825493  37.1676803
  74.6923971  61.5295410  39.0009236  75.3285551  60.7949018  39.4945860
  75.6346941  62.4658680  38.2896900  76.4444780  61.9282722  37.7963877
  75.0617933  62.9522943  37.5002122  76.1707067  63.4842968  39.1251922
  75.4784679  64.1489506  39.0998721  73.6321115  62.2741842  39.9883175
  73.9213800  62.2297716  41.1828852  72.5901890  62.9560137  39.5075703
  72.5241518  62.9422808  38.4998250  71.4867735  63.3745384  40.3924608
  71.8093872  63.0293322  41.3747358  71.4147758  64.9425173  40.5578470
  72.3786449  65.4178333  40.7398605  70.9369993  65.3465319  39.6653199
  70.5094624  65.3282404  41.7479229  69.2731380  65.3318644  41.6132641
  71.1934853  65.6347942  42.8154135  70.6645250  65.5895281  43.6746311
  72.2014618  65.5822372  42.8516722  70.1840258  62.6685953  39.8660970
  69.7923565  62.7713394  38.7196088  69.5205402  62.0080996  40.7604361
  69.8487186  61.9416571  41.7133188  68.2465649  61.2572908  40.5340338
  68.2663631  60.7806492  39.5539713  68.0804634  60.1700783  41.5719891
  68.1895018  60.6280899  42.5550604  66.6804457  59.5066500  41.4592075
  65.9090757  60.2598238  41.6199064  66.5320349  58.9922762  40.5097389
  66.5786886  58.7728548  42.2587633  69.1276550  59.0794277  41.5949965
  68.9246607  58.5124826  42.5035477  69.0170336  58.3653212  40.7789564
  70.1288795  59.4677401  41.4082718  66.9723511  62.2601271  40.4165268
  66.2648153  62.1083975  39.4492626  66.8487310  63.3015347  41.2631845
  67.5210571  63.3730507  42.0134926  65.8458138  64.3569136  41.0995579
  64.8440552  63.9342356  41.0226536  65.8139277  65.3315258  42.2882652
  65.3295422  64.6314716  42.9689932  66.8421793  65.5581236  42.5701427
  64.9782276  66.6987228  42.2969198  65.2632380  67.4027014  43.0787706
  65.3178930  67.3208618  41.4688635  63.4561777  66.5450573  42.4065971
  62.8769064  65.4241943  42.2640133  62.7027559  67.5766706  42.6482821
  61.7070389  67.4443769  42.7538586  63.1163883  68.4885979  42.5163937
  66.0607147  65.2232122  39.8236227  65.0171995  65.6374788  39.1927719
  67.3028374  65.4395533  39.3092799  68.1487656  65.0897551  39.7360611
  67.5368595  66.2284279  38.1115675  66.9059134  67.1159744  38.0638790
  69.0121126  66.6682529  38.1320953  69.1703749  67.1624660  39.0906405
  69.6209764  65.7646847  38.1011796  69.4987059  67.6411533  37.0379710
  70.5810738  67.7698612  37.0420766  69.0977192  67.2695732  36.0949755
  68.9874697  69.0332508  37.0672774  68.8995075  69.7481060  36.0775518
  68.6768293  69.5530510  38.2050705  67.1536303  65.4132414  36.8483543
  66.9750404  66.0114479  35.7845497  67.1686602  64.0376282  36.9683003
  67.3298883  63.7988997  37.9363465  67.1364212  63.0245161  35.8619666
  66.9543695  62.0001173  36.1868858  65.9211016  63.3105469  34.8995924
  65.9818411  64.2586660  34.3652940  66.0811472  62.4683237  34.2264318
  64.5858717  63.2338715  35.6258535  64.6330976  64.0425062  36.3552260
  63.8982201  63.3695316  34.7910905  64.3656969  61.9774914  36.4499354
  65.0984478  62.0331144  37.2549677  63.3285379  61.9037294  36.7769837
  64.6474409  60.7660055  35.7080102  64.5188189  60.7668638  34.7062349
  65.2218819  59.6069574  36.1093736  65.4107285  59.2869282  37.3431373
  65.2698326  60.0139618  38.0299234  65.7527971  58.3592463  37.5492764
  65.6084442  58.7168455  35.2909946  65.4993963  58.8898897  34.3019223
  65.9148836  57.8005266  35.5852032  68.5435009  63.0316448  35.2548361
  68.5808372  62.5786257  34.1254997  69.6372843  63.5662603  35.8898091
  69.6089792  63.6832952  36.8926072  70.9577370  63.7779570  35.2658916
  70.7510996  64.2456150  34.3032384  71.7913818  64.8540783  36.0230160
  71.3351107  65.8314228  35.8657908  71.7779827  64.6172142  37.0868826
  73.2232141  65.1973581  35.5687523  73.5238314  66.1940336  35.8918166
  73.8514185  64.5180035  36.1448884  73.4727097  65.0895929  34.0867352
  72.6762390  65.7757282  33.4070182  74.5137167  64.5165110  33.6721802
  71.7505217  62.4890471  34.9444222  72.1435165  61.8915129  35.9153175
  72.1963882  62.1809435  33.6962247  71.9497919  62.7454519  32.8958368
  72.9718542  61.0042429  33.4518313  73.7951946  60.9001923  34.1585016
  72.0260000  59.7270679  33.4818912  71.5711975  59.5353842  34.4537544
  71.1692333  59.8756838  32.8246498  72.5757265  58.8700771  33.0927062
  73.8656378  61.0282660  32.1893048  73.3756685  60.7617331  31.0512567
  75.1194906  61.3304806  32.2904491  75.4440641  61.7588758  33.1455684
  76.0894680  61.2678051  31.1792183  75.6059217  61.5873384  30.2560782
  77.1887016  62.2696352  31.4775586  76.9184160  63.1977701  31.9811583
  77.8451586  61.8860912  32.2586179  77.9879332  62.4713612  30.1710343
  78.9961815  62.8300333  30.3781271  78.1414986  61.5904045  29.5477819
  77.3114443  63.5077477  29.2087960  76.1643076  63.8306141  29.5212626
  77.9507971  63.9413786  28.1928444  76.4200020  59.8135757  30.7567215
  76.7520142  59.5420122  29.6150279  76.6951609  58.9090347  31.6709232
  76.6275167  59.1456938  32.6504779  77.0844555  57.5463963  31.3432312
  77.1676970  57.4055004  30.2655888  78.4000158  57.2844887  32.1709824
  78.2696772  57.2503996  33.2526255  78.7561131  56.3132715  31.8274331
  79.5426559  58.1598186  31.7663527  79.6879911  59.4714499  32.3528123
  78.8828278  59.7298527  33.0246305  80.7626247  60.3261471  31.9340324
  80.8407593  61.2429428  32.4995303  81.6490650  59.8910713  30.9539747
  82.5830841  60.3878021  30.7365918  81.4173317  58.6913252  30.2903390
  82.1648407  58.4152365  29.5613551  80.4208660  57.7851248  30.6910038
  80.2767467  56.8162918  30.2360296  76.0323286  56.4481974  31.6378164
  74.9870872  56.7621517  32.1391320  76.3347626  55.1651764  31.4130473
  77.1824121  54.9838066  30.8946896  75.5512953  54.0342045  31.8455911
  75.6039143  54.1283035  32.9302478  74.5611477  54.0414143  31.3899016
  76.2079191  52.7528191  31.4255953  77.3566389  52.6989269  30.9143710
  75.4946232  51.6453695  31.7355466  74.6346045  51.7849636  32.2464132
  75.7740641  50.2592134  31.1867642  76.6517878  50.3104115  30.5424976
  76.2076235  49.2833328  32.2924733  75.4992437  49.3487120  33.1183243
  76.4369726  47.8312778  31.8588424  76.4662886  47.6871014  30.7788134
  77.2920895  47.4010658  32.3801708  75.5964231  47.2786617  32.2786045
  77.4311304  49.7744083  32.8068066  77.1368217  50.3362656  33.5274315
  74.5586824  49.5967150  30.5345869  73.4387159  49.7467089  31.0320091
  74.6313143  49.0325928  29.2998695  75.5242634  49.0025139  28.8288760
  73.4676886  48.3751059  28.6057115  72.6801252  49.1286564  28.6028957
  73.8584709  48.0861855  27.1075583  73.0423975  47.5206232  26.6578245
  74.1515779  49.3927670  26.2871122  75.1486635  49.7923708  26.4721370
  74.0632868  49.2270041  25.2134109  73.2610035  49.9774647  26.5175653
  75.0886393  47.4157143  27.0391917  75.2779388  47.3568392  26.0998845
  73.1059885  47.1029949  29.3015242  73.8384962  46.6300583  30.1581645
  71.9315004  46.5236092  28.9809036  71.3778353  46.9308519  28.2408309
  71.3108921  45.4279423  29.6334124  72.1104670  44.9544191  30.2031136
  70.3829813  46.0410833  30.6837225  71.0553026  46.3038731  31.5004396
  69.9062824  46.9111824  30.2322865  69.6776628  45.2943039  31.0483456
  70.5929613  44.4400167  28.7150836  69.6936083  44.8202419  27.9634023
  70.9588575  43.1543398  28.6615944  71.6863203  42.9112434  29.3187141
  70.3143072  42.0611668  27.8234410  69.7450781  42.5985861  27.0649838
  71.4697695  41.2474680  27.1108484  72.1185541  41.9725370  26.6194677
  72.0391464  40.7838726  27.9164457  71.0181522  40.2155447  26.0778975
  70.1628256  39.6620846  26.4654541  70.7264900  40.7577229  25.1784086
  72.1919966  39.2852759  25.6326389  73.3484554  39.6038580  25.8609176
  71.9008970  38.2052827  25.1822734  69.3925476  41.1125183  28.6166096
  69.7878790  40.4754305  29.5863867  68.1214142  41.0071993  28.2919884
  67.7901983  41.6507101  27.5875044  67.1424675  40.1069593  28.8110924
  67.0027781  40.1764154  29.8898697  65.7574797  40.4668617  28.1432581
  65.7168293  40.5475521  27.0570111  64.6856213  39.4625235  28.4830022
  64.9712563  38.5131025  28.0301118  64.5296669  39.3829846  29.5588517
  63.7473726  39.7300768  27.9969931  65.2436924  41.8555546  28.6293888
  64.5032644  41.7116547  29.4162583  66.1195040  42.3550463  29.0435839
  64.6821117  42.6335096  27.4336934  64.3645382  43.6603212  27.6151252
  65.4574633  42.7190447  26.6723704  63.9165115  41.9869757  27.0047998
  67.5360250  38.6581230  28.4411454  67.7792645  38.4164405  27.2736263
  67.6477003  37.7070856  29.4499803  67.4440241  37.9649758  30.4050255
  68.0255556  36.3213468  29.2742229  68.1278276  36.0896206  28.2140613
  69.4887257  36.1951661  29.8512483  70.0540066  35.4005647  29.3642473
  69.9756336  37.1339202  29.5870996  69.6236324  36.0420012  31.4243317
  69.4741440  34.7713065  31.9673085  69.0197563  33.9334393  31.4594579
  69.7927904  34.6458054  33.3451104  69.7349739  33.6499739  33.7590909
  70.1512718  35.6842804  34.1248131  70.2593422  35.5439591  35.4700589
  70.3417540  36.3734055  35.9463215  70.3691483  36.9789410  33.5563970
  70.7188034  37.8210473  34.1351867  70.0575352  37.1457005  32.1766925
  70.0594234  38.1421733  31.7602301  67.0453739  35.2841496  29.8241639
  67.0964241  34.1634178  29.3611646  66.0953045  35.6426311  30.6677556
  66.2330866  36.4755464  31.2221646  64.9336863  34.8375273  31.0080600
  64.6335030  34.2021370  30.1748347  65.2857065  33.8685751  32.2113204
  64.4467974  33.2742620  32.5734305  66.0731602  33.1991768  31.8650150
  65.6645012  34.3405676  33.1178737  63.7188196  35.7304621  31.2148690
  63.8387012  36.9586873  31.1887360  62.5734806  35.1149750  31.4423251
  62.5826502  34.1056538  31.4064288  61.2342072  35.6180787  31.1711574
  61.2430048  36.6604400  31.4897561  60.9343624  35.6740952  29.6550035
  61.6885567  36.2955427  29.1722107  60.9843922  34.6798968  29.2109704
  59.5812607  36.1956882  29.2596531  59.3971062  37.5518775  28.8823915
  60.2019262  38.2696033  28.9418125  58.1441641  37.9403901  28.2946038
  57.9533958  38.9381671  27.9279304  57.1513081  37.0282722  28.1197619
  55.9464693  37.5040174  27.6423049  55.2759123  36.8195176  27.5838470
  57.2868013  35.6941724  28.6471009  56.4810991  34.9755669  28.6179543
  58.5325480  35.2766585  29.1700006  58.6930609  34.2398500  29.4262552
  60.1509619  34.8788285  31.8966126  60.2212906  33.6742496  32.1469617
  59.0671062  35.6542516  32.1283841  59.0368843  36.6294384  31.8672371
  57.7497244  35.1898384  32.5492668  57.4738741  34.2135811  32.1506071
  57.9018450  34.8979735  34.0587521  58.8459396  34.4072294  34.2952919
  58.0004168  35.8477235  34.5844507  56.8124247  33.9511776  34.6141839
  56.9068241  33.8470101  35.6950808  55.8413792  34.4256520  34.4726014
  56.9175339  32.5635695  34.0409565  56.5117407  32.4918771  33.0318499
  57.9686117  32.2966123  33.9311051  56.2836838  31.5804315  34.8731661
  55.2746439  31.6088223  34.9069381  56.7977715  30.6057763  35.5860281
  55.9728241  29.7621632  36.1611676  54.9682283  29.8649716  36.1789989
  56.3690329  28.8735580  36.4322805  58.0842924  30.4199171  35.7417941
  58.7376404  31.1747575  35.5886507  58.2283878  29.5695615  36.2673736
  56.6227436  36.1084723  32.3034739  56.8138218  37.3451686  32.3196101
  55.4374790  35.5562115  32.0880055  55.4601526  34.5476222  32.1363688
  54.1831160  36.1949277  31.6597462  54.1720152  37.2700167  31.8391013
  53.9781141  36.2607670  30.1561546  53.2090664  36.9650531  29.8389077
  54.9198341  36.6204596  29.7415590  53.4741974  34.9689364  29.5359707
  54.1140509  34.1587400  29.8856401  52.4534082  34.8047662  29.8811436
  53.4983778  34.9868321  27.9495215  53.0378103  33.9247894  27.4080968
  54.0324306  35.9356213  27.3551154  52.9232502  35.5460429  32.3532653
  52.9872656  34.3098164  32.5365520  52.0251846  36.3101172  32.9296303
  52.1313810  37.3026347  32.7755570  50.7259035  35.9532714  33.6149788
  50.5743408  34.8788476  33.5113072  50.8114195  36.4093494  35.0868869
  51.5678263  35.8313346  35.6177807  50.9821272  37.4858737  35.0943804
  49.4287109  36.1698675  35.8113408  48.8195324  37.0603299  35.6561613
  48.9902496  35.2682066  35.3837276  49.5284510  35.8964109  37.3868561
  49.9275827  34.7825193  37.8043270  49.1793299  36.8079543  38.1815886
  49.6555042  36.7275691  32.8231740  49.7777653  37.9120064  32.6204276
  48.5747766  35.9854078  32.5183439  48.5358620  35.0187755  32.8085351
  47.4032259  36.3724828  31.7457056  47.2075033  37.4029326  32.0423174
  47.7605915  36.2547326  30.2795148  48.7281322  36.7482972  30.1881194
  47.8972483  35.2388167  29.9089146  46.5682077  36.8554521  29.5034194
  45.6650829  36.2461233  29.5378089  46.3319588  37.8448272  29.8951268
  46.8400526  37.1131301  28.0397511  47.4135828  36.2222481  27.4360013
  46.4536047  38.2345629  27.4925756  46.9132900  38.6901426  26.7171812
  45.9764957  38.9071584  28.0757403  46.1232519  35.6140828  32.0623803
  46.0445166  34.3939877  32.0646667  45.1208925  36.4172411  32.4543333
  45.3530455  37.3974395  32.5279641  43.7106991  35.9911561  32.5999212
  43.4268141  35.1648641  31.9481897  43.5305929  35.4637766  34.0906739
  44.3908215  34.8629761  34.3858814  43.3641624  36.2194490  34.8583746
  42.2803783  34.5396876  34.2287374  42.1615887  33.8086390  35.2252007
  41.5238714  34.3457294  33.2071280  42.8030396  37.0905399  32.1860528
  43.2350302  38.0753136  31.6347265  41.4746475  36.8980575  32.2389197
  41.1299086  36.0216069  32.6037407  40.5292845  37.9392195  31.8744755
  40.8021545  38.1982946  30.8514810  39.1488147  37.3199606  32.0361018
  39.0672684  36.4056468  31.4483261  39.0219331  36.9165730  33.0407310
  37.9325533  38.2728815  31.8917179  37.3794460  38.9039183  33.0616117
  37.8310657  38.7526798  34.0309238  36.2200284  39.6848750  32.9806662
  35.9235740  40.2016640  33.8814712  35.5721521  39.8573184  31.7386031
  34.6888947  40.4751778  31.6714358  36.0195708  39.1204190  30.6521916
  35.5648208  39.2396069  29.6798754  37.2121310  38.3760190  30.6901169
  37.5525546  37.8481841  29.8115373  40.6863642  39.2221451  32.7117181
  40.7560587  39.2321181  33.9116073  40.8182812  40.3630638  32.0144987
  40.6061602  40.3181553  31.0280442  41.1528969  41.7299461  32.4342394
  40.7974672  42.4119425  31.6618085  40.5513573  41.8622589  33.3335471
  42.5907707  42.0020628  32.8813648  42.8071404  43.1620932  33.2088542
  43.6052990  41.1432076  32.7119803  43.4213066  40.2506876  32.2764802
  44.9547100  41.3513613  33.2846236  45.1243162  42.4272251  33.3276200
  44.8793983  40.8649158  34.7924399  44.1132975  41.4540958  35.2964830
  44.6144676  39.3232417  35.0125575  44.5338440  39.1990280  36.0924506
  43.6022806  39.1442847  34.6498537  45.3421688  38.6799264  34.5178890
  46.2280416  41.0775232  35.5422759  46.1923981  40.7927799  36.5938210
  47.0215082  40.5165148  35.0485325  46.7366028  42.5309658  35.4772019
  47.6207829  42.6572943  36.1020041  47.1455050  42.7724552  34.4960856
  46.0361385  43.2470465  35.9069467  46.0557508  40.6595898  32.4695826
  45.8442116  39.5164704  32.1199274  47.2060251  41.3130093  32.2678518
  47.1715784  42.2553396  32.6296973  48.4385300  40.6974983  31.7562795
  48.4448290  39.6215439  31.9306040  48.4744024  40.9049368  30.2074766
  47.6373148  40.2751303  29.9062705  48.1505919  41.9212914  29.9832606
  49.7164440  40.4851437  29.2739391  50.4086208  41.2938356  29.5084810
  50.0911903  39.5154810  29.6016932  49.3597364  40.4524231  27.8102469
  49.5909691  39.4882178  27.0595717  48.8538647  41.5456295  27.4642444
  49.7189665  41.2611198  32.3934555  49.7532082  42.4527597  32.6173735
  50.6751871  40.4341364  32.8966975  50.6101894  39.4719744  32.5964999
  51.7861319  40.9160328  33.7514377  51.9277906  41.9572878  33.4619188
  51.5424013  40.7259369  35.2926779  51.6895199  39.6483994  35.3659296
  52.6150417  41.3827419  36.1337233  52.6722956  42.4545479  35.9438467
  52.2636986  41.3903141  37.1655178  53.6097670  40.9375429  36.1130977
  50.1584578  41.0848951  35.7763720  50.0661182  42.1696758  35.7231975
  49.4232798  40.7697630  35.0358939  49.6803188  40.4251766  37.0389748
  48.6207628  40.2050257  37.1692920  50.1131296  39.4531441  37.2754788
  50.0486946  40.9967709  37.8908396  53.0658913  40.1104879  33.4236026
  52.9302025  38.9168620  33.1259251  54.2595339  40.7080460  33.3272409
  54.2608833  41.6799259  33.6021042  55.4357910  40.2500582  32.6910210
  55.2721691  39.1761494  32.6013303  55.5964375  40.7765865  31.2409544
  55.3743601  41.8409300  31.3181472  56.9858265  40.5937576  30.6159759
  57.6512527  41.3498592  31.0326505  57.2993803  39.5536447  30.7051611
  56.9647408  40.8542919  29.5577812  54.4818687  40.1612377  30.4318976
  54.4320107  40.6441307  29.4559717  54.7258902  39.1087008  30.2879643
  53.4932375  40.2303123  30.8857036  56.6217661  40.5383015  33.6246681
  56.6232300  41.5437794  34.3688035  57.6162243  39.5347404  33.6459708
  57.4526644  38.6812663  33.1312585  58.7422752  39.5634604  34.5728469
  58.8806438  40.5870724  34.9209476  58.2881975  38.7331295  35.8166242
  58.2308483  37.6818585  35.5344152  59.1266775  38.7920642  36.5105820
  57.0476627  39.1270280  36.6363049  57.3343611  39.8882794  37.3618412
  56.3577795  39.6162224  35.9486604  56.2899065  38.0674386  37.3934579
  56.1927462  37.2232032  36.7108703  56.7892265  37.7165270  38.2965922
  54.9032211  38.5945940  37.7293062  55.0213957  39.4899607  38.3395958
  54.3073988  38.7256241  36.8260169  54.3313932  37.5838852  38.6805725
  54.5964098  36.6450286  38.4189987  54.5660973  37.6845431  39.6577525
  53.3214092  37.5843620  38.6742377  60.0686121  38.9439893  33.9963436
  60.0330162  37.8444767  33.4418917  61.1714935  39.7142768  34.0149617
  61.1068344  40.6241655  34.4485879  62.4525547  39.3278885  33.3700061
  62.3183775  38.2727671  33.1316447  62.6587725  40.0733757  32.0218253
  63.5691214  39.7807121  31.4986420  61.5554047  39.9116516  31.0440469
  60.5786514  40.2720118  31.3668466  61.8212366  40.3090048  30.0644827
  61.5423250  38.8299370  30.9105515  62.7236176  41.5957880  32.2500825
  63.5139656  41.6863537  32.9952359  62.8855801  42.1823788  31.3457680
  61.8885469  42.0255995  32.8032708  63.7366199  39.3910861  34.1745901
  63.8368177  40.0486851  35.1940799  64.6701097  38.5553479  33.7273812
  64.3912315  37.9918742  32.9369235  66.0348082  38.6248446  34.2665315
  66.1038494  39.3143106  35.1079416  66.6322088  37.3085618  34.6589351
  66.4020872  36.5459538  33.9149094  67.7158880  37.4182153  34.6174288
  66.2301922  36.7684555  35.9943295  66.6497374  37.3448491  36.8188667
  65.1466131  36.6629601  35.9412265  66.7171383  35.3706050  36.2890077
  66.2768030  34.6972942  35.5535769  67.8020573  35.2661490  36.2772846
  66.4338398  34.8871899  37.6775813  66.8321085  35.6261230  38.3728957
  65.3561115  34.8170805  37.8248262  67.0495605  33.5159802  37.8729844
  66.7532015  32.8714156  37.1540928  68.0525208  33.4569693  37.7695584
  66.7664003  33.2263708  38.7982130  66.7741394  39.2249179  33.0821824
  66.8344498  38.4828115  32.0838571  67.3783970  40.3874207  33.3357859
  67.1134281  40.8142662  34.2119694  68.2996225  41.0315990  32.4315500
  68.3391428  40.5077887  31.4764714  67.8129482  42.4599695  32.2243094
  67.7607393  43.0308437  33.1513906  68.4939766  42.9454565  31.5252972
  66.8609810  42.2998142  31.7181420  69.7668552  40.9391546  32.9771328
  70.0046110  40.3671360  34.0611792  70.7471323  41.3042593  32.1433640
  70.4489899  41.7444324  31.2846112  72.0968294  41.3067818  32.6234841
  72.0288181  41.7291880  33.6260033  72.6699543  39.9066305  32.5897551
  72.0822144  39.1468644  33.1049442  72.8600264  39.4554400  31.1407304
  73.1518984  38.4052491  31.1376047  71.9130802  39.5813322  30.6158113
  73.6876345  40.0130320  30.7022524  73.9893818  39.7746539  33.3871365
  74.7130251  40.5189896  33.0548620  73.8374281  39.9677491  34.4490814
  74.6634626  38.4151578  33.2688260  74.9418831  38.0725455  32.2722340
  75.5974674  38.4468818  33.8298321  74.0105629  37.6849675  33.7469935
  73.0038691  42.3217297  31.9294453  72.8887653  42.5328350  30.7477450
  73.7249422  43.0493879  32.7593422  73.8874817  42.7039671  33.6944151
  74.5559645  44.1897964  32.3148227  73.9829254  44.9151993  31.7373085
  75.0592375  44.7889185  33.0736828  75.7378674  43.7154818  31.5174294
  76.4461899  42.7975035  31.9764113  75.9826422  44.4080305  30.3735518
  75.4072571  45.2367496  30.3259873  76.9022274  44.1233397  29.2839670
  77.3660803  43.1821442  29.5790935  76.0619545  43.9020681  28.0027699
  75.3080511  44.6841860  28.0923176  76.5807962  44.0490913  27.0555139
  75.3719902  42.4865437  27.9488754  74.7152233  42.3254919  28.8037562
  74.7993279  42.4773884  27.0214748  76.4102936  41.3159704  27.8772378
  77.2213411  41.4167213  27.1560240  76.8685675  41.3123131  28.8662124
  75.6459951  40.0758457  27.6936889  75.0191307  40.0993156  26.9021082
  75.6337261  38.9723849  28.4307647  76.3171005  38.8878250  29.5559788
  76.7919159  39.7413135  29.8132992  76.2777138  38.0192733  30.0699472
  74.9918413  37.9467964  27.9626846  74.2133236  38.0679369  27.3307514
  74.8837471  37.1453571  28.5677528  78.0142069  45.2149391  29.2331743
  79.1514874  45.0481224  29.6755767  77.7786398  46.3547421  28.6266279
  76.8213320  46.4875364  28.3333206  78.7848139  47.2613668  28.1011868
  79.7491693  46.9910574  28.5313654  78.8417196  47.1832275  26.5289593
  77.9046297  47.6170874  26.1800671  79.7329044  47.7320480  26.2245154
  79.0450859  45.8342743  25.8026242  80.0848961  45.5428696  25.9508610
  78.3271599  45.0835323  26.1328816  78.9480829  45.9207630  24.2637014
  77.9402113  45.4135799  23.7886906  79.9042082  46.5055656  23.5660028
  79.7371864  46.4755964  22.5703573  80.7284546  46.8505239  24.0368795
  78.5480595  48.7166929  28.5964060  77.3725653  49.1130733  28.7409592
  79.6456003  49.4023943  28.8313723  80.5229187  49.0252972  28.5024071
  79.6997738  50.8008385  29.1970086  79.0003777  51.0369873  29.9989939
  81.0905170  51.3090801  29.5879436  81.7256069  51.1521053  28.7160921
  81.0962677  52.3749971  29.8157406  81.6510487  50.5282640  30.7627225
  81.4237404  50.9652567  31.7350769  81.1312675  49.5709610  30.8015347
  83.2018280  50.3217745  30.5055976  83.5862541  49.7211838  31.3299823
  83.3708191  49.7833586  29.5730472  83.8275051  51.6094208  30.6304908
  83.7349129  52.1202230  31.4968657  84.6247292  52.1490717  29.7484970
  85.2010345  51.4725161  28.8019633  85.1643944  50.4714823  28.6727881
  85.9203434  51.9519043  28.2795858  84.9393368  53.3902788  29.7353482
  84.4644070  54.0830946  30.2961922  85.7015419  53.6281109  29.1168237
  79.1441679  51.5916157  28.0243945  79.4308758  51.2796688  26.8809342
  78.4722281  52.6948690  28.2786274  78.2152891  52.9069090  29.2321062
  78.1197405  53.7408781  27.3044348  78.8905716  53.6907101  26.5354061
  76.7262602  53.3647013  26.7262578  76.5050364  53.9519930  25.8350515
  76.7851114  52.3144531  26.4405704  75.5992889  53.5295010  27.7690578
  75.1557732  54.7862816  28.1324339  75.7156658  55.6711626  27.8680301
  73.9529610  54.9000883  28.8485050  73.5399294  55.8413649  29.1798687
  73.3129787  53.6926460  29.3038130  72.3858356  53.7567043  29.8540068
  73.7591743  52.4478388  28.9670134  73.2151747  51.5742350  29.2945576
  74.9176121  52.3687172  28.2259798  75.2784824  51.3669109  28.0455232
  78.0886221  55.2006483  27.7463436  77.9092836  55.4146957  28.9835691
  78.2432461  56.1391211  26.8317246  78.3319235  55.8207226  25.8773351
  78.0968142  57.5935555  27.1765232  77.7172375  57.6231098  28.1978703
  79.3650293  58.2831764  26.8784499  80.2292156  57.8149891  27.3496985
  79.4801283  58.2417679  25.7953358  79.3158770  59.7532845  27.3558044
  78.3830833  60.2349281  27.0625257  79.2914152  59.6941900  28.4439254
  80.4781818  60.6357813  26.9741154  81.4222622  60.1473904  27.2155356
  80.3544426  60.8396482  25.9105253  80.5731297  61.8734121  27.8123331
  79.6370983  62.3761082  28.0557227  81.0659313  61.6802979  28.7651992
  81.4651585  62.8872776  27.1610045  81.7181110  63.6051989  27.8248572
  82.2952461  62.4486208  26.7886710  80.9952164  63.2923651  26.3640332
  76.9096947  58.0959797  26.3018441  76.7705965  57.8358603  25.1642942
  75.8673191  58.7080812  26.9521594  75.9202385  58.6095810  27.9559541
  74.6926641  59.3300581  26.3698101  74.2065430  58.4949493  25.8654451
  73.6939001  59.8951817  27.4382734  74.2629433  60.5540657  28.0941439
  72.4352074  60.6109619  26.8592453  71.6425228  60.6324959  27.6071000
  72.6157379  61.6440153  26.5620685  72.0506525  60.0197268  26.0281849
  73.0463552  58.7098551  28.2544780  73.8559580  58.2239723  28.7990546
  72.2380161  59.0961504  28.8753390  72.6277208  57.9316330  27.6163459
  75.1614523  60.4068327  25.3099179  76.0578823  61.2270594  25.6392598
  74.4210768  60.4728699  24.1821694  73.7113094  59.7816753  23.9857721
  74.6826839  61.5019798  23.1450033  75.3823853  62.2485733  23.5206556
  75.2355194  60.9026289  21.7832661  74.5481539  60.0718117  21.6239738
  75.0399208  61.6526890  21.0169411  76.6893578  60.3391027  21.7413044
  76.9008160  59.5432854  22.4554896  76.8075705  59.8097658  20.3648663
  77.7701283  59.2985487  20.3496289  75.9744835  59.1267490  20.1988554
  76.7628288  60.5617237  19.5770454  77.7629948  61.4676428  21.8943191
  77.9090548  61.7236948  22.9437065  78.7210226  61.1372280  21.4929271
  77.5539494  62.3396063  21.2745762  73.3883953  62.1451044  22.8571558
  73.4194374  63.3257914  22.4383759  72.2102213  61.5483236  23.0038071
  72.1282673  60.5652332  23.2204151  70.8888865  62.1933270  22.8881502
  70.8495903  63.0734873  23.5299230  70.5926561  62.4299812  21.4341092
  71.4726830  62.8524923  20.9492016  70.2008772  61.5231371  20.9734154
  69.3742466  63.2652140  21.2433982  68.6573458  62.9112053  21.9842291
  69.6683168  64.2924070  21.4590192  68.6571693  63.1811333  19.8555553
  69.3053675  62.8201485  18.8134944  67.4007082  63.3330297  19.9196708
  69.7536993  61.3213873  23.5547042  69.7836018  60.1029873  23.5340238
  68.8273382  61.9756413  24.2671227  68.7684107  62.9791880  24.1695404
  67.6407766  61.3404703  24.8189330  67.8938293  60.2912760  24.9714375
  67.3623419  61.9689322  26.1748338  67.2781944  63.0539131  26.1129522
  66.3598108  61.6594219  26.4702058  68.3809090  61.6358805  27.2727585
  69.3940830  61.8418074  26.9275451  68.0049753  62.5011301  28.5220718
  67.8426361  63.5393667  28.2325792  67.0949793  62.2175646  29.0508533
  68.8467073  62.4671030  29.2137575  68.4329605  60.1889563  27.6758194
  67.4491739  59.9362040  28.0712581  68.7278795  59.6002722  26.8071532
  69.2226934  60.0242281  28.4088182  66.4292288  61.5189743  23.9062786
  66.1981487  62.6500559  23.5376549  65.7660818  60.4838133  23.5093355
  66.1137533  59.6540260  23.9683270  64.6050692  60.3241682  22.5735378
  64.3529272  61.3622093  22.3567581  65.0787497  59.5492458  21.2489390
  65.3475428  58.5260153  21.5113425  64.2441368  59.5074320  20.5490947
  66.2356424  60.2168512  20.4406023  65.8847332  61.2395859  20.3028679
  67.1422911  60.2623272  21.0439396  66.5191841  59.5128107  19.1226912
  67.0925665  58.6047363  19.3090749  65.6085300  59.1517019  18.6447573
  67.3212290  60.4558182  18.2698536  67.4990225  61.3151360  18.7699151
  67.7355146  60.3127384  17.0344388  68.6532259  61.1855125  16.5711093
  68.9481926  61.8671179  17.2555864  68.6658812  61.2245417  15.5619442
  67.3580170  59.3511009  16.2307179  66.5873051  58.7571478  16.5014994
  67.9783726  59.2085075  15.4465449  63.3597088  59.6019745  23.2203221
  63.4924221  59.0324926  24.2949009  62.2729111  59.5631361  22.4921012
  62.2683573  60.1547337  21.6735053  60.9894419  58.8486004  22.8988910
  61.3883829  58.1697798  23.6526418  60.0363016  59.7309589  23.7072062
  59.6403503  60.4718876  23.0126953  58.8307381  58.9908791  24.3892956
  59.1432953  58.2539940  25.1291656  58.1827593  59.7074032  24.8940897
  58.2515430  58.4466600  23.6433339  60.7053089  60.5685568  24.6364498
  61.1759806  61.2482691  24.1485357  60.2901459  58.0227280  21.7981148
  59.9356985  58.5506868  20.7614613  60.1308632  56.6791201  21.9512296
  60.4214764  56.2167597  22.8008604  59.5738745  55.7610655  20.9659815
  60.3190470  55.8537149  20.1758981  59.5648432  54.3644619  21.5127397
  60.6110764  54.0622330  21.5591526  59.0603971  54.3053150  22.4771762
  58.8788939  53.3046865  20.6198430  57.9249144  53.7333155  20.3127623
  59.4543648  53.0948400  19.7182345  58.4972286  52.0520687  21.3341093
  59.0794420  51.6839504  22.3460984  57.4329472  51.2912941  20.9410954
  57.3196411  50.4233456  21.4450073  56.9846535  51.3639021  20.0389504
  58.1401587  56.1673450  20.3255606  58.0764103  56.0684919  19.1187680
  57.2239542  56.7821884  21.1479139  57.4243212  56.7135525  22.1354604
  55.9278250  57.3969793  20.8619165  55.8170128  58.2355738  21.5493631
  55.7588291  57.9953432  19.4432318  56.6206598  58.6192989  19.2065227
  55.7360172  57.1610880  18.7420857  54.5101738  58.8557816  19.4739079
  54.2459536  59.0567970  18.5731387  54.8076391  56.3683176  21.0635614
  54.8758125  55.2711391  20.4945946  53.6899662  56.6339016  21.6964197
  52.9584360  55.9458876  21.5886903  53.4330559  57.7307320  22.6602221
  53.5972977  58.6862040  22.1620178  52.0043755  57.6945686  23.2074642
  51.9782972  56.7703772  23.7847805  51.6805077  58.4290314  23.9448738
  50.8055735  57.5063133  22.1699667  49.6729994  57.1571875  22.5848722
  50.9196663  57.9050016  21.0052848  54.4556999  57.8311682  23.7864685
  55.0212908  58.9153814  23.8720798  54.7085190  56.8088818  24.5657468
  54.3302202  55.8928585  24.3710685  55.6587267  56.8379498  25.5479240
  56.0086489  57.8536081  25.7325625  55.1670504  56.3661003  26.3986397
  56.9107246  55.9843493  25.2041960  57.1392727  55.6245852  24.0695882
  57.7589750  55.8149385  26.2528157  57.5611162  56.3640594  27.0770836
  58.9658546  54.9503136  26.3323879  59.0915728  54.7951651  27.4039412
  58.8901281  53.5960245  25.6171489  58.6351442  53.6825085  24.5609260
  60.3268433  52.9240036  25.5907845  60.7842779  52.9272795  26.5801501
  60.3102255  51.8676710  25.3224707  60.9878588  53.3450317  24.8332286
  57.8035259  52.7618170  26.2947464  57.9153681  52.8699493  27.3735881
  56.9205618  53.3732414  26.1086321  57.6088095  51.3496637  25.9304905
  56.8234921  50.9667683  26.5822339  57.3374891  51.2273216  24.8819089
  58.5047007  50.8158302  26.2475204  60.2105331  55.7089520  25.9072256
  60.4980707  55.9743071  24.7290492  60.9477186  56.1562204  26.9070482
  60.7078600  55.8039665  27.8227425  62.2428226  56.7734957  26.8069601
  62.1545744  57.7223301  26.2777877  62.7884579  57.2421598  28.1664205
  62.0392704  57.8265619  28.7005424  63.1744385  56.3999319  28.7406707
  64.0119410  58.1520557  28.0348444  64.8774099  57.5163364  27.8479552
  63.9529610  58.7235022  27.1085215  64.3976068  59.1298342  29.1233706
  64.4626093  58.8711357  30.2914238  64.6144199  60.3908205  28.8140869
  64.9890327  60.9629202  29.5573759  64.6189642  60.7291174  27.8624392
  63.2649565  55.8529234  26.0714173  63.3202362  54.6388292  26.4031148
  64.0132046  56.3995075  25.0660825  63.8256264  57.3862553  24.9600196
  65.1912737  55.7950592  24.5241880  65.4005241  54.7965050  24.9078584
  64.8802614  55.5420113  23.0603361  64.8448372  56.4612103  22.4755955
  65.7278442  55.0151587  22.6220131  63.5503006  54.7705317  22.7248049
  63.3743572  53.9669704  23.4399533  62.7688980  55.5303240  22.7098274
  63.6144400  54.0923691  21.3530493  63.8533640  54.7451830  20.3673744
  63.5544252  52.7917767  21.2162280  63.9488125  52.4462938  20.3529763
  63.1941557  52.2130919  21.9615006  66.4209938  56.6914701  24.6695614
  66.3710499  57.8944826  24.9707603  67.5495338  56.1475372  24.5629954
  67.5553513  55.1381063  24.5964551  68.8683939  56.8211842  24.5042825
  68.7169456  57.8958559  24.4031024  69.5808220  56.5970325  25.7855201
  69.0844250  57.1427965  26.5879154  69.6887827  55.5470085  26.0573530
  70.6065941  56.9568729  25.8655334  69.6812582  56.4435482  23.2794714
  69.9260092  55.2254200  23.0982518  70.0551224  57.5100327  22.5033021
  69.7070312  58.4251738  22.7512050  71.2131929  57.4059534  21.5886569
  71.2595844  56.4677477  21.0357404  71.2076378  58.5685158  20.5870843
  70.2813721  58.5941172  20.0130844  71.5010214  59.5134735  21.0443377
  72.3150253  58.2290363  19.5664954  73.2427931  58.0571651  20.1122165
  72.2186756  57.2544432  19.0879631  72.6422262  59.4748735  18.6904848
  72.8269148  60.3114414  19.3643892  73.5860014  59.3340969  18.1636381
  71.4944792  59.8790169  17.7645242  71.1951017  59.0100193  17.1785986
  70.6535292  60.1541042  18.4011018  72.0210505  60.8980846  16.8455923
  72.8833437  60.5968285  16.4145494  71.3441133  61.1747313  16.1489379
  72.3348856  61.7324543  17.3203921  72.4318600  57.3811150  22.5514770
  72.6182508  58.3045816  23.3802176  73.3287144  56.3833618  22.4007225
  73.1828928  55.8742142  21.5407205  74.4891405  56.0524321  23.2028699
  74.7970581  56.9717646  23.7009788  74.1420746  54.8816633  24.0924025
  75.0239325  54.6330881  24.6828556  73.1270409  55.3203440  25.1531887
  72.1668625  55.4997730  24.6694899  73.0935240  54.5300722  25.9031510
  73.4604168  56.2365007  25.6406546  73.7461042  53.6342955  23.3994913
  74.5246220  53.2621050  22.7335477  73.5117817  52.8856468  24.1562748
  72.8252125  53.7668180  22.8316021  75.7029009  55.6534433  22.3354793
  75.5504370  55.0077057  21.2795448  76.8771315  55.7718420  22.8950524
  76.8464851  56.2648630  23.7760162  78.1568861  55.5088234  22.3176122
  78.0449677  55.0794315  21.3220239  78.9098787  56.7821693  22.1188307
  78.3806610  57.4671412  21.4563727  79.0780592  57.3536587  23.0316353
  80.3040028  56.4359331  21.5435839  81.1115360  56.3554144  22.2712541
  80.2565575  55.4380941  21.1074996  80.8027267  57.5325775  20.6230426
  80.6635475  58.7346268  20.7887316  81.3500690  57.1646881  19.4861090
  81.5773964  57.8884220  18.8192928  81.5073204  56.2020540  19.2239904
  78.9085007  54.4216776  23.2581115  79.2858839  54.6488190  24.3994045
  79.1261292  53.2116127  22.6409125  78.9213276  53.1353855  21.6548371
  79.8302031  52.0858812  23.2174730  79.4069290  51.8661356  24.1976023
  79.6948576  50.8760786  22.2396445  80.0453377  51.2446499  21.2755799
  80.5028820  49.6592188  22.6809835  81.5592861  49.9172497  22.7553368
  80.0522804  49.2597008  23.5895276  80.4725552  48.9551401  21.8494463
  78.2558918  50.3643608  21.9282603  77.6965952  51.2975264  21.8612313
  78.2906485  49.8988914  20.9432578  77.5569105  49.4891119  22.9179883
  76.6291046  49.1251421  22.4766421  78.0608320  48.5274029  23.0143023
  77.4508619  49.9478722  23.9010429  81.3172245  52.3534775  23.5282755
  82.0904922  52.7032804  22.6185250  81.7020988  52.1264648  24.7828269
  80.9937954  51.7371225  25.3884888  83.0562878  52.3231506  25.3585672
  83.8148689  52.7667475  24.7136831  82.9029942  53.2450247  26.6322994
  82.4938583  52.6780128  27.4684882  83.8838673  53.6303139  26.9107747
  82.0926285  54.5772886  26.4788198  81.0434818  54.2829323  26.4512587
  82.4401188  55.4868031  27.6704144  83.4783649  55.6840229  27.9373717
  82.0321083  56.4975452  27.6652861  82.0160294  54.9958467  28.5463166
  82.5763321  55.4168653  25.2147889  81.9406700  56.2973881  25.1214576
  83.5879993  55.7940769  25.3642917  82.4197674  54.8015547  24.3287969
  83.6723900  50.9090567  25.6729627  82.8684139  50.0013590  25.9164953
  85.0335503  50.7538366  25.5849719  86.0170841  51.8061447  25.1163864
  86.1872387  52.5864172  25.8582306  85.6413841  52.1669102  24.1588902
  87.3691082  51.1135101  24.7765088  88.2865715  51.6813278  24.9312377
  87.3195934  50.8061314  23.7319183  87.2171688  49.9048901  25.7018018
  87.3306274  50.2740145  26.7211008  87.9602432  49.1195059  25.5635309
  85.7640457  49.4465160  25.5587673  85.7435417  48.9576674  24.5847487
  85.3323174  48.4663391  26.6564155  85.0993824  48.8735962  27.8118539
  85.1258087  47.2912169  26.3083363  99.2311192  40.0196505  39.4920492
 100.0085354  39.7534609  40.0793076  99.3788719  39.6343637  38.5701895
  98.4648991  39.5345640  39.9366784  99.0462971  41.4813948  39.6800470
 100.0131321  41.8494987  39.3367815  97.9108429  42.0871639  38.7695909
  98.1894016  41.8816233  37.7360249  97.0280743  41.4706421  38.9390469
  97.5465965  43.5494709  38.9808655  96.9766998  43.8434410  38.0994463
  96.9044018  43.7780619  39.8314166  98.8447380  44.4145441  39.0594506
  99.6853161  44.3641663  38.1498790  99.0905666  45.2239227  39.9780941
  98.9773464  41.8887854  41.1699009  97.9676247  41.6222906  41.7897654
 100.0294304  42.5079203  41.7445135 100.8346462  42.8485060  41.2387991
  99.9989796  42.9068184  43.1667805 100.0881100  41.9496679  43.6806202
 101.2577629  43.6771250  43.6337709 101.0560989  44.0981865  44.6187305
 102.4923325  42.7226591  43.7657833 102.3353577  41.8352604  44.3789625
 102.9396439  42.6140738  42.7777433 103.2754707  43.2853746  44.2738628
 101.5056515  44.6992493  42.7425766 100.8173275  45.3463459  42.9130840
  98.7437820  43.6054659  43.6216545  98.3368874  43.3174133  44.7318125
  98.1578350  44.5172215  42.8109121  98.5795021  44.6648979  41.9051027
  97.0901585  45.3629303  43.2940626  97.3671341  45.8635521  44.2218351
  96.8794823  46.4577866  42.2233486  97.8455353  46.8533802  41.9097471
  96.5370274  46.0143566  41.2883663  95.8790112  47.5568628  42.5629187
  94.9874592  47.0850134  42.9759407  96.3434315  48.3942080  43.6967897
  96.9466209  49.2246485  43.3298826  95.5285645  48.8837767  44.2300987
  96.9930267  47.9604864  44.4570589  95.4884624  48.2763338  41.3403606
  94.9569511  47.6267242  40.6449461  94.8023987  49.0509272  41.6830444
  96.3316059  48.7197876  40.8106852  95.8142090  44.5165586  43.6481667
  95.2176857  44.6712399  44.6317196  95.5525208  43.5247946  42.7623510
  96.1941814  43.2561731  42.0300913  94.4931889  42.5544500  42.9839277
  93.5578251  43.0905962  43.1443596  94.4139671  41.6777325  41.7636013
  95.3432178  41.1193800  41.6502523  93.6983395  40.8584690  41.8327999
  94.0107059  42.4999762  40.5257893  92.9885674  42.8633022  40.6322050
  94.6522331  43.3802557  40.4852629  94.2784214  41.6893911  38.9352965
  93.1372643  40.2648354  39.0846491  93.1568909  39.9543333  40.1293039
  92.1300316  40.4710817  38.7226439  93.5233212  39.4557905  38.4645557
  94.7274876  41.6186666  44.1692209  93.8143444  41.2968349  44.9064779
  95.9555149  41.1557055  44.4308376  96.7442322  41.4553118  43.8756275
  96.2455082  40.3266144  45.6059694  95.6043720  39.4530749  45.7241678
  97.7237701  39.9438095  45.7050562  98.4153175  40.7863426  45.7051420
  97.9011917  39.4535851  46.6622925  98.1512070  38.9744496  44.6371174
  99.3985939  38.8467598  44.4002247  97.3330212  38.1588674  44.1714001
  96.0061836  41.1115170  46.9203043  95.3987026  40.4834795  47.7830458
  96.3952446  42.4151659  46.9890022  96.9683647  42.7265692  46.2178612
  96.0811234  43.2658339  48.1255436  96.4587784  42.7887487  49.0299082
  96.7876244  44.6302700  48.1227636  97.7207184  44.5412636  47.5664282
  96.1605930  45.3767586  47.6352262  97.0971584  45.0870371  49.5950890
  96.1619091  45.2184105  50.1392889  97.6752377  44.2927599  50.0673676
  97.8756809  46.3496256  49.7405386  97.2324371  47.1745777  49.4342852
  98.0796719  46.5527296  50.7918406  99.1725159  46.3856125  49.0485477
  99.3541241  45.7550430  48.2807589 100.1519489  47.2192240  49.1847277
 100.0486469  48.3471584  49.8431158  99.1925621  48.5528469  50.3380060
 100.7936001  49.0258312  49.7757196 101.3131905  47.1018314  48.6209965
 101.5460587  46.2128496  48.2019711 102.0425701  47.7857733  48.7635374
  94.5928860  43.3420086  48.3848715  94.1808701  43.2468557  49.5275307
  93.7219238  43.3873701  47.3739433  94.1091156  43.3427286  46.4421749
  92.2239876  43.3423519  47.5015402  91.9934654  44.1032410  48.2472038
  91.5545559  43.6207914  46.1731100  91.8772411  42.8336287  45.4916763
  90.0208759  43.5940933  46.1824608  89.6744728  44.2111397  47.0115376
  89.6529484  44.0527582  45.2646637  89.6193504  42.5812340  46.1509848
  91.9957066  45.0178099  45.6566238  91.6562080  45.7909298  46.3459206
  93.0815220  45.0685453  45.5758429  91.4480877  45.4405737  44.2538548
  91.3984299  44.6474361  43.5078239  90.4332924  45.8379602  44.2729235
  92.1018696  46.2263155  43.8753271  91.7148590  42.0108175  47.9793406
  90.9333038  41.9966936  48.9641428  92.2030163  40.8954239  47.4422932
  92.7298069  41.0627079  46.5969515  92.0826149  39.5138526  47.9368162
  91.0541344  39.1561961  47.9859352  92.8626060  38.5614109  46.9895601
  93.8600731  38.9719796  46.8327332  92.9912376  37.5655246  47.4135494
  92.2077656  38.2548475  45.6595278  91.3797855  37.5590873  45.7954550
  91.7607594  39.1506791  45.2284956  93.2171154  37.7750993  44.5969820
  93.9948750  38.5254407  44.4549084  93.7281990  36.8821931  44.9570036
  92.5868607  37.3559713  43.2934952  91.7557049  36.6851687  43.5110092
  92.1401882  38.2543159  42.8673935  93.4649277  36.7093492  42.2410059
  94.3525505  37.1895647  42.2006798  93.6449242  35.7734537  42.5753689
  93.0630684  36.6526937  41.3161278  92.5174427  39.4140577  49.3911791
  91.8658352  38.7160921  50.0980663  93.5507393  40.1606178  49.8670721
  94.0586662  40.7974100  49.2699051  93.9682198  40.1390600  51.2955427
  93.8905716  39.1165686  51.6651201  95.5102921  40.4207754  51.3599110
  96.0402107  39.6235800  50.8385992  95.7441998  41.3462496  50.8337116
  96.1667442  40.4134989  52.7378941  95.7184410  41.2970304  53.1923151
  95.8707237  39.5052791  53.2628775  97.6781368  40.5806971  52.8905582
  98.1271935  40.3859043  51.9166422  97.9422379  41.5857601  53.2195187
  98.2290649  39.5023155  53.8327742  99.1836834  39.8267770  54.2469406
  97.5564766  39.3600917  54.6786451  98.4347248  38.1992030  53.1758308
  99.3161869  38.0804467  52.6972532  98.4311962  37.4257827  53.8253736
  97.6854420  38.0905962  52.5073385  92.9874802  40.9816933  52.1909618
  92.4925232  40.4043913  53.1638527  92.7808666  42.2703743  51.9422960
  93.3715057  42.6540613  51.2183905  91.8796158  43.1409979  52.5946236
  92.2171211  43.3404779  53.6116743  91.7535210  44.4052982  51.8121576
  91.9995499  44.2650223  50.7595921  90.7143211  44.7337723  51.7956638
  92.4138927  45.6213999  52.4798012  93.4030437  45.2962828  52.8022528
  92.4772263  46.3964367  51.7159939  91.6776371  46.0577488  53.7885237
  90.5364609  45.7456160  54.1114140  92.2599697  47.0412254  54.4724560
  91.8508339  47.5209951  55.2614641  93.1836891  47.3983335  54.2741728
  90.4311848  42.4292755  52.8007317  89.9863243  42.1782923  53.8871288
  89.8465347  41.8751621  51.7472172  90.3236771  41.9326115  50.8588839
  88.7035275  40.9509611  51.7589760  87.8782463  41.5299559  52.1734381
  88.4974766  40.5707788  50.2786684  88.4064293  41.5227652  49.7556639
  89.3368149  40.0494671  49.8183966  87.1907425  39.6896386  50.0036621
  87.2687626  38.7854671  50.6073856  85.9530735  40.4527807  50.4919195
  85.0088787  40.0469446  50.1287460  85.8866978  40.5182123  51.5779257
  86.0311413  41.4546251  50.0696421  87.1309090  39.2765546  48.5079861
  86.1723042  38.7910938  48.3249235  87.3367786  40.1108074  47.8373623
  87.9287720  38.5570216  48.3241701  88.7555218  39.6776748  52.6052046
  87.7473545  39.2504239  53.1598043  89.9013805  38.9985776  52.7489996
  90.7196426  39.4433522  52.3581934  90.1245880  37.8149629  53.5436630
  89.3160057  37.1263456  53.2985210  91.3362503  37.0340753  53.0908632
  91.3649940  36.9312453  52.0061064  92.1974373  37.6055765  53.4370375
  91.4023876  35.6023097  53.6579752  92.4137974  35.2352977  53.4834480
  91.2821484  35.5180502  54.7380400  90.3120708  34.6106482  53.0609512
  89.4305229  35.1555347  52.7231932  90.7853127  34.2159963  52.1618462
  89.9422741  33.4750605  53.8851881  90.0909615  32.5798440  53.4418154
  89.3575573  33.3899498  54.9945211  89.0059185  32.2891760  55.5129719
  89.4019794  31.4904785  55.0382996  88.7606907  32.2285318  56.4908695
  89.0494728  34.4580817  55.6796360  89.4994450  35.3357053  55.4619169
  88.5375118  34.3662834  56.5454102  90.1576138  38.1091452  55.0414085
  89.6344280  37.2856712  55.8229399  90.6603622  39.3193579  55.3981495
  90.8675671  40.0452709  54.7271681  90.4181862  39.8025227  56.7707157
  90.5939007  38.9566088  57.4352884  91.4231014  40.9254980  57.0020199
  92.3549080  40.3613138  56.9628811  91.4410210  41.6544533  56.1918306
  91.2741089  41.5777826  58.3839750  90.3259468  42.1072388  58.4775352
  91.3404274  40.8279467  59.1722965  92.3468208  42.7379417  58.5683489
  93.1024933  42.6687479  59.5770073  92.3030567  43.6358547  57.7067709
  88.9348984  40.1977062  57.1197319  88.5826778  40.3045321  58.3086443
  88.0371475  40.4401493  56.1321306  88.4228420  40.6587172  55.2246189
  86.5887547  40.7491207  56.2618494  86.3781643  41.3203478  57.1659803
  85.9795094  41.6516018  55.1207590  86.0418320  41.1416054  54.1594505
  84.9219990  41.8088961  55.3329706  86.6085434  43.0290794  54.9404335
  87.8114605  43.5055351  55.3525543  88.5083580  42.9429150  55.9560394
  88.0089378  44.7519398  54.7896433  88.9161587  45.1922750  54.8458195
  86.8866539  45.1710463  54.0895987  86.6069794  46.3413429  53.3449888
  87.3681259  47.1047258  53.2794333  85.4051876  46.4820910  52.6649189
  85.0669861  47.4200392  52.2498465  84.4307995  45.4563761  52.7406883
  83.4488201  45.6283379  52.3252964  84.7269058  44.2618895  53.4592628
  84.0095234  43.4551716  53.4904003  85.9515858  44.1052532  54.1835403
  85.7863712  39.4313884  56.3486147  84.7489071  39.4943118  57.0787191
  86.0715675  38.4298277  55.5164385  86.9609737  38.4717083  55.0396824
  85.1475811  37.2510123  55.3434420  84.5943069  37.0210838  56.2540054
  84.0797329  37.5737047  54.2636776  83.5155106  38.4181833  54.6594143
  84.6781158  38.0378437  53.4796953  82.9756069  36.5940022  53.8697910
  82.3602486  36.7749476  52.8184938  82.6239014  35.6998944  54.6875048
  85.9580040  36.0329604  54.9600935  87.0329666  36.1186528  54.4432545
  85.3067112  34.8283958  55.0995636  84.3176365  34.8456001  55.3033972
  85.8964157  33.6066341  54.5825863  86.7682552  33.2902813  55.1552248
  84.7568321  32.5463033  54.7422457  83.8018322  33.0323958  54.5427656
  84.8815727  31.7497921  54.0086842  84.7277641  32.0866728  56.1792564
  84.3496037  32.8337765  56.8770599  83.9412689  31.3373923  56.2693453
  86.0127735  31.3346958  56.7113590  86.6705704  31.9261312  57.6139116
  86.3512325  30.3214025  56.0931587  86.2957764  33.5782146  53.0602837
  85.8423424  34.3629217  52.2369385  87.1543312  32.6511669  52.6954412
  87.4640942  31.9610524  53.3646870  87.3877525  32.2759366  51.2017012
  87.9690361  33.0661488  50.7265377  88.2054615  30.9611583  51.2080431
  87.5421810  30.1641202  51.5440416  88.5433674  30.7352614  50.1966572
  89.3583202  30.8658552  52.1498775  89.2675877  30.5691671  53.3074284
  90.5501938  31.0193205  51.6860008  91.3354301  30.8181787  52.2885323
  90.7853794  31.1999059  50.7205057  86.1166191  32.1064806  50.3814268
  85.1380348  31.4708114  50.8004284  86.1737442  32.6576734  49.1770411
  86.9999790  33.1116676  48.8146448  85.0704479  32.7125144  48.2290697
  84.1617203  32.9688263  48.7736988  85.3022671  33.7870765  47.1697950
  86.3224983  33.7119555  46.7934990  84.5813370  33.5895371  46.3764858
  85.0166702  35.2131271  47.7410650  84.1213608  35.1773047  48.3617496
  86.1775589  35.7825017  48.5794735  87.0945740  35.9890127  48.0276299
  85.8662891  36.7279601  49.0236855  86.4491844  35.1969576  49.4577980
  84.6696186  36.2883878  46.7730665  85.5589771  36.4871550  46.1750317
  83.7833595  35.9481597  46.2374544  84.5934391  37.2742081  47.2318220
  84.8615265  31.2714362  47.5727987  85.6989765  30.8556437  46.8281364
  83.7184715  30.6140137  47.8466606  82.9987335  31.2072897  48.2341003
  83.3199501  29.1785955  47.5414610  83.8254452  28.4738421  48.2016850
  81.7799950  28.9719248  47.8300858  81.3082218  29.7842264  47.2771835
  81.4525414  27.9914331  47.4843788  81.5897942  29.0112305  49.2966413
  82.0554352  28.0929255  49.6544027  81.9587326  29.9692106  49.6630526
  80.1280785  28.7760687  49.6949291  79.5122623  29.5938325  49.3205786
  79.7721767  27.8605628  49.2224026  79.9433041  28.4454322  51.2039566
  78.9895725  27.9488039  51.3824320  80.7576180  27.7737212  51.4756107
  79.9199390  29.6905971  52.0550537  80.7691193  30.2014494  51.8600559
  79.0946007  30.1565814  51.7060852  79.8619461  29.3528128  53.0051279
  83.6869621  28.6613107  46.1158848  83.4463787  29.2738628  45.0656796
  84.1637802  27.4000335  46.0879660  84.2692757  27.0068574  47.0122957
  84.6264076  26.6404033  44.8825169  85.4092503  25.9863281  45.2664995
  83.4293270  25.8040786  44.3371058  82.6535320  26.4881063  43.9930916
  83.7253952  25.3262639  43.4032249  82.9259396  24.7413921  45.2718925
  81.7063141  24.4006681  45.1586819  83.7272453  24.1456747  46.0627508
  85.1829529  27.5757289  43.7523031  84.6782589  27.6275921  42.6612186
  86.1397839  28.3972788  44.0289736  86.4733601  28.3905554  44.9822712
  86.9280910  29.3660736  43.1126642  87.6577854  29.9191356  43.7040710
  87.7735138  28.6208463  42.1003389  87.1745777  27.9491186  41.4853907
  88.4191799  29.2425418  41.4800930  88.7759209  27.6523638  42.7618361
  89.6569633  28.1405926  43.5625982  88.6845112  26.4328504  42.5158501
  86.1035824  30.4970837  42.4531841  86.1365032  30.6652331  41.2231445
  85.3364372  31.1984015  43.2203817  85.2223492  30.8942723  44.1767216
  84.2395210  31.9232678  42.6667023  83.6309624  31.4189672  41.9160748
  83.2025433  32.1270585  43.7861395  82.7970600  31.1648965  44.0990686
  83.7773132  32.5471497  44.6115303  82.1492290  32.9887056  43.3887815
  81.6263676  33.0592799  44.1908026  84.7172832  33.2414031  42.0605183
  84.2770195  33.6177850  40.9828997  85.7215500  33.9102149  42.7196121
  86.2127686  33.3840847  43.4281206  86.2537193  35.1431227  42.1935034
  85.4564381  35.8809781  42.1038866  87.3100090  35.6486535  43.2100534
  86.9715786  35.5408883  44.2405653  88.2555866  35.1083875  43.1642628
  87.6854897  37.1767569  43.1146097  87.9748821  37.4900913  42.1115303
  86.5549850  38.0846310  43.4906483  86.9159317  39.0957046  43.6791945
  85.9797001  38.1509566  42.5672054  85.9265614  37.7532268  44.3172979
  88.8079643  37.3003769  44.1792727  89.6379662  36.7297411  43.7626505
  89.1068554  38.3387113  44.3229055  88.4404278  36.8565392  45.1044846
  86.8319321  34.8954225  40.7555580  87.5412941  33.8854361  40.5206108
  86.7080498  35.8113575  39.7379065  85.8933926  36.9836140  39.7283912
  86.6072655  37.7518439  40.0255585  85.0026035  36.9773912  40.3565311
  85.4091454  37.0892715  38.2861495  85.1553726  38.1348372  38.1115150
  84.5867825  36.4298916  38.0086112  86.6364956  36.6323423  37.4376273
  87.2583389  37.5275612  37.4365115  86.2250710  36.3355947  36.4728642
  87.2200775  35.5677795  38.4281492  86.9055557  34.5743895  38.1082225
  88.7239552  35.5948067  38.2802939  89.3676090  36.4762473  38.8973236
  89.2945576  34.7858953  37.3594666  88.7019253  34.1231251  36.8802738
  90.7413673  34.7243309  37.1470547  91.3383865  34.7684073  38.0579495
  91.1346054  33.3627033  36.5360808  90.8897400  32.5782847  37.2522044
  90.5428791  33.1962919  35.6359339  92.4495697  33.2718635  36.2205482
  92.9230118  33.2200789  37.0540786  91.0717106  35.8755183  36.1883950
  92.1074486  36.5447569  36.4212751  90.2430248  36.1604047  35.1771665
  89.4050884  35.6027484  35.0935912  90.4154682  37.3116589  34.3080831
  91.4109993  37.3168945  33.8642454  89.3090630  37.3003650  33.2434964
  89.3155479  36.4337516  32.5824046  88.3559990  37.3456883  33.7704825
  89.3577766  38.5441589  32.3190904  88.8003731  39.5768976  32.6593947
  89.8926926  38.3172345  31.1629415  89.8844814  39.0057969  30.4240799
  90.3417397  37.4212480  31.0377812  90.3616810  38.6360121  35.1594138
  89.4180584  38.7634945  35.9444642  91.2966347  39.6027994  34.9530363
  92.3750782  39.5972705  33.8998032  91.8626404  39.3754530  32.9636908
  93.1253433  38.8518691  34.1635871  93.0315304  40.9288502  33.8544726
  92.4888229  41.5075350  33.1070089  94.0802193  40.7780981  33.5982966
  92.7627468  41.4957809  35.1730728  92.6576138  42.5780725  35.0976586
  93.6041546  41.3547373  35.8514905  91.4276028  40.8183718  35.6437111
  91.4600849  40.5363369  36.6960907  90.2203655  41.8580151  35.4187894
  90.0879955  42.6898289  36.3012123  89.4909477  41.8319798  34.2975569
  89.6562099  41.0934258  33.6287332  88.3753395  42.7420902  33.9688373
  88.6152744  43.6774731  34.4743991  88.0974960  42.9709435  32.4414015
  88.2278156  41.9858265  31.9934392  86.7037582  43.5638905  32.1194243
  86.6563892  43.8768387  31.0763931  85.9298611  42.8287125  32.3401046
  86.5634441  44.4886923  32.6790237  89.1220379  43.8793278  31.8578458
  88.7606716  44.8953152  32.0168734  90.0171089  43.6733341  32.4448013
  89.5127678  43.6388874  30.3757930  90.2457428  44.4133377  30.1497698
  89.9740410  42.6553488  30.2863622  88.6386776  43.8435888  29.7576022
  87.1132565  42.2664738  34.6938062  86.3965988  43.0345678  35.3466916
  86.8589401  40.9475088  34.5701814  87.5942516  40.3824186  34.1700721
  85.7458401  40.3380346  35.2835059  84.7726059  40.6791592  34.9306011
  85.6855679  38.8367939  34.9356771  86.6401768  38.3568764  35.1513314
  84.9163723  38.3784199  35.5572367  85.3773499  38.4948540  33.4605813
  84.4845200  39.1817784  32.8602433  85.7687759  37.4060559  32.9402781
  85.7624435  40.5264044  36.8224645  84.7695160  40.8685827  37.4561644
  87.0019341  40.5315065  37.3320031  87.7530575  40.3303766  36.6874409
  87.4339676  40.7556725  38.7334633  86.9124317  40.1680899  39.4890189
  88.8923645  40.2785540  38.8936830  88.9875507  39.1992784  38.7744951
  89.4259739  40.7743692  38.0827999  89.5483780  40.6606865  40.1909542
  89.6832752  39.7509193  41.2140036  89.2608452  38.7627816  41.1065722
  90.4233551  40.0711203  42.3482609  90.5649185  39.3417025  43.1320333
  90.9131813  41.3706827  42.5273323  91.3529110  41.6922522  43.4598732
  90.7079411  42.3616123  41.5145683  91.0586166  43.3709955  41.6713619
  90.0261688  41.9511509  40.3474998  89.8348713  42.6038027  39.5085430
  87.2447968  42.2545147  39.1358376  86.8248463  42.6333475  40.2524137
  87.5651741  43.1409454  38.2082272  87.8882408  42.8288460  37.3036098
  87.3492718  44.6113491  38.2542396  87.8699875  44.9692249  39.1424298
  88.0518913  45.2438402  37.0219660  89.1111374  45.0024843  37.1104646
  87.5962448  44.9674082  36.0711312  87.9585648  46.6433048  37.1820760
  88.8210201  47.0329332  37.3431754  85.8667374  45.0239277  38.2726145
  85.5376816  45.8805275  39.0905929  85.0185013  44.3790054  37.4657631
  85.3424263  43.6528349  36.8429852  83.5273361  44.4772005  37.4914813
  83.2241154  45.5240965  37.5044656  82.9079151  43.8093948  36.2459207
  83.0888462  42.7351522  36.2829256  81.8368626  44.0111685  36.2611079
  83.3213139  44.2798042  34.8896790  83.8926315  45.4877615  34.6162295
  84.2182446  46.2096882  35.3505278  84.1297245  45.8761120  33.2702470
  84.6288967  46.8042231  33.0339360  83.7581444  44.9697399  32.1792150
  84.0471363  45.2974272  30.9149051  83.7193871  44.5890760  30.3559589
  83.2444286  43.6676693  32.4752903  83.0967331  42.8712749  31.7609024
  83.1001663  43.3745241  33.8724375  82.7249432  42.4056864  34.1673446
  82.9880619  43.7935448  38.8313365  81.9829845  44.3068981  39.3870425
  83.6571503  42.6791954  39.3002844  84.4588280  42.4395275  38.7346101
  83.4733486  42.0502138  40.6208038  82.4711800  41.6217566  40.6344366
  84.3109417  40.8419323  40.9433699  84.3852043  40.2420855  40.0363016
  85.2980423  41.2383509  41.1812449  83.8631344  40.0396538  42.0338535
  82.9781342  39.0335560  41.9678068  82.5226498  38.5914063  41.0940599
  82.6531124  38.6919856  43.2852316  81.9196224  38.0191326  43.4566021
  83.2574844  39.4277978  44.2240047  83.2058048  39.4471645  45.6612110
  82.5853062  38.7911129  46.2536383  83.9644337  40.4921770  46.2967777
  83.9266968  40.5822659  47.3723507  84.7704601  41.3574171  45.6166029
  85.2974606  42.1579361  46.1144447  84.8716450  41.1908531  44.2067051
  85.4961395  41.9082546  43.6950874  84.0802574  40.3200340  43.4925556
  83.5655212  43.0799150  41.7470074  82.5391960  43.3391476  42.4530745
  84.7877026  43.6029577  41.9898081  85.5728149  43.1360006  41.5589380
  85.0875282  44.5828438  43.0233860  84.9293709  44.0521002  43.9622164
  86.4674854  45.1379681  42.8141737  86.5901184  45.3178644  41.7461395
  86.8551159  46.4822865  43.4757948  86.9209671  46.4514732  44.5633698
  87.8385353  46.7520094  43.0907869  86.2307644  47.2863865  43.0862999
  87.5873375  44.1806078  43.2112789  88.6073208  44.5096111  43.0125952
  87.5619125  44.0214539  44.2892981  87.4527168  43.2505655  42.6590014
  83.9494133  45.6782961  42.9868460  83.2590771  45.9327984  44.0104151
  83.6730099  46.2976933  41.8176317  84.2368698  46.1216116  40.9983921
  82.6630306  47.2656870  41.7553806  82.9192162  48.0749846  42.4391222
  82.6684189  47.7342892  40.3167248  82.0003510  47.1454811  39.6881604
  82.3109913  48.7626982  40.2645206  83.6738396  47.7289343  39.8957849
  81.1769199  46.8661070  42.0766163  80.5116558  47.6152849  42.7735376
  80.7782841  45.6482744  41.7481184  81.3954830  45.0346851  41.2355900
  79.4732618  45.0405931  41.9624853  78.6374760  45.7368565  41.8933249
  79.3145418  43.9587164  40.8078909  78.4501791  43.2991219  40.8847427
  79.5095491  44.3494844  39.8092031  80.0831604  43.2221937  41.0421181
  79.2977953  44.3711185  43.3258343  78.1683159  43.9001942  43.5507631
  80.2839851  44.3985462  44.1907740  81.1310768  44.8417759  43.8650417
  80.2108383  43.6973524  45.4934454  79.1506100  43.4714603  45.6074476
  80.9487247  42.3064852  45.2856445  81.9454575  42.4444246  44.8666096
  81.1462975  41.7606735  46.2082243  80.2149105  41.3755798  44.2551994
  79.3266439  40.6417036  44.6606159  80.6908321  41.2984848  43.0371666
  80.2422333  40.7422829  42.3233747  81.3645840  42.0113611  42.7964211
  80.7197094  44.4727898  46.7849302  80.8318806  43.9421415  47.9059172
  81.0146332  45.7631207  46.6556263  80.8784676  46.1861706  45.7486582
  81.5925694  46.6161585  47.6965714  81.6075897  45.9442663  48.5547304
  82.9794502  47.1362877  47.3286057  82.9892921  47.5061321  46.3033152
  83.2377911  48.0300665  47.8965187  84.1090775  46.0990000  47.4068499
  83.8010406  45.2120638  46.8531752  85.4068375  46.5533829  46.7308855
  85.6084251  47.6068878  46.9247675  86.2352276  45.9597969  47.1175671
  85.2207851  46.2877893  45.6902361  84.3729973  45.7443905  48.8426876
  83.5207081  45.1749516  49.2134190  85.2807045  45.1472712  48.9299726
  84.5215893  46.6526079  49.4267845  80.7200813  47.8480291  48.0647087
  79.9337149  48.3064556  47.2035170  80.8321381  48.4159756  49.2623329
  81.6960239  47.9169512  50.3881502  82.7658939  48.0027103  50.1980877
  81.3333225  46.8911314  50.4533052  81.2470627  48.7400389  51.6263056
  81.9308376  49.5471907  51.8891048  81.0121536  48.0906200  52.4696207
  79.8330402  49.3615866  51.1476231  79.6370459  50.3449774  51.5749693
  79.0202284  48.6547279  51.3143301  80.0017262  49.5730448  49.6876860
  78.9565897  49.5731688  49.3781948  80.7146358  50.8916378  49.2197657
  80.9668159  51.7913437  50.0155830  81.0999012  50.9285736  47.9760504
  80.9284496  50.0968313  47.4293280  81.5851688  52.2213984  47.3285007
  82.1234512  52.7576256  48.1100464  82.5629520  51.7937183  46.2629366
  83.1173515  52.6722145  45.9328175  83.6069965  50.8305788  46.8088627
  83.2676125  49.7948027  46.7993498  84.4952679  50.8482075  46.1773825
  83.9617634  51.0749388  47.8101254  81.8937683  51.3531828  44.9046516
  81.1818409  50.5515480  45.1012135  81.3213921  52.1651316  44.4560623
  82.9360580  50.8885336  43.8357401  83.3364296  49.9098730  44.1003609
  82.5869274  50.7458401  42.8130722  83.7910652  51.5645361  43.8451099
  80.4923534  53.1002808  46.7866421  79.4441032  52.6063681  46.3705206
  80.7321262  54.4143295  46.7414188  81.6388607  54.5845461  47.1524572
  79.9055195  55.4995012  46.1842108  79.1597986  55.4491663  46.9776011
  80.6944656  56.8441582  46.3029861  81.3323402  56.7473793  47.1815395
  81.5182972  56.9297409  45.5944061  79.8980331  58.1872845  46.3169622
  80.5031204  59.2649031  46.3762474  78.6907101  58.1104660  46.0156822
  79.4478035  55.1540661  44.7397041  80.1782990  54.6694279  43.8857794
  78.2426453  55.7166481  44.4196367  77.8772783  56.3579035  45.1091290
  77.7302790  55.8386374  43.1447268  77.6687479  54.8350334  42.7238989
  76.3563013  56.4516354  43.0445528  76.2148905  57.2128344  43.8118076
  76.2400818  57.0185566  42.1208715  75.1584291  55.5347252  43.3358288
  75.3556156  54.3113804  43.3028173  74.0541553  56.0158873  43.5432720
  78.7638950  56.5867805  42.2378111  79.0592861  56.1354542  41.1193848
  79.4917583  57.5564289  42.8401089  79.2464972  57.8062391  43.7874985
  80.6009865  58.2841778  42.1938753  80.1277733  58.6296606  41.2747383
  80.9124660  59.5279694  42.9546213  81.3866329  60.1875162  42.2278023
  79.9741411  59.8756456  43.3867931  81.8156624  59.1553020  43.9722919
  81.4198971  59.2716742  44.8391438  81.7263699  57.4258375  41.6981459
  82.4082184  57.5942087  40.7287169  82.0103931  56.3406706  42.4321032
  81.3851738  56.1568737  43.2037354  82.9437256  55.2831745  41.9722128
  83.7583256  55.6772661  41.3645792  83.6344051  54.4339466  43.0618668
  82.8592396  54.0909243  43.7471056  84.0714836  53.5663891  42.5674868
  84.8190594  55.1626205  43.6618376  85.3930473  55.7467985  42.9425573
  84.3721485  56.0750246  44.7529745  83.9225674  55.5569363  45.6000662
  85.1823616  56.4678097  45.3672743  83.7642765  56.8946362  44.3697929
  85.8683968  54.2147970  44.2030287  85.4572868  53.6029387  45.0059700
  86.3428211  53.6135387  43.4274578  86.7461872  54.7481060  44.5679665
  82.3323441  54.3446064  40.9060335  82.9586124  53.8752747  39.9398303
  81.0169315  54.1014385  41.0215998  80.4636383  54.3797731  41.8194103
  80.3481770  53.2566595  40.0171661  80.9616280  52.3940182  39.7571182
  79.0162706  52.7168512  40.5345774  78.4168768  53.6194992  40.6531668
  78.6291742  52.0227146  39.7886372  79.0931797  52.0438576  41.8891335
  79.9797201  52.4350691  42.3882294  78.2525539  52.3694992  42.5018406
  79.0404081  50.5097389  41.8021488  79.8031282  50.1887417  41.0926962
  79.2734241  50.0826359  42.7775383  77.6696539  50.1082897  41.3174343
  77.1342087  50.8234882  40.8463717  76.9520473  49.0567112  41.6577244
  77.4212503  48.1718826  42.4325562  78.4066534  47.9727793  42.5297070
  76.7509365  47.4994183  42.7768946  75.7096100  49.0730286  41.4218712
  75.3636456  49.6570826  40.6740141  75.0458241  48.4024048  41.7820883
  80.3202438  54.0195894  38.6569166  80.4305744  53.3922148  37.5874853
  80.2783585  55.3340721  38.7157845  80.2575397  55.7485867  39.6365738
  80.3990936  56.2269163  37.5943494  79.6256208  56.0024500  36.8598723
  80.1051140  57.7435160  38.0751204  80.8467865  57.9884911  38.8353896
  80.5375862  58.7149620  36.8830419  80.0379658  58.2970142  36.0090899
  80.1466942  59.7171831  37.0587134  81.6232777  58.7407398  36.7896366
  78.6315966  57.8970575  38.5502219  77.9998684  57.7532148  37.6736784
  78.3782816  57.1007633  39.2501140  78.2587385  59.2920828  39.0581465
  77.2575140  59.1338205  39.4589019  79.0385818  59.4614267  39.8006153
  78.0224323  60.0160503  38.2783175  81.7898464  56.1442518  36.9588876
  81.9068241  56.0351372  35.7440042  82.8460693  56.1392975  37.7618694
  82.7400398  56.2317085  38.7620282  84.2036438  55.9478092  37.4348855
  84.4219303  56.7669487  36.7497063  85.0861549  56.1636734  38.6606526
  84.7419643  57.0670986  39.1640997  84.7864437  55.3928566  39.3706656
  86.5819550  56.0655928  38.3441901  87.1160126  55.9314489  39.2848730
  86.7452145  55.1700878  37.7445889  87.1616554  57.3478460  37.6811147
  86.4824104  58.2703161  37.2672296  88.4171867  57.6057529  37.6914597
  88.7240791  58.4750271  37.2788048  89.1236401  56.9909430  38.0696607
  84.5172215  54.7340584  36.5962934  85.4062748  54.8040915  35.7466531
  83.9055729  53.5723495  36.7582822  83.2025433  53.5254622  37.4819136
  84.1295719  52.3577738  35.9160185  85.1883030  52.0996571  35.8922291
  83.2516956  51.2616920  36.4421463  83.3824539  51.2052441  37.5228000
  82.2067070  51.5379810  36.3015914  83.3879757  49.8273659  35.8667016
  84.4169998  49.5420837  35.6480265  82.7638245  48.8273382  36.8510556
  81.7212009  49.1249084  36.9628000  82.9042053  47.8111696  36.4825583
  83.2941818  48.9081860  37.7998877  82.5986004  49.5587206  34.6164632
  81.5453911  49.8394156  34.6239519  83.0490208  50.0924540  33.7795901
  82.6210499  48.4952545  34.3784761  83.6788940  52.7303123  34.5007658
  84.1285801  52.1189404  33.5572052  82.6181602  53.5534382  34.3575883
  82.1648598  54.0176535  35.1316214  82.1078205  53.9615965  33.0594325
  82.1068573  53.0833912  32.4137902  80.6169510  54.4735813  33.1744766
  80.5804253  55.4479694  33.6616516  80.0932789  54.4535494  32.2187209
  79.7259617  53.6851454  34.1719556  80.2380562  53.6646271  35.1339507
  78.3484793  54.2160177  34.4415116  78.3934927  55.2278996  34.8442125
  77.7983570  54.2469168  33.5010266  77.7395010  53.6356926  35.1346684
  79.5823383  52.1955013  33.7556529  80.5813313  51.7611647  33.7939644
  78.9753103  51.7414379  34.5388794  79.2084885  51.9592810  32.7593899
  82.9600143  54.9507904  32.3512530  83.0742168  54.8192596  31.0868382
  83.4735394  55.9955978  33.0856299  83.1250668  56.1411858  34.0223622
  84.5816040  56.8015862  32.6711130  84.2467880  57.2738123  31.7475319
  84.9632072  57.9214954  33.7069225  85.4402924  57.5081491  34.5955372
  85.7255363  58.5295534  33.2198739  83.6715221  58.7231493  34.1242886
  83.2928658  59.0219736  33.1468320  82.9428196  58.0618191  34.5930505
  84.0776825  60.0020170  34.8091078  84.4400501  59.6756554  35.7839322
  84.8191071  60.4502058  34.1476607  82.8393650  60.9013605  35.0166893
  82.1916485  60.7216167  34.1586375  82.3994923  60.4720163  35.9168410
  83.1204700  62.3751736  35.1164746  82.3095226  62.9766369  35.1434350
  83.7741280  62.5974369  35.8536530  83.5594559  62.6901388  34.2631364
  85.7982922  55.9905291  32.2655249  86.2506008  56.1653328  31.0945249
  86.3478565  55.1043272  33.0898952  85.9744835  55.0289154  34.0253115
  87.7738380  54.6112394  32.9212403  88.3046150  55.3196812  32.2852468
  88.5555267  54.5943594  34.2752314  87.9835796  54.0561771  35.0311017
  89.9795723  54.0045977  34.3274736  90.5760956  54.5343447  33.5847592
  90.3726196  54.2540932  35.3130555  89.9296474  52.9354048  34.1214776
  88.7105179  56.0676908  34.8052621  87.6932526  56.4252186  34.9647903
  89.0163326  55.9576941  35.8456850  89.4958878  57.1339893  34.0277958
  89.1833687  58.0667925  34.4971704  90.5569077  56.8857527  34.0010786
  89.1105461  57.2095919  33.0109906  87.8872871  53.2298422  32.1877193
  87.3647404  52.2373533  32.6078606  88.5846901  53.1795835  31.0864758
  89.1450119  54.0117121  30.9693885  88.9305878  52.0484877  30.2719545
  88.0781937  51.3898659  30.1053667  89.4621181  52.6430273  28.8600349
  90.4043102  53.1350327  29.1015124  89.6558285  51.7862415  28.2146716
  88.5303497  53.6454058  28.1481457  88.9879513  54.4520330  27.3402119
  87.3161697  53.4695435  28.2571816  89.9999332  51.2222815  30.9253812
  90.0561714  50.0044394  30.7429719  90.9209919  51.8875360  31.6518259
  90.8848476  52.8917265  31.7538071  92.0223808  51.2844992  32.3896694
  92.4584198  50.5402184  31.7233229  93.1111336  52.2825623  32.6936531
  92.8029537  53.0288506  33.4258962  94.0550232  51.8053341  32.9571438
  93.3444691  53.0011415  31.5644598  93.6346340  52.3423767  30.9292960
  91.5378284  50.6355762  33.6255193  91.8005371  51.1355019  34.7401643
  90.8729458  49.4968414  33.4611368  90.7340050  49.3864775  32.4668455
  90.1182652  48.9020348  34.5532656  89.5271587  49.6290350  35.1101899
  89.0794659  47.9116678  33.8719940  88.5466099  47.6010036  34.7706938
  88.4019279  48.4839725  33.2383370  89.5895290  47.0689487  33.4053469
  90.8929062  48.1657314  35.7311678  90.3577805  48.0781841  36.8313885
  92.1669769  47.8270340  35.5916357  92.5545788  48.0103207  34.6771574
  93.1166935  47.4751043  36.6438365  92.4480724  46.8916416  37.2767735
  94.2278290  46.5952301  36.1039543  94.6106911  47.2235775  35.2997828
  95.2722836  46.3927555  37.2165799  95.9838676  45.6175900  36.9322228
  95.8540058  47.2972727  37.3941565  94.9330902  46.0412169  38.1909943
  93.6540604  45.1962042  35.7627583  94.3022156  44.3995428  36.1279011
  92.6670647  45.0086737  36.1855721  93.5041904  45.1296234  34.2161775
  94.5376301  45.3299189  33.9333558  93.1910229  44.1653061  33.8160205
  92.7834225  45.8752108  33.8804889  93.5561848  48.6610794  37.4334121
  93.5476017  48.6574411  38.6906266  94.0473652  49.6600103  36.6576314
  94.0438175  49.5211792  35.6572247  94.5845604  50.9129953  37.1243119
  95.3890133  50.6987000  37.8279138  95.0561428  51.8075848  35.9480429
  94.4399643  51.7572403  35.0503254  95.2185249  52.8676653  36.1428809
  96.4859867  51.3802624  35.4889727  96.8536472  52.1458769  34.8057747
  97.1945000  51.5308809  36.3034797  96.4348221  50.0555325  34.7699714
  95.4905796  49.7978735  34.0909863  97.3725319  49.1274786  35.0507522
  97.3304081  48.1809855  34.7007895  97.9590321  49.2629337  35.8617830
  93.5785770  51.6793919  37.9738927  93.9854908  52.2055483  39.0065742
  92.2611523  51.6814613  37.6453662  92.1517372  51.3427210  36.7001772
  91.0890388  52.0859957  38.5062957  91.1945629  53.1648493  38.6205244
  89.7678757  51.6215849  37.8010917  89.8480415  51.7942762  36.7278481
  89.5730972  50.5527782  37.8894639  88.6110401  52.5098085  38.3705926
  88.7200356  52.7165747  39.4352388  88.6436653  53.5176229  37.9566479
  87.1968174  52.0645475  38.0555463  86.4933109  52.8289747  38.3854437
  87.1888828  51.9031620  36.9775867  86.8377209  50.9339809  38.8276458
  86.7928219  51.0508680  39.8298550  86.8077850  49.6563148  38.5300684
  86.9524765  49.2213058  37.3427439  87.0659161  49.8166132  36.5347576
  87.0156002  48.2141685  37.3003721  86.5353203  48.7684917  39.4437289
  86.3231373  49.0926933  40.3764534  86.3470840  47.8274727  39.1288471
  91.2026978  51.5809631  39.9496436  90.7987881  52.3395443  40.8449078
  91.5483952  50.2995586  40.1819515  91.9760323  49.8539639  39.3827772
  91.1720181  49.5599937  41.3622952  90.0860310  49.5432186  41.4541531
  91.5323448  48.0719614  41.2507963  92.6166153  48.0065441  41.1603546
  91.3070202  47.5149775  42.1602535  90.9101391  47.3799086  40.0506210
  91.3112450  47.8523159  39.1539311  91.2209606  45.8816814  40.3340578
  90.9371376  45.2706718  39.4771957  92.3003387  45.7415533  40.2758121
  90.8887386  45.5648756  41.3226748  89.3648529  47.4023151  40.1353550
  89.0528774  48.3970022  39.8169589  88.9895630  46.5499830  39.5689750
  89.1656303  47.2855234  41.2006140  91.7796326  50.0560045  42.6585722
  91.1063290  49.9852800  43.7012529  92.8608513  50.8593464  42.5759125
  93.2135010  50.9495115  41.6337872  93.4755135  51.6641617  43.6764240
  94.1308689  51.0581350  44.3020010  94.4081402  52.7088928  43.0116415
  93.8142395  53.3950233  42.4078083  94.7784710  53.3078766  43.8436174
  95.5596638  52.0254755  42.2341251  96.0910320  51.4154577  42.9646254
  95.2761936  51.3858891  41.3982582  96.6121197  53.0455112  41.7458391
  95.9629917  53.8120890  41.3226318  97.1300983  53.4671354  42.6072502
  97.4742317  52.5529480  40.6739235  97.8978825  51.6575003  40.8708811
  97.8118896  53.1330109  39.5368648  97.4190140  54.3261051  39.3018460
  96.9719410  54.8757410  40.0216532  97.5158405  54.7499657  38.3902192
  98.6543179  52.5696468  38.6870074  98.8680744  51.5990448  38.8668418
  98.9267349  53.0905008  37.8656673  92.3743153  52.3200798  44.5273542
  92.5552559  52.2961807  45.7256794  91.3821125  52.9595757  43.9152479
  91.2842083  52.9245329  42.9106140  90.4437447  53.7966394  44.7175264
  91.0712242  54.3402004  45.4238605  89.7545147  54.9540091  43.9127445
  88.9718628  55.3850269  44.5370770  90.3371239  55.8225489  43.6056519
  88.9306831  54.3571043  42.3202276  89.9319744  53.6333561  41.8117857
  89.3816948  53.0471849  45.5738068  89.1157246  53.3882236  46.7285204
  88.8391781  51.9326735  45.0059605  89.0242004  51.7259693  44.0348053
  88.1810093  50.8686876  45.8276081  87.3925972  51.3581705  46.3993740
  87.7351952  49.7445011  44.8684788  88.6608219  49.5319080  44.3335676
  87.3005199  48.8973904  45.3990936  86.5555096  50.3474474  44.0859747
  85.6337643  49.7656584  44.0852165  86.2038708  51.2691307  44.5495939
  86.8104744  50.5944920  42.5062084  87.9559708  50.8824492  42.1137476
  85.8698654  50.1828432  41.7515278  89.0000725  50.3478765  47.0321417
  88.4923649  50.3102160  48.1763268  90.2429390  49.9874258  46.7563152
  90.5765343  49.9514055  45.8036757  91.1110687  49.4455290  47.6610756
  90.6590652  48.5651970  48.1180334  92.3946857  48.8889885  46.9709110
  92.1673012  48.0690956  46.2896109  92.8277874  49.6897602  46.3715076
  93.4746647  48.2780552  47.9436445  93.8009834  49.1069365  48.5717964
  93.0385017  47.1101284  48.8304090  93.8002872  46.7792320  49.5362997
  92.1501923  47.4152136  49.3835258  92.8391552  46.1857128  48.2883549
  94.6331310  47.7318478  47.0687389  95.0377655  48.5303402  46.4468193
  95.5009270  47.3155546  47.5803375  94.2304230  47.0023346  46.3660765
  91.4857483  50.5545282  48.7452888  91.5194798  50.3140831  49.9567032
  91.6346741  51.7709684  48.2700586  91.7546844  52.0262051  47.3002338
  91.7820835  52.9266405  49.2033052  92.6271343  52.6901627  49.8498917
  92.2119331  54.1495609  48.4245110  91.6559887  54.2410326  47.4914169
  92.0660782  55.0022030  49.0877008  93.7150860  54.3549728  47.9767895
  93.8674450  55.2827024  47.1406126  94.6516991  53.6862469  48.5650682
  90.5760670  53.1659698  50.1330805  90.8212280  53.7875509  51.1441803
  89.3524361  52.8201675  49.7008801  89.2457581  52.5648355  48.7295246
  88.1299973  52.6904154  50.4797840  88.0929756  53.5345459  51.1683893
  86.7624760  52.6947165  49.6249294  86.8043995  51.9933462  48.7916088
  85.6008720  52.1520948  50.4180765  84.6746349  52.0724440  49.8489904
  85.6634808  51.0913754  50.6610918  85.4001045  52.7403736  51.3134623
  86.3988018  54.0819693  49.1233444  85.9141064  54.6113968  49.9436331
  87.2682285  54.6547174  48.8005924  85.4409313  54.1977739  47.9328012
  84.4993401  53.8300371  48.3405733  85.4164696  55.2141809  47.5398350
  85.8071232  53.5715961  47.1192265  88.2446861  51.4745045  51.4018345
  87.8692913  51.6233683  52.5510979  88.6850071  50.2729273  50.9967947
  88.9278889  50.2035666  50.0188875  89.0599251  49.1706324  51.8500614
  88.1327438  48.8880920  52.3486567  89.5341969  47.9756165  51.1139154
  90.5403233  48.1669998  50.7408428  89.5955563  47.2420216  51.9177628
  88.6485004  47.5069761  49.9648428  87.5992393  47.5224018  50.2596426
  88.7541294  48.2270765  49.1534185  88.8901806  45.9321356  49.1486645
  88.0678463  44.7884512  50.2941275  88.8278961  44.4572020  51.0017300
  87.3071384  45.3385735  50.8480120  87.6230240  43.9958954  49.6923923
  89.9969864  49.6240759  53.0213547  89.6594715  49.3184710  54.1849756
  91.1114216  50.3237391  52.6913548  91.2685394  50.5219746  51.7135429
  92.1543884  50.5819654  53.6748552  92.3660374  49.7294760  54.3202734
  93.4906197  50.8804607  52.8685522  93.3053398  51.7905855  52.2980738
  94.2754841  51.1569834  53.5725594  93.8200092  49.9434090  51.7557764
  93.6283875  48.7171793  51.7830372  94.5394516  50.4424667  50.7541990
  94.9198818  49.8414707  50.0371408  94.8848915  51.3823938  50.8857441
  91.6644287  51.7409706  54.5974731  91.8394089  51.7562866  55.7909536
  90.8912849  52.7504110  53.9947081  90.9120178  52.8707933  52.9921246
  90.2771378  53.8032627  54.8398113  91.1007118  54.2787027  55.3725243
  89.6258926  54.8985815  53.9146471  90.4133129  55.3357649  53.3006907
  88.8180733  54.4405842  53.3438873  88.8517284  56.0247374  54.7556257
  87.9750347  55.5247116  55.1672983  89.4990540  56.3682842  55.5625057
  88.5558891  57.2373104  53.7874603  89.2710400  57.4635887  52.9965973
  87.6804256  56.9599247  53.2003307  88.2756710  58.5375643  54.6005344
  87.6513195  58.4327793  55.4878378  89.2556477  58.8011980  54.9983454
  87.7051449  59.6929741  53.9048243  87.5577736  60.5038309  54.4886827
  88.3733082  59.9434519  53.1900358  86.8141174  59.4386148  53.5029888
  89.3040180  53.3775234  55.8641768  89.6017647  53.6651182  57.0612431
  88.1409264  52.7614689  55.5576277  88.0177689  52.2323608  54.7061729
  87.0182419  52.5041771  56.4858150  86.8223858  53.4393501  57.0103979
  85.7341957  52.2227049  55.7584620  84.9148369  51.9899559  56.4386034
  85.5162621  53.0716467  55.1104641  85.9188843  50.6858158  54.7520542
  86.7354488  51.1633539  53.8086081  87.2842312  51.3701296  57.5139380
  88.1426430  50.5336142  57.1859837  86.4819241  51.2429619  58.5682535
  86.0219193  52.1244335  58.7457466  86.4661789  50.0764704  59.5310402
  86.8427944  49.1536665  59.0897894  87.3463821  50.3773403  60.8159828
  87.6248550  49.4049025  61.2220907  88.6286449  51.1265421  60.4910469
  89.2870998  50.9410858  61.3396549  89.1259766  50.7843542  59.5834827
  88.4545422  52.1920013  60.3407669  86.6478157  51.0829210  61.8026018
  86.8607998  52.0104170  61.6761494  85.0360966  49.7800350  59.8983002
  84.7281361  48.6060143  60.1006603  84.0896320  50.7593441  59.7208357
  84.3903351  51.6592026  59.3745184  82.6328850  50.5984068  59.9693441
  82.5811481  49.5250368  60.1518250  82.2620201  51.3082600  61.2576246
  82.6620674  52.3220825  61.2727547  81.1839008  51.3450575  61.4138699
  82.9275227  50.7085037  62.3986149  82.5531197  51.0808039  63.2003736
  81.8657970  51.0312319  58.7534428  82.3564339  51.6239691  57.8190899
  80.5673885  50.8581352  58.8309336  80.2565098  50.5012894  59.7231865
  79.4938564  51.4085245  58.0348492  79.8634338  52.2747469  57.4860573
  78.9407206  50.3525829  57.0470190  78.5242176  49.5018053  57.5862837
  78.1364918  50.8274794  56.4850712  79.9853849  49.8091841  56.0135603
  80.6998920  50.5960751  55.7719564  80.6516361  48.5515451  56.4585686
  80.8727074  48.6709690  57.5192118  80.1519585  47.5903463  56.3380480
  81.6240692  48.5040617  55.9684467  79.1533518  49.5193958  54.7638226
  78.2701063  48.9454556  55.0441313  78.8466120  50.4323101  54.2533350
  79.7247267  48.8512564  54.1194439  78.2498217  51.9003963  58.7959337
  77.9363680  51.5218401  59.9598598  77.5969458  52.9117584  58.2711935
  77.9630756  53.2056093  57.3769331  76.7643642  53.8331509  59.0850925
  76.4280272  53.3458757  60.0002623  77.7137661  55.0260305  59.2829275
  78.5719013  54.6590567  59.8459864  78.1045437  55.4295588  58.3488226
  76.9882679  56.4241552  60.1436996  76.0896778  56.7575312  59.2129517
  75.6380939  54.2824125  58.1279755  75.7973242  54.3185902  56.8987513
  74.4890547  54.5459604  58.6995840  74.3773222  54.4053411  59.6934843
  73.5183096  55.4007912  58.0521441  72.9613924  54.7891045  57.3423576
  72.4482250  55.7395315  59.1530895  72.8965521  56.3105726  59.9661207
  72.0530128  54.8487234  59.6413279  71.1821890  56.7734766  58.2993984
  74.0995693  56.7261362  57.3327971  74.7674084  57.5566530  58.0125141
  73.8801146  56.8898439  56.0266495  73.4456968  56.0549784  55.6600666
  74.3563747  57.9507208  55.1505041  75.3864765  58.2641411  55.3201103
  74.2332935  57.4203968  53.7199306  74.7950554  56.4874506  53.6737394
  73.1716919  57.2022581  53.6036110  74.7415972  58.4237814  52.6195478
  74.1834211  59.3433237  52.7955961  75.7929230  58.6979103  52.7070999
  74.4676447  57.9767179  51.1683130  73.3862209  57.9028893  51.0535336
  74.7898483  58.7968540  50.5267048  75.3257561  56.7161894  50.7955551
  76.3711643  57.0016098  50.9128428  75.0020552  55.8569574  51.3829517
  75.1885128  56.3438463  49.3728256  74.2758083  55.9497786  49.1945601
  75.2807856  57.1242332  48.7383318  75.8888912  55.6774616  49.0804195
  73.5454845  59.2136335  55.3837681  74.0632486  60.3304243  55.3713226
  72.2216320  59.0008688  55.6445312  71.9374990  58.0361319  55.7375288
  71.2593460  60.0895071  55.8366203  71.2551832  60.6734896  54.9162674
  69.8049355  59.5762730  55.6981468  69.6794844  59.0214252  54.7683573
  69.6510172  58.8916206  56.5322113  68.7041521  60.5639696  55.9695387
  68.6372662  60.9059858  57.0023251  69.0607309  61.4362478  55.4217386
  67.2495079  60.0591707  55.5070972  67.0522690  59.3691635  54.5632362
  66.2929106  60.2385998  56.3495684  65.4277134  59.7259665  56.2560606
  66.4166594  60.7826138  57.1914959  71.5293026  60.8976460  57.1336079
  71.6407108  62.0763302  57.0395565  71.7281818  60.3421116  58.3132982
  71.5707159  59.3492365  58.4107971  72.3918104  61.0912132  59.4023466
  72.0499802  62.1132708  59.2391109  71.8112850  60.6343079  60.7574701
  70.7437134  60.8541584  60.7649183  72.2786140  61.2838602  61.4975977
  72.0857668  58.9245081  61.1631727  73.9484167  61.1929464  59.3108320
  74.4487429  62.3193359  59.4684982  74.7086763  60.1049948  59.2354631
  74.1873932  59.2520475  59.0910625  76.1176348  59.9161100  59.5567656
  76.3373804  58.8740063  59.3247509  77.0732403  60.7824659  58.6074209
  77.0085907  61.8300390  58.9015436  78.0465555  60.4090548  58.9257288
  76.8424559  60.7320786  57.1248913  76.5552521  59.6874714  57.0048237
  76.0287285  61.4295435  56.9261742  78.1290531  61.1305809  56.3213730
  79.2595577  60.7890224  56.7065907  78.0559015  61.8271255  55.1649666
  78.9252663  61.9263601  54.6605206  77.1459103  62.0945692  54.8178530
  76.3737011  60.0424480  61.0559177  77.3401165  60.6653214  61.4762974
  75.3570652  59.4993305  61.8298531  74.5591736  59.1601610  61.3117504
  75.3832483  59.5532036  63.2706833  76.3727951  59.8303556  63.6341333
  74.3436956  60.6028700  63.7057590  73.3213758  60.3795910  63.4006262
  74.3479443  60.4967880  64.7905731  74.6807957  61.9793606  63.2401133
  75.7578325  62.1365786  63.2982063  74.5083904  62.1457005  62.1767616
  73.9588356  62.8863239  64.1952419  74.7043800  63.3551216  65.1135921
  72.7768517  63.2235575  63.9580774  75.1571989  58.1428337  63.7700653
  75.8589983  57.5953531  64.6190357  74.2783213  57.4048328  63.0753326
  73.6463261  57.8203821  62.4060011  74.0677595  55.9607267  63.4196329
  74.2513752  55.8381176  64.4870377  72.6353312  55.5554152  63.0775595
  72.3902607  55.7360125  62.0309305  72.2355986  54.1448164  63.4921408
  72.3243761  54.0442514  64.5738554  71.2906599  53.9782667  62.9749823
  72.9565001  53.4355450  63.0855179  71.7534876  56.3815832  63.8180876
  71.1005068  56.6256762  63.1580639  75.0262880  55.0523758  62.6779366
  74.9102592  54.6770477  61.4700317  76.0000372  54.5491505  63.4738731
  75.9865141  54.9103498  64.4169807  76.8996811  53.3648443  63.1699657
  77.2371769  53.5219288  62.1455050  78.0588245  53.3757496  64.1872406
  78.5694838  54.3241215  64.0201378  77.5469637  53.2417345  65.1401997
  79.0270662  52.2095537  63.9783335  78.5201883  51.2782478  64.2310143
  79.2317438  52.1383715  62.9100895  80.2443981  52.1185637  64.8728657
  81.3951492  52.1559048  64.3519926  80.1404572  52.0475817  66.1331272
  76.0547161  52.1003199  63.2410145  75.1481438  52.1066046  63.9904070
  76.2002325  51.2074137  62.2367525  77.0336342  51.2663031  61.6692352
  75.3021574  50.0556898  62.0495939  74.5082283  50.0971365  62.7952909
  74.6808958  50.0862837  60.6373835  75.5859566  50.0405407  60.0316858
  73.7681818  48.8284683  60.4764652  72.9376984  48.9235210  61.1760092
  73.4866238  48.8008070  59.4238138  74.3829727  47.9631805  60.7242823
  73.9175797  51.4130402  60.3067303  73.0467081  51.5349627  60.9507942
  74.5522594  52.2708988  60.5289030  73.5472488  51.5137863  58.8056374
  74.3866253  51.2599802  58.1582355  72.7128220  50.8506250  58.5774994
  73.1795788  52.4814749  58.4643173  76.1571598  48.8029671  62.2729111
  75.7283211  47.8879213  62.9818726  77.3980474  48.7381029  61.7223120
  77.7422953  49.4763565  61.1251688  78.2738066  47.5549793  61.8837118
  78.2151413  47.3503065  62.9527140  77.5757170  46.3727760  61.0924387
  76.5095329  46.5023899  61.2783146  77.7994776  46.5286732  59.5465136
  78.2596254  47.4863052  59.3029928  78.4595251  45.6877136  59.3338490
  76.8584156  46.4361143  59.0043545  78.0316067  45.0947618  61.4740276
  77.3226213  44.4699478  61.3050747  79.7667551  47.6634169  61.5064764
  80.1142788  48.6485767  60.8662605  80.5621815  46.7358828  61.9799089
  80.1985073  45.8972073  62.4094057  82.0000267  46.7891121  61.5011787
  82.3637199  47.8165627  61.4877605  82.9304886  46.1101389  62.4770212
  82.9331112  46.7261076  63.3762836  82.7726173  44.5750189  62.7147198
  83.5289669  44.2756939  63.4402800  81.7951775  44.2364550  63.0583429
  82.8949261  44.0846729  61.7489576  84.2529869  46.2845802  61.9598532
  84.5864487  47.1698618  62.1231985  82.0508575  46.1128712  60.1794910
  81.3539028  45.1277065  59.9613619  82.8934669  46.6441488  59.2782688
  83.6832047  47.2109318  59.5524645  83.0146694  46.0841942  57.8941774
  82.0190525  46.2800217  57.4960566  84.1346645  46.9244862  57.2282934
  83.9400864  46.7424726  56.1713600  83.9299965  47.9577541  57.5085974
  85.5657387  46.4805365  57.5616312  85.6686020  46.5566730  58.6440897
  85.6810474  45.4610682  57.1935415  86.5095139  47.4619961  56.8932104
  86.2091827  47.4912214  55.8458042  86.3717270  48.4591198  57.3113680
  87.9356098  46.9569778  57.1076155  88.1128025  46.6627407  58.1420851
  87.9738998  46.0748339  56.4685154  89.0840244  47.8184986  56.6845369
  89.1163445  47.8525066  55.6756210  88.9966011  48.7122154  57.1468449
  89.8833561  47.4538660  57.1827507  83.2769871  44.6194267  57.6308346
  82.8275490  44.0776968  56.6011715  83.8895798  44.0175867  58.6459827
  84.1192627  44.5167971  59.4934082  84.0608883  42.5536919  58.8032198
  84.4557190  42.2115660  57.8465796  85.0493717  42.3889160  59.9278450
  84.4321442  42.5322056  60.8147430  85.3810120  41.3657522  60.1046515
  86.2731647  43.2671928  59.8752403  86.2997818  44.4563103  60.2818775
  87.3065090  42.8989458  59.1684246  88.1035519  43.5187912  59.1435242
  87.3359203  42.0098495  58.6901522  82.7596474  41.7707682  59.0151405
  82.8199291  40.5252886  59.1220188  81.5715504  42.3928404  59.0859652
  81.6237354  43.3997440  59.1453409  80.2342892  41.7078781  59.1099787
  80.2672958  40.6446743  59.3479300  79.2978382  42.2844362  60.1843452
  78.8781500  43.2055664  59.7800112  78.4398413  41.6142273  60.2368164
  79.8791170  42.5476789  61.5897703  80.5574894  43.3814859  61.4089823
  79.1395617  43.0557680  62.2086382  80.5167103  41.4197111  62.3185158
  81.2322617  41.5834808  63.3093214  80.2597618  40.2509022  61.9551420
  79.5667601  41.7153263  57.7229548  78.5179138  41.1130333  57.5506973
  80.2077770  42.2063255  56.6882849  81.0526562  42.6994276  56.9395447
  79.9139071  41.9159031  55.2815294  78.8339567  41.9834709  55.1502228
  80.5795956  43.0028105  54.4006395  81.6349983  43.1117964  54.6503162
  80.6055832  42.6687574  52.8760862  79.6067524  42.8192091  52.4664545
  81.3514137  43.3009481  52.3942327  80.9172249  41.6309357  52.7581835
  79.9492502  44.3615723  54.5993900  78.9727116  44.4017315  54.1168261
  79.8220921  44.5473242  55.6658936  80.8207512  45.6133080  54.1728020
  81.7058468  45.7595348  54.7919321  81.0785389  45.4623842  53.1245327
  80.1430798  46.4667130  54.1492367  80.2331066  40.4485703  54.9679279
  81.3012600  39.9515891  55.3015900  79.2298031  39.6720791  54.5029593
  78.4060287  40.1582003  54.1786432  79.3574953  38.2545209  54.2672634
  80.4199028  38.1113386  54.0700865  79.0588140  37.5083733  55.5448198
  79.7144938  36.6386843  55.5875635  79.3397188  38.1839919  56.3527346
  77.6030874  37.0084453  55.5458164  76.5421534  37.8943276  55.8677006
  76.7752504  38.9474416  55.9226418  75.2230978  37.4185252  55.8633614
  74.3711710  38.0783272  55.9360695  74.9515152  35.9772682  55.8059025
  73.9366150  35.6143522  55.7376099  76.0514450  35.1128721  55.6384182
  75.8553410  34.0623045  55.4826927  77.3596859  35.6517959  55.4793024
  78.1850433  34.9612713  55.3878641  78.7013626  37.6555610  53.0333233
  77.5167894  37.8825092  52.7124023  79.4545698  36.7703676  52.3352575
  80.4121590  36.5954971  52.6045942  79.0682173  36.1012626  51.1008358
  78.5311747  36.7940354  50.4529572  80.3297424  35.6846333  50.3026342
  80.9601212  36.5733480  50.2724934  80.8540154  34.8720288  50.8055353
  79.9219847  35.3930712  48.9042902  79.2867661  34.6795201  48.8097191
  78.0562353  34.9820232  51.2552023  78.3819246  33.8244939  51.1863804
  76.7655468  35.3551817  51.5298605  76.6247177  36.3421440  51.6916418
  75.7473707  34.2755580  51.6276073  75.9941769  33.6385298  52.4769545
  74.4176865  34.9939418  51.9878483  74.5056581  35.4522443  52.9728985
  74.1146803  35.6904507  51.2060785  73.1574488  34.0384412  52.1188307
  73.1082582  33.4784937  51.1849451  73.1893301  32.9401422  53.1854725
  73.3797264  33.2878304  54.2008352  72.2093487  32.4631143  53.1719160
  73.9802504  32.2394085  52.9180384  72.0374441  34.9593139  52.2622585
  71.9795513  35.4036522  53.2558966  71.9719982  35.6915092  51.4574575
  71.1404705  34.3419361  52.2134447  75.5740881  33.3504605  50.4031420
  75.4520988  32.1523929  50.5180359  75.4956579  33.9572716  49.2182112
  75.6321621  34.9550748  49.2947292  75.7064962  33.1868649  47.9109859
  75.1173067  32.2702765  47.9396200  75.1870060  33.9991117  46.7872953
  74.1419458  34.2460513  46.9742918  75.7546568  34.9276328  46.8483448
  75.3023434  33.3544731  45.5318642  74.9038124  33.8639092  44.8224545
  77.1801043  32.9072785  47.6207161  78.0273867  33.6308193  48.1086159
  77.5482607  31.8933272  46.8273640  76.7774725  31.3149929  46.5248346
  78.9191008  31.6976452  46.3275194  79.5193148  31.6055131  47.2327042
  78.8804960  30.4005122  45.4936504  78.8827467  29.5538068  46.1800814
  77.9497147  30.3435564  44.9292898  80.1172543  30.2015328  44.6710920
  80.1443291  31.0271859  43.9599895  81.0332775  30.2818203  45.2563715
  80.2156734  28.9541841  43.8429260  80.3741169  28.1348038  44.5440769
  79.2584991  28.7351584  43.3696938  81.4071941  29.0054750  42.9417229
  82.2898674  28.8168001  43.3949327  81.5933895  29.2128038  41.6131353
  82.6886559  28.9110756  40.9762192  83.5206604  28.5716820  41.4373922
  82.7258205  29.0984511  39.9844480  80.6375504  29.6983290  40.9005928
  79.7795963  30.0122070  41.3312864  80.7915974  29.9826860  39.9437690
  79.3912697  32.8650451  45.4342794  80.5964375  33.1205511  45.4199028
  78.5127831  33.3771825  44.6998787  77.5870752  33.0032945  44.8527765
  78.8649416  34.3657231  43.6545134  79.7100449  34.0715671  43.0321264
  77.7309227  34.5270228  42.6171827  76.8977070  34.9948382  43.1415987
  78.1052780  35.0929689  41.7641544  77.2224522  33.1291032  42.2082138
  76.8195438  32.6551986  43.1033039  76.2848949  33.1980681  41.6565561
  78.1534147  32.2023010  41.4170456  79.1543245  32.6818871  40.8225250
  78.0017328  30.9765029  41.4942741  79.2439985  35.7936168  44.1259766
  79.7530651  36.5161204  43.3164263  79.0290880  36.0741591  45.3952456
  78.6622047  35.3851438  46.0361433  79.4835711  37.1890473  46.1560011
  80.4671192  37.0627761  46.6085291  79.6780825  38.0445004  45.5091095
  78.3713436  37.7357936  47.1207047  77.2640610  37.2392607  47.1385765
  78.6140966  38.8560748  47.8116369  79.9259567  39.4149828  47.9949379
  80.1807117  39.9872637  47.1029186  80.6855106  38.7465048  48.4002924
  79.8264360  40.5116510  49.0334702  79.5594072  41.4469242  48.5414791
  80.7462502  40.6510639  49.6014595  78.7105560  39.8847580  49.8606396
  78.2525206  40.5820465  50.5621386  79.1045094  39.0536237  50.4455519
  77.7160883  39.3467593  48.8548994  77.1734190  38.5207677  49.3146229
  76.7086411  40.4249191  48.3381796  76.1613321  41.1676073  49.1657352
  76.6188002  40.6660938  47.0234537  77.1374226  40.0824690  46.3827324
  75.6837130  41.7380381  46.4895439  74.8433399  41.7034674  47.1828556
  76.4343882  43.1637335  46.6105509  76.9931746  43.2630777  47.5411415
  77.1563482  43.1880522  45.7942867  75.4881716  44.4231462  46.3628054
  75.3126955  44.6164274  45.3045273  74.5336533  44.2833567  46.8702030
  76.1882925  46.0033417  46.8314266  77.3732805  46.2525415  45.4853582
  76.9389868  45.9915018  44.5202923  77.7197075  47.2858143  45.5062008
  78.2648611  45.6280279  45.5416536  75.0526810  41.4508057  45.1398277
  75.6966543  40.9734011  44.2477751  73.7971115  41.9139814  44.9644566
  73.3563566  42.4420500  45.7040358  72.8341293  41.5485191  43.9516163
  73.3820915  41.6950369  43.0208254  72.4763584  40.0361967  44.1435528
  71.6211939  39.6543097  43.5859203  73.2404947  39.4484711  43.6348486
  72.4008656  39.9133706  45.2239752  71.6841888  42.6109123  43.9285374
  71.5547323  43.4836102  44.7904301  71.0004234  42.6635218  42.8144741
  71.1962414  41.9683075  42.1084738  69.9582195  43.5940742  42.4845457
  69.8827553  44.2671680  43.3385658  70.2609015  44.3700743  41.1709070
  69.3482351  44.8528624  40.8215380  71.0985565  45.0444794  41.3487196
  70.5138397  43.6399460  40.4021168  68.6178923  42.9027510  42.3835516
  68.5301113  41.9261026  41.6138983  67.6173258  43.3402157  43.1644249
  67.7313900  44.1665125  43.7339211  66.3616610  42.6558685  43.4689760
  66.3358974  41.7180204  42.9141092  66.4675093  42.4124336  45.0015688
  66.7311287  43.3323526  45.5234432  65.5000114  42.1695232  45.4409313
  67.4980450  41.4312649  45.4655457  67.0629358  40.0608826  45.6678104
  66.0662079  39.6732044  45.5173588  68.0726671  39.1143751  46.0573053
  67.7948236  38.0742645  46.1431837  69.3252707  39.5095658  46.5088701
  70.1485825  38.5747385  47.0371532  69.6613884  38.1078744  47.7200031
  69.6708488  40.8720541  46.3955259  70.6919575  41.1955452  46.5336800
  68.7729740  41.8490219  45.8484316  69.1056728  42.8566885  45.6476355
  65.0631523  43.4367800  43.2733202  65.0997734  44.6690035  43.5129929
  63.9444160  42.7785206  43.0160522  64.0001488  41.7745972  42.9204750
  62.6304913  43.4197760  42.5680780  62.7359343  44.4964981  42.7009439
  62.3707724  43.2675314  41.0770130  63.3031559  43.3924627  40.5264235
  61.7702484  41.9730949  40.5943775  61.8911505  41.8112659  39.5232582
  62.3559475  41.1156797  40.9258938  60.7111454  41.8482780  40.8198309
  61.4357281  44.4146442  40.6141472  60.4246902  44.2796946  40.9984493
  61.8497419  45.3739786  40.9245872  61.3897991  44.5047092  39.5288467
  61.4911032  42.9744101  43.4258890  61.3968754  41.8025780  43.8064241
  60.6097889  43.9330435  43.7681341  60.8012104  44.8894548  43.5059738
  59.5064259  43.7233305  44.7869015  59.7717094  42.8369856  45.3632021
  59.3999052  44.9532223  45.7360792  59.1570759  44.5171690  46.7050934
  60.4279327  45.2998877  45.8413839  58.5087538  46.1601591  45.3679371
  58.0355883  46.2856913  44.2471647  58.0698204  46.8521500  46.3214731
  57.3011494  47.4911165  46.1766720  58.4506893  46.6454506  47.2337866
  58.1740808  43.3704996  44.0453625  58.1221008  43.5839462  42.8209114
  57.0492649  43.0025911  44.7206211  56.8171978  42.8626537  46.1300135
  57.0874262  43.7118196  46.7577028  57.4466228  42.0433474  46.4773750
  55.3339720  42.5206852  46.3556719  54.7614574  43.4430742  46.4532900
  55.2434635  41.7450523  47.1161222  55.0363398  41.7927885  45.0330973
  53.9843225  41.7437124  44.7521257  55.3151894  40.7395077  45.0024271
  55.9283066  42.5131464  43.9724970  56.1443663  41.7648840  43.2099104
  55.1806307  43.6578417  43.2219982  54.1761208  43.4297657  42.5493908
  55.7336855  44.8781109  43.1859493  56.6736221  44.8825741  43.5555458
  55.2512503  46.0798120  42.5135803  54.3234968  45.7780647  42.0274496
  54.8063087  47.1563482  43.5364056  55.6736946  47.3411655  44.1701174
  54.5240307  48.0984640  43.0664730  53.6241293  46.7181396  44.4298077
  52.3032236  46.4970636  44.0955830  51.6665220  46.1184835  45.2086020
  50.6268883  45.8541489  45.3338861  52.5022316  46.0022974  46.2157679
  52.2834921  45.6836843  47.1489000  53.7624073  46.3413239  45.7480192
  54.6472645  46.3704491  46.3665485  56.2397766  46.6681719  41.4503860
  55.9865427  47.6760912  40.7963991  57.3050165  45.9640455  41.2180281
  57.2456312  45.0476503  41.6384983  58.4305859  46.2161636  40.2644110
  58.8887215  45.2662277  39.9890232  58.0464268  46.7022181  39.3675995
  59.4780636  47.2039747  40.7689810  60.1320601  47.7699804  39.8964238
  59.5227098  47.5739765  42.0241880  58.8283968  47.1957493  42.6526546
  60.5298901  48.5639524  42.5666761  60.7858610  49.2592669  41.7672300
  59.8512030  49.3673706  43.6749268  58.7799025  49.3847942  43.4746647
  60.0043583  48.9032221  44.6492004  60.2885962  50.8520937  43.7835503
  61.4295959  51.2347412  44.4920254  62.0323467  50.4819536  44.9782276
  61.8160248  52.6624870  44.6098757  62.6175117  52.9424524  45.2774429
  61.0804844  53.6444759  44.0075684  61.3953781  55.0050926  44.1557217
  61.4850235  55.3520679  43.2651186  60.0271702  53.2298613  43.1714869
  59.4567776  53.9891529  42.6571608  59.5913792  51.8888330  43.0909538
  58.7476301  51.6055870  42.4791813  61.8576145  47.8211927  42.8883839
  61.8689489  46.7308760  43.4208536  63.0467367  48.3456945  42.5579309
  63.0960321  49.2355108  42.0826435  64.2651844  47.5028419  42.2522926
  64.0647268  46.4824629  42.5790215  64.7006941  47.6235723  40.7934237
  65.3686476  48.4827995  40.7328510  65.7538223  46.5068197  40.4502821
  65.2274323  45.5534601  40.4042435  66.1436749  46.7343330  39.4581318
  66.4793205  46.4232826  41.2594604  63.6530924  47.4796486  39.6631503
  64.1631365  47.5605249  38.7032485  63.3291149  46.4389038  39.6604943
  62.8584862  48.2256126  39.6786165  65.3868151  48.1207228  43.1122065
  65.5545521  49.3748808  43.1286335  66.1451960  47.2716427  43.8026190
  65.9897423  46.2816334  43.6768389  66.9680071  47.6952457  44.9071169
  67.1008968  48.7770844  44.9151373  66.1645222  47.4649334  46.1858559
  65.9301138  46.4046431  46.2803984  66.7588091  47.7358341  47.0585155
  64.8672819  48.2032585  46.3654470  64.6704912  49.5065403  46.8357897
  63.3654118  49.6948957  47.0513105  62.9251862  50.6338549  47.3529005
  62.6595926  48.5922098  46.7128849  61.6524506  48.5830688  46.7882586
  63.6116791  47.6677990  46.2722301  63.4705496  46.6554880  45.9233570
  68.2329988  46.8575621  44.9322176  68.1323910  45.6596994  44.9852133
  69.3687248  47.5058603  45.1084948  69.2779493  48.5112858  45.0770569
  70.6346035  46.7957449  45.3538513  70.6018591  45.8075809  44.8949909
  71.7347527  47.6266813  44.6810102  71.5484762  47.5801992  43.6080503
  71.6717911  48.6195898  45.1262856  73.1295252  47.0031118  44.9472475
  73.4239531  47.2954273  45.9552002  73.2374954  45.9244442  44.8336172
  74.0958595  47.7530527  44.0661335  74.8940659  47.0641136  43.3904457
  74.0558481  48.9925003  44.0899467  70.9361935  46.5751839  46.8733358
  70.8522177  47.4530649  47.7329397  71.2002802  45.3023672  47.1658278
  71.1835814  44.6961212  46.3581800  71.3832235  44.7345543  48.5386992
  71.2170315  45.5451536  49.2482185  70.1599026  43.8036203  48.7313843
  70.0438452  43.0586290  47.9442167  70.2446127  42.9345036  50.0522566
  71.1343956  42.3079395  49.9906015  70.4304886  43.5504246  50.9321356
  69.2900944  42.4101782  50.0978708  68.8934994  44.7297478  48.5713482
  69.1005850  45.6172037  49.1693783  68.8170862  44.9135208  47.4996710
  67.5372028  44.0285349  49.0216398  66.7341471  44.6981192  48.7136459
  67.3926115  43.0890894  48.4881306  67.4050665  43.8991690  50.0958395
  72.6726341  44.1269970  48.8580751  72.9448748  43.1780148  48.1977081
  73.4353065  44.7135639  49.8063803  73.0503368  45.5274391  50.2640963
  74.6658134  44.2627239  50.3801012  75.2255774  43.7783194  49.5800257
  75.4571772  45.4965067  50.8538151  75.7075500  46.2361622  50.0933409
  74.8193836  45.9418583  51.6173506  76.8397474  45.1240635  51.4775801
  76.5936947  44.3978357  52.2522736  77.7284288  44.4547319  50.4659128
  78.1771040  45.1649284  49.7713566  78.5984516  44.0333128  50.9694767
  77.2896528  43.6441088  49.8841381  77.4148703  46.3149786  52.1627283
  77.5264168  47.1080065  51.4232922  76.7553616  46.6125488  52.9779577
  78.4234571  46.1850214  52.5550985  74.2471027  43.4170485  51.6372108
  73.2646418  43.7513399  52.2762108  74.9286127  42.3225451  51.8695450
  75.7467556  42.1436644  51.3049746  74.5024109  41.1286449  52.6779938
  73.4468222  41.2165499  52.9351139  74.7756433  39.8172855  51.8693447
  75.8452463  39.7220659  51.6823101  74.3705940  38.5340858  52.5804329
  74.9336958  37.8237343  51.9751120  74.6433067  38.5780382  53.6348534
  73.2873297  38.4147692  52.5604486  74.0038919  39.8629069  50.6862307
  74.5835590  40.4458237  50.1904535  75.4006433  41.0686731  53.9434242
  76.6142321  40.9165144  53.7590218  74.7867489  41.3487720  55.1363516
  73.7872362  41.4935923  55.1467228  75.4746389  41.7668200  56.3615322
  76.5358591  41.6570234  56.1382389  75.0849867  43.1767273  56.8054581
  74.0108728  43.3444691  56.8844986  75.4487276  43.3951807  58.3322573
  74.8040485  42.8552437  59.0257645  76.5269041  43.3498764  58.4858418
  75.3027773  44.4465733  58.5799885  75.7694101  44.2642212  55.9310198
  75.5857038  45.2289104  56.4040184  76.8544579  44.1609573  55.9208155
  75.3325891  44.3105030  54.9334478  75.0334978  40.7423353  57.4030161
  73.7907124  40.6299496  57.6152420  75.9844971  40.1311541  58.0749607
  76.9582605  40.3761292  57.9659891  75.6590891  39.0246439  58.9339352
  75.0869322  38.2934237  58.3629227  76.9723177  38.3783603  59.4132519
  77.4273729  38.0383062  58.4829903  77.6967382  39.1084433  59.7742176
  76.9164944  37.1049142  60.2320242  78.0199909  36.7990851  61.0494661
  78.7882996  37.5578260  61.0698509  78.1138849  35.6308985  61.7171907
  78.9728546  35.3554654  62.3110867  77.0611811  34.7183752  61.5685654
  77.2474766  33.5490799  62.2788525  77.0865202  32.7500010  61.7717314
  76.0299683  34.9272275  60.6825066  75.2506495  34.1894126  60.5612850
  75.9598684  36.1102057  60.0435352  75.1134777  36.2032080  59.3791723
  74.9853706  39.4953537  60.2268791  74.3037605  38.7481403  60.9181881
  75.3123188  40.7562113  60.6164932  75.8847809  41.2704468  59.9623108
  75.1069498  41.3695097  61.9691849  74.1554213  41.0891771  62.4209690
  76.2880564  40.8682632  62.8596687  77.2221422  41.1413336  62.3687315
  76.1913824  41.3647223  63.8252211  76.4895344  39.3191791  63.1575489
  75.5274010  38.8798857  63.4210205  76.8111229  38.8182330  62.2444582
  77.5418901  39.1416144  64.3240976  78.4993887  39.5764160  64.0373230
  77.1693945  39.6233249  65.2281475  77.8297377  37.6885605  64.5823526
  77.0143890  37.3626661  65.2281857  77.7538157  37.1143317  63.6589861
  79.1900253  37.5821543  65.2686787  79.3824482  36.6154361  65.4889774
  79.9643946  37.8730154  64.6891546  79.2320108  38.1447148  66.1064482
  75.0255632  42.8824091  61.9620037  75.8720493  43.5943031  61.3985062
  73.9910126  43.3908129  62.6411104  73.3731699  42.8176785  63.1977844
  73.8299227  44.8653412  62.7026701  74.7733021  45.4062033  62.6277971
  72.9495382  45.2095652  61.4261293  71.9351101  44.8459673  61.5899658
  72.9464006  46.2995577  61.4287186  73.4082508  44.8254442  60.5150127
  73.1586361  45.2715778  64.0520620  72.4593735  44.4597578  64.6978998
  73.4276247  46.5112972  64.5220089  73.9577770  47.1331024  63.9283800
  72.6810312  47.1536684  65.6399250  71.6768312  46.7338800  65.6987333
  73.4580994  46.9703341  66.9838190  73.8851690  45.9677553  67.0072031
  74.3456697  47.5961256  67.0771265  72.3653603  47.2266388  68.3109140
  71.8607569  46.0011816  68.1420231  72.4030590  48.6733294  65.3698349
  73.1233168  49.2893124  64.5462894  71.4302397  49.2260933  66.1262512
  70.9785604  48.6567783  66.8276596  71.0188103  50.6694174  66.0676146
  70.4892874  50.9355736  66.9824219  72.2889996  51.5488911  66.1034441
  72.7385902  51.7965555  65.1418638  71.9106722  52.5337458  66.3773441
  73.3256721  51.1009693  67.1581984  73.0888987  50.8567667  68.3140612
  74.4797182  50.7127857  66.7517996  75.2306175  50.4332399  67.3667002
  74.6804714  50.8281660  65.7686996  70.0759888  50.8459377  64.8928738
  69.9731350  51.9528437  64.3704033  69.4418144  49.7130060  64.4646072
  69.6574306  48.8920736  65.0120354  68.3545780  49.6612215  63.5415936
  68.2281256  50.6745672  63.1604815  68.5922003  48.6862040  62.3585367
  68.6069584  47.6688671  62.7495670  67.7790260  48.7909508  61.6402864
  69.8669052  48.8913393  61.5448570  70.7989168  48.8305569  62.1067810
  69.9502945  47.7979612  60.4867983  69.7683144  46.8247271  60.9426403
  69.1698790  48.1217384  59.7981548  70.9687042  47.8744650  60.1058912
  69.9895716  50.2386379  60.8480978  69.1100168  50.4686832  60.2468014
  70.0950766  50.9767818  61.6431522  70.8785248  50.2943468  60.2198029
  67.0976734  49.1899300  64.2442942  67.0823812  48.1097174  64.8086739
  66.0170174  50.0010157  64.0930462  66.1824417  50.8774090  63.6190462
  64.6267080  49.7177696  64.4459248  64.6490192  48.9227819  65.1913118
  64.0753365  51.0470629  65.0803471  64.0837955  51.9571495  64.4805431
  63.0125046  50.8241320  65.1740885  64.7229862  51.5025711  66.4014530
  65.7264328  52.1880436  66.4663649  64.1033173  51.2003469  67.5592709
  64.4792747  51.5203667  68.4403753  63.3133411  50.5710268  67.5597429
  63.8477612  49.1933680  63.2830858  63.9235973  49.7372341  62.1656847
  63.1845284  48.0439329  63.4651566  63.1942844  47.6765251  64.4059086
  62.3752213  47.3677111  62.4789143  62.8621054  47.4740601  61.5095139
  62.2293711  45.9181786  62.8723145  61.6478062  45.8523846  63.7918520
  61.6526079  45.4431486  62.0787191  63.4758663  45.0679445  63.0962324
  63.9563227  45.4743385  63.9862394  63.1504345  43.6198092  63.4864521
  62.5719929  43.4760427  64.3990517  62.4769306  43.1547928  62.7665472
  64.0975523  43.0905104  63.5908985  64.5019388  45.1330376  61.8775368
  65.3326130  44.4653893  62.1063089  64.1022825  44.7157955  60.9532595
  64.7905636  46.1664867  61.6857815  61.0103559  47.9986238  62.4108124
  60.4733181  48.4697533  63.4475088  60.4323530  48.2402039  61.2827015
  60.9800291  47.8476095  60.5303574  59.1025019  48.9743280  61.0431767
  58.5453987  49.1879654  61.9553709  59.4060946  50.4010820  60.5235004
  60.0451088  50.8754778  61.2682867  60.1278305  50.4782915  59.1523361
  59.4764853  50.2004004  58.3237076  60.5573988  51.4648628  58.9784145
  60.9754848  49.7952127  59.0976620  58.1405210  51.3166952  60.3750944
  57.5389814  51.0130930  59.5183134  57.5813580  51.1647177  61.2983179
  58.3377743  52.8603315  60.2652168  58.3064461  53.1616306  59.2181540
  57.4936724  53.3631802  60.7371712  59.2594671  53.1144238  60.7886839
  58.1488371  48.1514788  60.1789379  58.6255121  47.4069977  59.3640995
  56.8240499  48.3719444  60.4095840  56.5733671  48.9741850  61.1806631
  55.7518291  47.5450802  59.8349857  54.7964334  48.0694437  59.8536873
  56.0257769  47.4164867  58.7878370  55.6232119  46.1033249  60.2570581
  56.4465332  45.5414295  60.9152222  54.4839621  45.4825735  60.0263977
  53.7622452  46.1373472  59.7608805  54.1841412  44.0293407  60.3126144
  54.2343235  43.8672876  61.3893318  52.7340269  43.7428522  59.8247623
  52.1221733  44.5515156  60.2245140  52.7151775  43.7446547  58.7349272
  52.1528721  42.4518919  60.3105068  52.7003717  41.5696001  59.9789810
  52.2723484  42.4487543  61.3939333  50.6552601  42.2759724  60.0523329
  50.2550888  41.3908815  60.5468798  50.1735067  43.1857872  60.4104710
  50.3187370  41.9365835  58.6562443  50.9557533  41.9848299  57.8739500
  49.1382122  41.4862204  58.2885456  48.9084959  41.1764860  57.0451403
  49.5684671  41.3781166  56.3076544  47.9976606  40.8449316  56.7613173
  48.0350780  41.4691305  59.0858316  48.1109715  42.1528816  59.8253107
  47.0737791  41.3180208  58.8153267  55.2287245  43.0785275  59.6043015
  55.4651499  43.2698917  58.3854198  55.7305479  41.9893360  60.2676582
  55.3918839  41.6041517  61.6583395  54.3281269  41.4444256  61.8344545
  55.7989216  42.3786497  62.3083973  56.2132120  40.3190994  61.8518114
  55.5434179  39.4604468  61.8048334  56.6753483  40.3344250  62.8388786
  57.2351646  40.2098274  60.6925011  57.3572540  39.1708183  60.3864574
  58.1168318  40.7334852  61.0620260  56.5554428  40.9627295  59.5992804
  57.3504448  41.4220619  59.0118408  55.7321548  40.0504160  58.7086868
  54.5610762  39.7910166  58.9457512  56.3718319  39.6264887  57.5976133
  57.3730469  39.7544861  57.5617552  55.7260132  38.9715219  56.4920044
  54.8546314  38.4117126  56.8317175  55.2547455  39.9438071  55.5233622
  54.7884512  40.8447695  55.9220409  56.1635780  40.1921558  54.9752331
  54.3092775  39.3259096  54.5269012  54.0947437  39.9694037  53.8475704
  56.8123055  37.9934025  55.8801126  57.9286337  37.7504230  56.3440180
  56.4392948  37.4698853  54.6881628  55.4887104  37.6649523  54.4080877
  57.2325611  36.4842653  53.9018393  58.2815695  36.7790461  53.9298820
  57.1133089  35.0254846  54.4416428  56.0774755  34.7140837  54.5764875
  57.9817200  33.9723969  53.8255692  59.0645075  34.0864062  53.7739944
  57.7997255  32.9715490  54.2170858  57.6048708  33.9452624  52.8031445
  57.6178455  34.9322677  55.7441568  57.4332237  35.8065057  56.0951900
  56.8490505  36.6550660  52.3426628  57.5181484  36.0457468  51.5400314
  55.8309507  37.4431515  51.9992876  55.3430557  38.0266619  52.6638031
  55.3737688  37.5559258  50.5976677  54.9897242  36.5752697  50.3167248
  54.2759371  38.6149549  50.6301737  53.4834766  38.2030392  51.2550211
  54.6116114  39.5815730  51.0057688  53.6152411  38.7952614  49.2424679
  54.2996597  39.2898488  48.5532284  53.3268785  37.8155303  48.8615894
  52.3399591  39.6524501  49.3558264  51.3803625  39.6088743  48.5366297
  52.3225164  40.4776669  50.3165865  56.5236664  38.0724931  49.6495342
  57.2008419  39.0796566  49.9323606  56.8263721  37.3115158  48.6010218
  56.4077759  36.3924623  48.6157703  57.7778769  37.7050090  47.5258589
  57.8113031  36.9117665  46.7790318  57.2264004  38.9087701  46.7670250
  56.1526299  38.8347268  46.5948677  57.4746656  39.8019862  47.3402834
  57.8513098  39.1632295  45.4293394  57.2080374  38.8948655  44.2153406
  57.9201508  39.4693375  43.2855034  57.7200031  39.4709539  42.2242117
  58.8530827  40.2269411  43.8252163  59.5522738  40.7778978  43.3480549
  58.8544941  39.9921536  45.1751232  59.5617294  40.3323460  45.9170675
  59.2753696  37.7359414  48.0434656  60.0122404  38.6572337  47.7820301
  59.6230936  36.9022799  49.0241528  59.0223598  36.1810803  49.3970966
  60.9672213  36.9713616  49.7087240  61.2236929  38.0004573  49.9603081
  61.0199213  36.0434556  50.9280968  60.2358341  36.3036585  51.6391563
  60.7791138  35.0058222  50.6969500  62.1304560  36.0397458  51.7136049
  61.9277000  35.6655169  52.5740957  62.1241331  36.6238832  48.7212706
  62.1438074  35.6270385  47.9987335  63.0531883  37.5118971  48.6963558
  62.8492165  38.3559132  49.2122364  64.3359661  37.5941753  48.0063105
  64.1951180  37.4090147  46.9414282  64.8369503  38.9892054  48.3084869
  64.9640894  39.1821218  49.3737221  65.8232880  39.1742659  47.8830624
  63.9435959  40.1156759  47.7883053  63.0042028  39.9422121  46.8136120
  62.7479076  38.9523125  46.4660215  62.4893665  41.2120438  46.4305735
  61.7484140  41.4195347  45.7763290  63.1696367  42.2158766  47.1103287
  62.9151344  43.6019182  47.1573830  62.1608639  44.0586567  46.5337896
  63.5757923  44.3535137  48.1265497  63.3560371  45.4108429  48.1138229
  64.4455719  43.6728287  48.9517879  64.9464512  44.2436314  49.7197151
  64.7329569  42.2969007  48.8827515  65.6090355  41.8325138  49.3108130
  64.0079021  41.5328407  48.0081081  65.3444624  36.5251708  48.4144974
  65.8826113  35.8360052  47.5391960  65.4228735  36.2358618  49.6657228
  64.9357557  36.7742348  50.3678465  66.3768959  35.2356100  50.1592445
  67.1303844  35.0909829  49.3850088  67.3143911  35.8883619  51.2242222
  66.7076015  36.3926196  51.9763088  67.7448273  35.0880837  51.8262148
  68.4225178  36.9267821  50.7529211  69.5819283  36.4200115  50.1374578
  69.5809460  35.3539920  49.9642372  70.5958986  37.3042965  49.7768116
  71.4765263  36.9311643  49.2751503  70.4046679  38.7015033  49.9003792
  71.1914062  39.3689203  49.5810032  69.2129993  39.2346692  50.4678535
  69.1297722  40.2971888  50.6425953  68.2090569  38.3304024  50.8960390
  67.2743082  38.7136650  51.2778187  65.7765102  33.9622784  50.6014061
  64.9588060  33.9538360  51.4961052  66.0836697  32.8402162  49.9725294
  67.1519089  32.7091026  48.9884424  68.0957031  32.7302933  49.5333290
  67.0086288  33.5291052  48.2847595  66.8447590  31.5028667  48.1460285
  67.7530384  31.0021877  47.8106928  66.2287664  31.8486500  47.3159170
  66.0241365  30.6089449  49.0503168  66.6177416  29.8689818  49.5871544
  65.3210068  30.1239324  48.3732128  65.2568674  31.6447806  49.9799156
  64.3110752  32.0048070  49.5750093  65.1074696  31.0187840  51.3936138
  66.1045599  30.6124306  51.9755840  63.8999128  30.9165168  51.9220066
  63.0530548  31.1886644  51.4435959  63.5530138  30.2968431  53.1940651
  62.5888300  29.8232031  53.0093384  64.3224001  29.5856690  53.4946918
  63.4413576  31.3243151  54.3479204  63.4658003  30.9256601  55.5126619
  63.5242367  32.6507568  54.0828419  63.6567497  32.8233671  53.0965662
  63.6478853  33.6667085  55.1617336  63.7015390  33.1759953  56.1335516
  64.8369884  34.5334768  54.9149513  64.8237514  34.8929238  53.8860083
  64.7922850  35.3987670  55.5762959  66.2535906  33.8414669  55.1663351
  66.8773746  33.1139445  54.2007256  66.3855982  32.7734995  53.3014727
  68.1279898  32.5239491  54.4402790  68.6724806  31.9386363  53.7140894
  68.7867928  32.5976396  55.6810904  69.9717045  31.9738030  55.8504820
  70.3031874  31.9449210  56.7509747  68.1905651  33.3648992  56.7040825
  68.6300039  33.3919644  57.6902676  66.9744158  34.0734768  56.3707590
  66.5208340  34.6409631  57.1699047  62.4090290  34.6566033  55.2316809
  62.0816803  35.3590822  54.2593718  61.8234205  34.8400879  56.4390135
  62.3338747  34.5385456  57.2567034  60.8103943  35.8966327  56.7548275
  60.2023745  35.9630156  55.8526087  59.9750042  35.4363275  57.9994869
  60.6924391  35.3926325  58.8189316  59.3286037  36.2527680  58.3215141
  59.3639803  34.5422697  57.8753662  61.4939928  37.2834969  57.0235491
  62.6307535  37.3919392  57.5268888  60.7934475  38.4106565  56.6804171
  59.9257517  38.3345127  56.1691332  61.3539505  39.8095727  56.5591192
  62.3419046  39.7482371  57.0155191  61.5212774  40.0587845  55.0246191
  61.9781399  41.0403919  54.8988438  62.2056532  39.3054461  54.6344757
  60.3658962  40.0328684  54.1721106  60.1997471  39.1526461  53.2089186
  60.8483982  38.3024502  53.0578518  59.1317177  39.5566559  52.4089909
  58.8519621  39.1305947  51.5370369  58.4597683  40.5429602  52.9865837
  57.2565746  41.1394644  52.6640797  56.5455055  40.6662178  52.0031595
  56.9848442  42.3837757  53.3026314  56.0255575  42.8505230  53.1343746
  57.8492832  42.9013491  54.2764711  57.5123119  43.8227367  54.7280264
  59.0415907  42.2919083  54.5559168  59.7294235  42.7527046  55.2494192
  59.3476677  41.0285330  53.9773655  60.7014751  40.9480429  57.3895645
  59.6017647  40.8424377  57.8908777  61.4104223  42.0529461  57.5298500
  62.3731899  42.0551252  57.2246122  60.8071089  43.3031988  58.0529404
  59.8736382  43.5657978  57.5551653  60.7317591  43.3150578  59.5809984
  61.6524935  43.5705328  60.1054764  59.6082163  44.2747498  59.9892139
  59.9012041  45.2684689  59.6504211  58.6655664  43.9486361  59.5497179
  59.5048714  44.2400932  61.0737467  60.4043388  42.0993090  60.0646067
  60.0631762  41.5344667  59.3673563  61.6979885  44.5387268  57.6148558
  62.9447889  44.3850422  57.7188635  61.1695194  45.7122755  57.1174622
  60.1668835  45.8293056  57.1511030  61.8858337  47.0240164  56.8855667
  62.7282429  46.9184446  56.2019682  60.8702946  48.0782795  56.4794254
  60.2333832  48.3478403  57.3219109  61.6381645  49.3715143  55.9784222
  62.4906921  49.5901442  56.6214657  62.0321655  49.1214752  54.9933624
  60.8999205  50.1734495  55.9781837  60.0134659  47.5385618  55.3793383
  60.6145382  47.1897745  54.5396042  59.3437576  46.7144108  55.6250381
  59.3537617  48.2883883  54.9427032  62.6925802  47.3404455  58.1650019
  62.2041178  47.2774887  59.2615652  63.8722610  47.8254461  57.9692221
  64.1531420  47.8671837  56.9999552  65.0272369  48.0365229  58.9314413
  64.6286488  47.8112888  59.9206305  66.0496283  46.8786812  58.8297081
  66.9618368  47.1834183  59.3426466  65.7065535  46.0487986  59.4475269
  66.3050175  46.5012121  57.8395605  65.6357384  49.4181681  58.6523485
  66.3642740  49.6455717  57.6952457  65.3532743  50.3138494  59.5555210
  64.8912477  50.0622177  60.4176807  65.6562281  51.7274809  59.5257330
  66.2500286  51.7350912  58.6117029  64.3730831  52.5045061  59.2893744
  64.6430779  53.5575628  59.2101717  63.9835358  52.2374296  58.3070135
  63.2570171  52.4021769  60.3286982  62.7615976  51.4808369  60.0224400
  63.5931444  52.3533440  61.3644266  62.3766422  53.6198902  60.1112461
  61.9412470  54.3271828  61.0145760  62.0788383  53.8803387  58.8516951
  61.4722776  54.6751738  58.7087631  62.3540306  53.3182335  58.0589724
  66.4395857  52.2394323  60.7929564  66.3353109  51.7597532  61.9338799
  67.2212505  53.3014965  60.5695152  67.1641016  53.7486935  59.6657228
  68.0712748  54.0426445  61.5232754  68.8482189  53.3202028  61.7733526
  68.6297512  55.1436281  60.6412888  67.7873230  55.6458473  60.1656961
  69.3103838  54.6808577  59.9266672  69.4328690  56.3301802  61.7592287
  67.3445845  54.5720625  62.7263832  66.3423443  55.2511406  62.7000141
  67.9704475  54.2709780  63.9022636  68.6466169  53.5234976  63.8376904
  67.5283527  54.7123861  65.2639341  66.5706158  54.2276669  65.4533720
  68.5783434  54.1738749  66.2864161  68.6128950  53.0939722  66.4303732
  69.5823574  54.4372559  65.9537029  68.3520460  54.6393013  67.6896048
  68.5314369  55.7143736  67.7013445  67.3182535  54.3361902  67.8554392
  69.3219614  53.9577675  68.6441994  69.1273880  52.8891706  68.7355280
  70.3565454  54.0490294  68.3134365  69.2419529  54.7441959  70.0264549
  69.3060923  55.8160448  69.8390436  68.2615089  54.6996403  70.5006313
  70.3826237  54.2612219  70.8236694  71.2478781  54.7554016  70.6586885
  70.1699400  54.4011593  71.8010569  70.5535460  53.2713223  70.7188320
  67.4633646  56.1788273  65.4071474  66.5472603  56.7458153  65.9593534
  68.4709835  56.9200373  64.8914146  69.2291164  56.3966417  64.4774199
  68.4762239  58.4006834  64.8842192  68.1771660  58.6108446  65.9111118
  69.9191999  58.9954662  64.7406101  70.4944849  58.5704613  63.9181042
  69.9673033  60.5049801  64.7009659  69.5929432  60.9203863  65.6365919
  70.9811831  60.8983755  64.6274853  69.4423294  60.9356451  63.8483047
  70.6611824  58.5268021  65.9861803  70.0478983  58.7541962  66.8581152
  70.7274008  57.4388361  65.9929276  72.0932531  58.8266897  66.1849546
  72.1753359  59.9120998  66.2420511  72.4617004  58.5745001  67.1793127
  72.6370096  58.3813047  65.3518486  67.4261093  59.0541077  64.0072441
  66.5023804  59.6511078  64.5259285  67.5081730  58.8537312  62.6837349
  68.1961727  58.2559872  62.2484636  66.8746567  59.8249865  61.7134714
  66.4435101  60.6496000  62.2811317  67.9517651  60.5282688  60.9334278
  68.8216496  60.5201101  61.5901899  67.6824379  61.5189219  60.5671358
  68.4292173  59.5337057  59.3990469  65.8383608  59.0213728  60.7986784
  65.1388264  59.6289206  60.0011110  65.7732725  57.6711750  60.8891249
  66.5021276  57.2287846  61.4305687  64.7040844  56.8856621  60.2129078
  64.8480797  55.8931255  60.6397915  63.3438778  57.4088621  60.8266354
  62.5156784  56.8079948  60.4509592  63.2751656  57.5143194  61.9093466
  63.0395889  58.3456039  60.3596973  64.7997236  56.6537476  58.7539005
  63.8094425  56.2170172  58.0835152  66.0082006  56.9262791  58.1950045
  66.8389893  57.0709705  58.7508392  66.2589121  56.4177227  56.8042183
  65.5984974  56.7693233  56.0115480  67.6657581  56.8680382  56.5507698
  67.7249765  57.9230261  56.8183374  68.3899832  56.2875795  57.1223164
  67.9268551  56.6952801  55.1560354  67.4988508  57.3862123  54.6451330
  66.1712360  54.9339533  56.6347075  66.4630270  54.2430019  57.6158428
  65.6820345  54.5292377  55.4599857  65.3797293  55.2499342  54.8202133
  65.4362535  53.0953121  55.1883841  65.0920248  52.6237440  56.1088371
  64.3721819  53.0153894  54.1378546  64.5335579  53.8533831  53.4597540
  64.3981171  52.1033001  53.5416031  62.9375362  53.1578827  54.5860100
  62.4357080  52.5425768  55.7352734  61.1865091  52.9712105  55.8938599
  60.4693508  52.5566959  56.5868664  60.9502363  53.8904905  54.9773407
  60.0878239  54.4038868  54.8643684  62.0001173  53.9876461  54.0980721
  61.9621325  54.6129417  53.2183218  66.7147684  52.3169851  54.6766472
  67.0457602  52.1502733  53.5007715  67.4724913  51.8194580  55.6528902
  67.2693157  52.0963430  56.6027117  68.7264824  51.0804939  55.4342413
  69.3916655  51.6930819  54.8256636  69.5749950  50.9030247  56.7101145
  69.1365051  50.1046944  57.3088694  71.0673189  50.4800701  56.3540649
  71.1343908  49.7487402  55.5486107  71.6818905  51.2694502  55.9213066
  71.5463734  50.1285505  57.2678709  69.5932627  52.1832228  57.5814390
  68.6020613  52.3794508  57.9902411  70.3273058  52.0231581  58.3711576
  70.0077248  53.5194254  56.7901087  70.2500677  54.2467833  57.5649118
  70.9545565  53.4092999  56.2614489  69.2721510  53.8901091  56.0762310
  68.5449171  49.8153734  54.6947527  69.2485332  49.5321703  53.7123775
  67.6120663  48.9390278  55.0702810  67.1450090  49.2036533  55.9258127
  67.3438883  47.6176834  54.4109058  67.0629692  47.8697443  53.3883381
  68.1952715  46.9411230  54.4851542  66.1385155  46.8515730  54.9982834
  65.1311159  47.4082279  55.3649998  66.1269426  45.5233765  54.8889971
  66.9967747  45.0607347  54.6666050  65.2468443  44.5505953  55.5433893
  64.7120428  45.1764488  56.2578106  64.2891502  43.8485765  54.5602894
  64.9731493  43.2655573  53.9435768  63.6294746  43.1382656  55.0586700
  63.5313416  44.8216009  53.6788368  62.2297239  45.2054548  53.7984705
  61.5553570  44.9033833  54.5861197  61.9581270  46.1674213  52.8548717
  61.0138512  46.4915657  52.7019644  63.0609894  46.4697695  52.0995569
  63.2394266  47.2334623  50.9662580  62.4467182  47.8451061  50.5614042
  64.5121574  47.3245859  50.3629875  64.6602154  47.9313755  49.4819164
  65.5868673  46.5363073  50.8740187  66.6047049  46.6067791  50.5198336
  65.3390074  45.7064915  51.9398785  66.0815287  45.0487757  52.3670483
  64.0720081  45.5739641  52.5129557  66.0439014  43.5553169  56.3176489
  67.0222282  43.0201626  55.8257389  65.7124662  43.3563852  57.6028967
  64.9409389  43.8835573  57.9862165  66.1461878  42.0610189  58.2430840
  67.2284842  42.1043777  58.3649969  65.7469273  42.1144629  59.7635889
  65.9572029  43.0996799  60.1798105  64.6733665  41.9637442  59.8769283
  66.5842390  41.0942411  60.5912256  66.4443398  40.0914860  60.1874781
  67.6171446  41.3762951  60.3871346  66.2783623  41.0527754  62.1211195
  67.0347643  40.4609108  62.6365280  66.3572502  42.0578957  62.5353765
  64.9150324  40.5293369  62.4762297  64.2572927  41.3484478  62.1854830
  64.6582985  39.6844125  61.8372536  64.7576284  40.3730822  63.9835978
  63.7748337  40.2734137  64.1940403  65.3243780  39.5672822  64.2062712
  65.0819349  41.1638021  64.5218277  65.6281137  40.8313370  57.4479437
  64.5349407  40.8652878  56.8720722  66.4108181  39.7125816  57.4525642
  67.2166777  39.7413468  58.0607367  65.9626102  38.2828331  57.1424723
  64.8926783  38.3132172  56.9364977  66.7228651  37.9687381  55.8068562
  67.7507639  38.2889104  55.9771872  66.6745615  36.9179273  55.5212641
  66.1574936  38.7930179  54.6603775  66.7657375  40.0305605  54.2372751
  67.7704573  40.2312088  54.5788765  66.1394262  40.7946491  53.2514191
  66.5589190  41.7677307  53.0427599  64.9413300  40.4368353  52.6652336
  64.4794178  41.1087799  51.9570494  64.3863869  39.1536069  52.9616880
  63.4912586  38.9216018  52.4037266  65.0370455  38.3473158  53.9492178
  64.7385073  37.3441815  54.2156649  66.1951256  37.2588968  58.2010984
  67.2901344  37.2562695  58.7470245  65.1644850  36.4172029  58.5209608
  64.2517185  36.5134096  58.0994177  65.1842833  35.3141546  59.6062660
  66.1506605  35.0855017  60.0556278  64.3166924  35.7739449  60.7853460
  63.3904505  36.1958838  60.3952932  64.2172909  34.6274853  61.8291950
  65.2214336  34.3901539  62.1805954  63.6081648  34.9959278  62.6546144
  63.6883783  33.8230062  61.3181591  64.9658442  36.8195677  61.3639116
  64.6226549  37.5428557  60.8341169  64.6286535  34.0077138  59.0643740
  63.5515928  34.1022992  58.5206747  65.3149843  32.9033828  59.2435026
  66.2769699  32.9688573  59.5441532  64.9687529  31.6517210  58.5819674
  64.7681332  31.7596507  57.5160360  66.0734415  30.5509067  58.6992645
  66.4974499  30.3990674  59.6918678  65.6802320  29.5746613  58.4156561
  66.8207979  30.7886815  57.9422808  63.6500359  31.1668658  59.1884565
  63.5475397  31.0422039  60.4260826  62.7573013  30.8126140  58.2977819
  62.9069853  31.0515046  57.3279238  61.5871477  30.0912642  58.7419701
  61.1278009  30.6911349  59.5276308  60.5934191  29.9025846  57.5955534
  59.8035002  29.2148018  57.8973532  59.8991728  31.2033463  57.2283936
  58.8654089  30.9590507  56.9839334  59.9029732  31.9500566  58.0224419
  60.3602314  31.6409755  56.3429546  61.1628866  29.2538190  56.4735126
  61.9070911  29.7997475  56.2094545  61.8095541  28.6681366  59.2834473
  60.8400249  28.1009817  59.6631002  63.0456209  28.0307198  59.2959356
  63.8614464  28.5349083  58.9791918  63.1856966  26.6493368  59.6903419
  62.3318768  26.3730383  60.3090143  63.2315874  25.8248138  58.3896208
  63.9006424  26.2733126  57.6552391  63.6061239  24.8358488  58.6537790
  61.8942213  25.6139970  57.6769018  61.1095285  25.3009605  58.3656454
  61.6558123  26.6062665  57.2939396  62.0024729  24.6074176  56.4978170
  61.3874626  24.8023462  55.6192541  63.0102921  24.6736741  56.0879230
  61.6963339  23.2243490  56.9110727  62.4375010  22.6109695  56.3986969
  61.9618034  23.0729389  57.9573536  60.2693558  22.8868818  56.6811848
  59.6255112  23.5101819  57.1470881  60.0928068  23.0702400  55.7037878
  60.0512838  21.9187737  56.8691063  64.4153738  26.3914347  60.4409790
  65.4085398  27.0969605  60.1803112  64.4384909  25.3800130  61.2899590
  63.6295652  24.7883892  61.4153624  65.4184723  25.2993131  62.4297047
  65.4167795  26.2584043  62.9476261  65.0345325  24.1770744  63.4235716
  63.9692831  24.2863774  63.6270285  65.1853752  23.2020855  62.9601622
  65.7949257  24.0557075  64.7725677  66.8748188  23.9290023  64.6959162
  65.6633568  24.9316430  65.4078102  65.3426409  22.7856588  65.5538654
  64.2571831  22.7020025  65.5000734  65.7794428  21.8999887  65.0924683
  65.6850815  22.7260876  67.0393324  66.7635155  22.8588033  67.1257734
  65.3399420  23.6283970  67.5441265  65.2067900  21.4849162  67.7447033
  65.7954264  20.6677842  67.6677990  65.2442122  21.6077876  68.7465000
  64.2252779  21.3323665  67.5617695  66.8117714  25.0587583  61.9132566
  67.7919722  25.6477952  62.4607372  66.9666147  24.2695451  60.8565044
  66.1205816  23.8073087  60.5553913  68.2977295  23.8175011  60.4723263
  68.8899517  23.8349533  61.3872480  68.2396078  22.4176788  59.9074650
  67.7479792  21.8215728  60.6762695  67.5941324  22.3745489  59.0301991
  69.5370054  21.6824818  59.6643686  69.6159506  20.8937359  58.6621714
  70.4230928  21.8154287  60.5181408  68.9525795  24.7879648  59.4662333
  70.0736237  24.5206428  59.0990639  68.2277489  25.8240056  58.9799738
  67.3150396  26.0240841  59.3634129  68.8319540  26.6976929  58.0373621
  69.1567659  26.1519861  57.1514654  67.8632784  27.8070545  57.6806974
  67.4456835  28.1731391  58.6186171  68.4397411  28.6246133  57.2478008
  66.7664337  27.2784758  56.6747618  67.2724581  26.6564226  55.9364605
  66.1509275  26.5959191  57.2607422  65.7199860  28.3680987  55.6876802
  67.0208836  29.5123935  54.9957609  67.7136135  28.9977312  54.3299055
  66.4962149  30.3094435  54.4689465  67.6410007  30.0235581  55.7321501
  70.0948429  27.3373652  58.7203026  70.1462078  27.7310729  59.9081421
  71.1072397  27.6273131  57.8952789  71.0724640  27.3659372  56.9203043
  72.3859644  28.1116629  58.3386278  72.3541641  28.5346508  59.3427038
  73.3613825  26.8680310  58.4190893  72.9716587  26.1017728  59.0892076
  73.4391260  26.4088845  57.4335718  74.6945906  27.2454214  58.8973093
  75.3574276  27.0599008  58.2281065  73.0194187  29.1048789  57.3594475
  73.3802271  28.6411810  56.2638235  73.2354355  30.3987026  57.7446461
  73.7848186  31.4193344  56.8040037  73.1982422  31.5622115  55.8964729
  74.7773647  31.0863066  56.5006256  73.7902498  32.7545118  57.4594164
  72.9143333  33.3377218  57.1752739  74.6798038  33.3401084  57.2273111
  73.7872696  32.3812819  58.9212894  73.2610226  33.1716371  59.4565439
  74.8394489  32.2350168  59.1654873  72.9640293  31.0821176  58.9923239
  73.3734274  30.5065107  59.8224831  71.4500952  31.3440490  59.1858864
  70.6450987  31.6117764  58.3030033  71.0926962  31.3800454  60.4412985
  71.7657471  31.0781860  61.1312199  69.6826744  31.4285445  60.9427595
  69.0505028  30.7867360  60.3291273  69.6105003  30.8014846  62.3642015
  70.1800203  29.8721337  62.3568678  70.0823021  31.5613699  62.9871607
  68.2027864  30.6025505  62.9320478  68.1823683  30.3533292  63.9929724
  67.6638126  31.5483451  62.8765059  67.3485756  29.5665264  62.2980309
  66.1475420  29.4468355  62.5845957  67.7438545  28.7496853  61.3922071
  66.9857550  28.2233262  60.9819269  68.7086153  28.6996579  61.0975266
  69.1166401  32.8131843  60.7540464  67.8947973  32.8970599  60.7223701
  69.9760914  33.8837194  60.7556009  70.9735823  33.7319422  60.8011627
  69.5162296  35.2805686  60.8030033  68.7115383  35.3396535  60.0701427
  69.0242481  35.6158686  62.2384119  68.6972618  36.6521502  62.3238468
  68.1633997  35.0131059  62.5277472  70.1437378  35.4011512  63.2594919
  70.2905083  34.3517280  63.5149670  71.1083269  35.8079314  62.9558468
  69.8005772  36.0363603  64.5688295  69.4374418  37.0551729  64.4337273
  68.8773918  35.6243896  64.9764013  70.8513165  36.0191393  65.6594610
  71.7067003  36.6349196  65.3815508  70.4732895  36.5145564  66.5537500
  71.2925100  34.6879196  66.1574459  71.6010237  34.7083235  67.1189594
  70.5167007  34.0443420  66.2209558  72.0134068  34.3188858  65.5539417
  70.6066942  36.2090015  60.2548933  71.7983150  35.8357000  60.2735281
  70.1983595  37.2493935  59.5400572  69.1979885  37.3099685  59.4148016
  71.0258245  38.2400894  58.8597012  71.7996311  38.5431290  59.5650339
  71.8096876  37.5643444  57.7476692  72.7381659  38.1047225  57.5632238
  72.1620131  36.5467858  57.9166126  71.0765648  37.5126863  56.4568043
  70.2334976  36.4038014  56.2480021  70.0941038  35.6728745  57.0307636
  69.6377420  36.2719226  55.0100851  68.9991570  35.4032254  54.9470139
  69.7892761  37.2215104  54.0083122  69.3139648  37.1460748  53.0414677
  70.5723143  38.3290577  54.2338800  70.6743288  38.9617038  53.3645344
  71.2015724  38.5055804  55.4685783  71.8878460  39.3369293  55.5341387
  70.2573395  39.5163584  58.4550810  69.0980339  39.6929002  58.8265276
  70.9953260  40.3880453  57.8095865  71.9944239  40.2617025  57.7325106
  70.4497814  41.7275906  57.4794292  69.3736982  41.8563032  57.5959730
  71.1323500  42.7463818  58.3980465  72.1994019  42.7283478  58.1762886
  70.7263660  43.6970615  58.0523920  70.9447384  42.5983000  59.8251724
  71.6249895  41.8099642  60.7056522  72.4101591  41.1394835  60.3888607
  71.0749674  41.7977858  61.9368887  71.3621235  41.1967325  62.6960850
  70.0423956  42.7107525  61.9560957  69.2413139  43.1916142  62.9997873
  69.3083954  42.8207350  64.0118885  68.2685375  44.1113997  62.6940918
  67.6254797  44.4326067  63.5001326  68.1443834  44.6588993  61.4350319
  67.4322987  45.4669714  61.3552809  68.9366007  44.2077065  60.3480005
  68.9129877  44.6317101  59.3549967  69.9191761  43.2215786  60.6204557
  70.7100534  41.9124174  55.9311056  71.8610430  41.8447781  55.5032396
  69.7017384  42.2785091  55.1573610  68.7767696  42.2469568  55.5617619
  69.8143435  42.6741171  53.7533236  70.7434940  42.3421907  53.2900667
  68.9272547  42.3119068  53.2337332  69.6800566  44.2553425  53.6960745
  68.6030626  44.8011017  53.8087463  70.8374214  44.9344873  53.5611677
  71.6662979  44.4253445  53.2894421  71.0298300  46.4606524  53.6112833
  70.0397587  46.8257380  53.8843584  71.9259882  46.5786076  54.8215246
  72.8770351  46.1013556  54.5852280  72.2708368  47.6126003  54.8147535
  71.4860392  46.1214542  56.2057972  71.3351011  45.0428247  56.1624861
  72.6528835  46.2845469  57.1591425  72.6457453  47.3404264  57.4296474
  72.5303459  45.7135153  58.0794764  73.6163568  46.0707569  56.6964245
  70.2703047  46.8556118  56.7575884  70.2766609  47.9139185  56.4967346
  69.4294310  46.3349009  56.2994432  70.2272987  46.6794014  57.8323889
  71.5617800  47.1159506  52.3179770  72.4689960  46.5786123  51.6450310
  70.8834743  48.2308626  51.9931078  70.2886963  48.6453438  52.6963425
  70.9710073  48.8014078  50.6506157  71.1572742  48.0047560  49.9303675
  69.6077013  49.4702005  50.2813673  69.7630548  49.8061371  49.2561293
  68.3316994  48.5760593  50.2731180  67.4875355  49.1582632  49.9036407
  68.4949732  47.7535915  49.5767069  68.0434418  48.3038712  51.2884617
  69.3660975  50.6063128  51.1073732  69.1034985  50.2661753  51.9658327
  72.1919155  49.8048496  50.6108236  72.3640776  50.6157207  51.4995193
  73.0868912  49.6088409  49.6730661  72.9803944  48.8612366  49.0023661
  74.3160295  50.4281092  49.4335890  74.9284554  50.2954626  50.3254604
  74.9294376  49.8633099  48.1255579  75.1646757  48.8226795  48.3488607
  74.1844320  49.9605036  47.3358679  76.1690521  50.6701851  47.7803135
  76.0266542  51.6911507  47.4261141  76.7939949  50.6464815  48.6730528
  77.0172215  49.9921322  46.7210484  77.9646349  50.5215120  46.8223715
  77.1375465  48.9151764  46.8384743  76.4616299  50.1966810  45.3342199
  75.8617544  49.5000744  44.9159002  76.4143181  51.3070440  44.6022606
  77.1774721  52.3425388  44.8641825  77.8964567  52.2422695  45.5663967
  77.1504259  53.2094574  44.3466711  75.7150078  51.2206173  43.4948111
  75.0929546  50.4273796  43.4321260  75.5152369  52.1310043  43.1057310
  73.9966583  51.9484091  49.3067265  74.7968340  52.7348185  49.8060703
  72.8837729  52.4061584  48.7311935  72.2194004  51.7512941  48.3440685
  72.3924446  53.7662888  48.7257242  73.0289841  54.5176792  48.2584715
  71.0196400  53.8574409  47.9688072  71.1286783  53.3151913  47.0295620
  70.1993799  53.3896255  48.5132504  70.6002665  55.2151442  47.6556301
  69.6861267  55.2199697  47.3624849  72.1131229  54.3526745  50.1319742
  72.2169828  55.5786562  50.3492403  71.8231630  53.5000992  51.1333132
  71.7764807  52.5059271  50.9614468  71.6367626  53.9501619  52.5265026
  71.3677931  55.0028563  52.4393606  70.3752565  53.2379770  53.0258369
  70.0446510  53.7200356  53.9458513  69.5183897  53.4821463  52.3979330
  70.5447435  52.1640158  53.1031990  72.7900505  53.7129211  53.5212231
  72.8305626  54.3664503  54.5774603  73.7635946  52.9172134  53.0746651
  73.7499380  52.5073195  52.1516800  75.0081968  52.7236271  53.8301706
  74.8351431  52.9061794  54.8907471  75.5791807  51.2867546  53.6900806
  75.6618023  51.1798573  52.6084852  76.5604353  51.1317062  54.1386414
  74.6695280  50.1275301  54.2633581  73.6300564  50.4554892  54.2697287
  74.6040773  48.8659239  53.3784199  75.2881050  48.0935335  53.7300253
  73.6114120  48.4262085  53.2816124  74.9039316  49.1277170  52.3637056
  74.8945951  49.8264027  55.7264423  74.8977804  50.8078194  56.2006903
  74.1607428  49.1153622  56.1058855  75.8662128  49.3564701  55.8788395
  76.0262203  53.7489843  53.3355951  76.1343622  54.0380430  52.1128511
  76.9749594  54.1111088  54.1744041  76.6684723  54.0722513  55.1359940
  78.2290983  54.6860409  53.8828897  78.5210943  54.6491861  52.8333759
  78.1206226  56.2617207  53.9747858  77.1860123  56.5971756  53.5252571
  78.0060863  56.8384743  55.3819180  78.9510012  56.7471123  55.9175396
  77.6930618  57.8821564  55.3529215  77.2528172  56.2435627  55.8984089
  79.2518473  57.0168257  53.2472801  80.1549244  57.0171022  53.8576555
  79.5165110  56.4989185  52.3254156  79.0765905  58.5454988  53.0066967
  79.9967670  59.1206074  53.1097937  78.7523270  58.7421846  51.9848061
  78.2744455  58.9245176  53.6399508  79.3862152  54.1258621  54.8146820
  79.1757870  54.0459967  56.0622454  80.5426216  53.7929583  54.2341471
  80.7420731  53.5656834  52.8020048  80.7503033  54.5640278  52.3645735
  79.9895716  52.9352713  52.3282719  82.0777130  52.8437138  52.6407480
  82.6104832  53.2001162  51.7591381  81.8461990  51.7857409  52.5174522
  82.7414799  53.0050421  54.0120316  83.5932446  53.6689043  53.8641071
  83.0035114  52.0109177  54.3741941  81.7221832  53.4119081  55.0072670
  81.4898109  52.5826740  55.6754494  82.2055435  54.5871973  55.8883095
  82.1882343  55.7146597  55.4158401  82.7639675  54.3076754  57.0830202
  82.8316307  53.3387613  57.3600292  83.3456516  55.2861404  57.9686737
  83.3311367  56.2214661  57.4091673  82.5142860  55.5486584  59.2444944
  83.0249977  56.3544512  59.7717190  81.1505890  56.0777521  58.8773489
  80.4441166  55.3596687  58.4609842  80.7287979  56.3631725  59.8410606
  81.3154316  56.9353104  58.2250261  82.3275661  54.3871307  60.0003099
  83.1250000  53.8696384  59.8665380  84.8400307  55.0272560  58.2919168
  85.0347805  54.0007639  59.0406370  85.7479191  55.5184793  57.6196241
  70.3084421  57.9225588  60.2170229  43.1645346  52.9199028  43.7060785
  43.5728073  52.0192766  43.9117432  42.4431276  52.7840424  43.0123806
  42.7326488  53.2407761  44.5608377  44.1352797  53.9379740  43.1773758
  44.4916630  53.5319471  42.2306776  43.3494425  55.2123213  42.7585220
  44.1181469  55.9454393  42.5141191  42.7958155  55.1035357  41.8259144
  42.3933125  55.7291174  43.7850380  42.8051853  56.5476561  44.8210335
  43.8540316  56.7544937  44.9744797  41.9116354  57.0439100  45.8164167
  42.2319412  57.7013206  46.6111612  40.5528736  56.6610289  45.6876802
  39.8357272  56.8939877  46.4608765  40.0616312  56.0107183  44.5455790
  39.0235925  55.9069014  44.2661190  41.0191870  55.6229591  43.5391045
  40.6442499  55.1317549  42.6533604  45.3073788  54.1669035  44.0722370
  45.2543831  53.8584518  45.2442884  46.4454985  54.7588682  43.5361004
  46.4144754  55.0585079  42.5720692  47.6538754  54.9935007  44.2023325
  47.7213192  54.3875647  45.1058769  48.9184427  54.6263075  43.4913445
  49.3058443  55.4532528  42.8962183  50.1057005  54.5159769  44.4348383
  49.7666645  53.8213015  45.2033281  51.0518217  54.1397190  44.0457487
  50.3270721  55.4325628  44.9816084  48.7834024  53.3782339  42.5656605
  48.0720282  53.5132027  41.7508984  49.6929121  53.2941008  41.9708347
  48.6540174  52.0451975  43.3564663  47.8511143  52.0707560  44.0932083
  48.5695744  51.1648703  42.7192879  49.5906925  51.9030476  43.8954687
  47.6477480  56.4489508  44.6962786  47.7193880  57.4970770  43.9941835
  47.2727633  56.6810846  45.9622049  47.2300005  55.9372711  46.6441250
  47.4001884  57.9725885  46.6119385  46.7266750  58.6996746  46.1582470
  46.8823624  57.8982401  48.0853653  47.5193548  57.2080183  48.6384869
  46.9951057  59.2604637  48.7730885  46.5745449  60.0881767  48.2020140
  46.4773941  59.2745161  49.7321939  48.0331755  59.5719051  48.8893127
  45.4713917  57.3222208  48.3007145  45.3818321  56.3510561  47.8139734
  45.3063488  57.2089052  49.3721724  44.6849966  58.0044937  47.9779291
  48.8234854  58.3906698  46.4908123  49.7509861  57.5650358  46.5937567
  49.0811157  59.6839666  46.2490749  48.3053732  60.3306627  46.2387419
  50.4494429  60.2940464  46.3609076  50.2921486  61.3261271  46.0475826
  50.7047510  60.1856422  47.4150229  51.5160131  59.5893669  45.5344534
  52.7088356  59.6536350  45.9474611  51.2029123  58.8937426  44.4651270
  50.2486515  58.8777876  44.1346169  52.2014284  58.2190943  43.5426188
  51.6515541  57.8695536  42.6688004  52.9225969  58.9781713  43.2396126
  52.8339672  56.8981266  43.9950562  53.5930538  56.2657213  43.2406092
  52.6515102  56.5258694  45.2746344  52.2314978  57.2472668  45.8432102
  53.2951307  55.4291439  45.9708548  53.3192301  54.5841646  45.2827215
  54.7985554  55.6200171  46.2552214  55.2135706  54.6745443  46.6044188
  55.2760029  55.8451653  45.3015661  55.0755644  56.7783785  47.1603727
  54.7558498  57.7288866  46.7332745  54.6175241  56.6076422  48.1346178
  56.6083670  56.9089031  47.4064493  56.9856691  55.9384203  47.7288055
  56.9449425  57.2881699  46.4415836  56.8775845  57.8974915  48.5503912
  56.0031891  58.5481024  48.5350513  56.8681622  57.3456192  49.4903135
  58.1585646  58.6694765  48.3415651  58.9777422  58.0855751  48.4316301
  58.1733274  59.1926527  47.4777460  58.2916546  59.3437195  49.0816879
  52.5551081  54.8978233  47.2097731  53.0888414  54.0239954  47.9098797
  51.3321114  55.2905178  47.6006174  50.9695292  56.1113787  47.1371269
  50.5770397  54.8922682  48.8168287  51.0199594  54.1173840  49.4425154
  50.3151083  56.1863470  49.5699453  49.9349451  56.9805908  48.9274883
  49.5874405  55.9601784  50.3493309  51.5564013  56.8012142  50.1733828
  52.3304033  56.0666418  51.0904312  52.0398808  55.0487423  51.3046360
  53.5553026  56.5064192  51.6147375  54.0863180  55.8601952  52.2979832
  54.0772915  57.7722549  51.2209272  55.3774548  58.1796455  51.5722895
  55.7762575  57.5105858  52.1334600  53.3262014  58.5620165  50.3071499
  53.7132120  59.5486879  50.0995302  52.0689869  58.0907822  49.7348309
  51.5216351  58.6895704  49.0219116  49.2764902  54.1814804  48.3950233
  48.4186697  54.8093843  47.7888441  49.0638590  52.9260969  48.8057280
  49.8212481  52.5460482  49.3552971  47.8157520  52.1805143  48.7682819
  47.0816135  52.7027798  48.1547737  48.0359840  50.7812929  48.1987190
  47.0179272  50.3918743  48.2029057  48.3175755  50.9444046  47.1584225
  48.9612675  49.7514200  48.9041424  49.9223661  50.2497625  49.0308523
  48.6111212  49.4041204  49.8761940  49.1235304  48.5397625  48.0769873
  49.7704649  48.7989902  47.2389078  49.5782804  47.7601862  48.6881781
  47.7734613  47.9363203  47.6442480  47.3231840  47.5256681  48.5479689
  47.0270777  48.7001753  47.4262142  47.7091551  46.7570210  46.7287540
  46.8054342  46.3110590  46.6616201  47.7842808  47.1699190  45.8100748
  48.3851385  46.0404921  46.9517660  47.0796299  51.9898462  50.1444101
  47.6494694  51.6556025  51.2009811  45.7146883  52.1753836  50.1152039
  45.3418446  52.3191738  49.1876173  44.7161388  52.1223021  51.1995125
  45.1553631  52.5202942  52.1142721  43.5691452  52.9972887  50.6691122
  43.1459188  52.6619911  49.7222519  42.7822733  52.9182100  51.4192295
  43.9785719  54.4855499  50.3895664  44.8214626  54.4515133  49.6992922
  42.8377962  55.1609564  49.6483707  42.9541016  56.2445736  49.6295547
  42.6818180  54.8201942  48.6248207  41.9098091  55.1171303  50.2184725
  44.1913319  55.1922417  51.7620420  43.2483244  55.0285673  52.2836208
  45.0053358  54.7505331  52.3368406  44.4737244  56.2372017  51.6339254
  44.4000721  50.6383038  51.5742826  44.1977167  49.8195314  50.6364107
  44.3518496  50.2794313  52.9071093  44.7441339  50.9915018  53.5064125
  43.9630079  49.0225697  53.3879089  43.9054203  48.2581043  52.6130629
  45.0371647  48.4025049  54.2895937  44.9754953  49.0233612  55.1833677
  44.6228504  46.9916248  54.6076918  43.6388206  46.9700813  55.0760126
  44.5495081  46.4320278  53.6751842  45.4102564  46.4389563  55.1201868
  46.3912249  48.2947588  53.6773777  46.4938068  47.7957201  52.7137661
  46.8070364  49.3020773  53.6550426  47.1030426  47.7150822  54.2650747
  42.5577307  49.0945435  54.0815210  41.6047049  48.3996439  53.6991215
  42.3461723  50.0552177  54.9727869  43.0596113  50.7433987  55.1664591
  41.2156391  50.0888205  55.9033442  40.3433180  50.0946236  55.2497959
  41.1963367  48.7985039  56.8228054  40.2036524  48.7149096  57.2651672
  41.1816168  47.9233122  56.1732483  42.3282242  48.6058331  57.8436852
  43.2057095  48.9270639  57.2824955  42.1214437  49.3016291  58.6568308
  42.4030542  47.1411896  58.4200048  41.4651251  46.7116928  58.7720251
  42.8396225  46.4797831  57.6716423  43.4172773  47.0810556  59.4893742
  44.2888403  46.6009045  59.3163109  43.0769777  47.3286915  60.7581615
  41.8842173  47.7661991  61.1570120  41.1056709  47.8676987  60.5216599
  41.8199968  48.2326746  62.0505285  43.9889622  47.1457338  61.7119265
  44.8976946  46.7406130  61.5381908  43.8333225  47.3122501  62.6958704
  41.1670542  51.3010025  56.7603302  42.1932220  51.8552446  57.1545935
  40.0248480  51.8118048  57.1544361  39.2068768  51.2650681  56.9261789
  39.9154449  52.8812265  58.1754541  40.7350874  53.5898399  58.0564594
  38.5680461  53.5575628  58.0093956  38.3404565  53.6834908  56.9508839
  37.7619815  52.9562473  58.4298468  38.5364223  54.9623728  58.6267948
  38.9297032  55.0393534  59.6404505  39.1242337  55.5590296  57.9292488
  37.1542501  55.6048298  58.5889292  36.4478517  55.0444746  59.2013836
  37.1427321  56.6098261  59.0107775  36.6333079  55.7738113  57.1457720
  37.3862886  56.2811661  56.5426826  36.4812732  54.8027754  56.6745329
  35.3880811  56.5440035  57.1941376  35.6393981  57.4999094  57.4019575
  35.0006866  56.5446377  56.2613869  34.7252417  56.1587715  57.8516674
  40.2209234  52.3329496  59.5845175  39.6157336  51.3470793  60.0046873
  41.0961199  53.0917597  60.2619696  41.3745785  53.9922523  59.8991060
  41.4891434  52.7627802  61.6421413  40.9511900  51.8748951  61.9743538
  42.9864311  52.5106668  61.6929245  43.2973671  52.2779417  62.7113819
  43.3306694  51.2522650  60.9238005  43.1940079  51.2629080  59.8424530
  44.3179035  50.8969116  61.2190866  42.6432610  50.4666948  61.2375546
  43.9518404  53.6593723  61.1416721  43.6962461  53.7744474  60.0883293
  43.6807537  54.6070242  61.6070414  45.4848528  53.4485435  61.2402058
  45.9989119  54.3269014  60.8499098  45.6932592  53.2360363  62.2887802
  45.7494164  52.5232744  60.7283640  41.0788441  53.8023186  62.7181005
  41.5981865  53.6960077  63.8488436  40.2958918  54.7881413  62.3003626
  40.1755476  54.7582769  61.2980032  39.7422552  55.9133911  63.0419445
  39.2126274  55.4941797  63.8974285  40.5167723  56.5833235  63.4153414
  38.7300825  56.7701530  62.2172070  38.9783430  57.1226978  61.0379124
  37.6820731  57.1730900  62.8789997  37.6200461  56.8059111  63.8178539
  36.6657591  58.0681896  62.4792814  37.0150733  58.8266277  61.7786741
  35.5051017  57.2859859  61.8624878  35.8084941  56.6383219  61.0399437
  34.9087977  56.8209696  62.6475286  34.6754932  58.2385206  61.2399006
  35.1564074  58.5874462  60.4858637  36.0577011  58.8580132  63.6396980
  35.9794235  58.2947874  64.7591352  35.7631731  60.1643133  63.5065269
  35.9959316  60.6521845  62.6533508  34.9059463  60.9577370  64.3879557
  33.8725805  60.6430531  64.2422390  35.2201343  60.7481909  65.4104424
  35.0809956  62.4211740  64.0213490  35.3075051  62.7399015  62.8104639
  35.0753880  63.3329535  65.0043964  34.8881364  62.9277945  65.9104252
  35.1957202  64.8167753  64.8097801  34.3163347  65.1975346  64.2903566
  35.2156472  65.4964542  66.2029171  35.4614449  66.5416527  66.0151720
  34.2475533  65.3962421  66.6936827  36.1704063  64.9842596  66.9979477
  35.7456160  64.7484016  67.8259134  36.4162660  65.2719021  63.9900684
  36.3178635  66.1887360  63.1411934  37.5225425  64.5293617  64.1475344
  37.3291183  63.8753986  64.8925304  38.8355684  64.6765327  63.6124945
  39.0728331  65.7403898  63.6163378  39.9123621  63.8765240  64.4321489
  40.9148550  63.8642454  64.0044022  40.1001453  64.3680191  65.3867531
  39.5790267  62.4127436  64.8038292  38.6256337  62.2467184  65.8750439
  38.3485126  63.0996847  66.4767504  38.2381654  60.8874989  66.1820936
  37.4990726  60.7740259  66.9613647  38.7977076  59.7609663  65.5185890
  38.5818100  58.7552881  65.8478212  39.6908426  59.9980354  64.4184208
  40.0063705  59.1594601  63.8153982  40.0622845  61.3123751  64.0812635
  40.6862783  61.4719915  63.2143402  38.9051580  64.2948151  62.1224213
  39.9711800  64.1735125  61.5371656  37.7978754  64.0360022  61.4674616
  36.9389033  64.0393877  61.9987440  37.7275300  63.4579754  60.1824856
  36.7246366  63.6948109  59.8272181  38.4327745  63.9225769  59.4933796
  37.9063892  61.9785213  60.1718569  37.2261357  61.2622309  60.8916903
  38.7722111  61.5028667  59.2550468  39.3568945  62.1176195  58.7070274
  38.9920163  60.0046396  59.2061520  38.6316061  59.5744801  60.1405907
  38.2268620  59.5374060  57.9887915  38.4851503  60.0887442  57.0846844
  38.5303688  58.5033607  57.8252745  36.7147255  59.4588995  57.9239035
  35.9811449  59.6866274  56.9357014  36.2193966  58.9199305  58.8821459
  40.5314636  59.7916412  59.1254759  41.2459993  60.5919361  58.5556173
  40.9247828  58.5887194  59.6106672  40.2586937  58.1352901  60.2196264
  42.3042440  58.0757999  59.6410131  42.7988434  58.6443281  58.8534546
  43.0364132  58.1502390  60.9693718  42.4914789  57.5203753  61.6725254
  44.5043087  57.6518536  60.7729578  44.5741987  56.6320562  60.3945017
  45.0372648  58.2690334  60.0496626  45.0368357  57.5690651  61.7204094
  43.0995750  59.5954514  61.4426184  43.4718418  60.3017807  60.7005835
  42.1124268  60.0022268  61.6621161  43.9731407  59.7709274  62.6641893
  44.9807644  59.7421455  62.2494888  43.8688326  60.7566309  63.1176329
  43.6869192  59.0509319  63.4308577  42.3237324  56.6785097  58.9867258
  41.5647650  55.7573891  59.3356323  43.1845856  56.3919735  57.9618168
  43.8852596  57.0730305  57.7062464  43.3009481  55.1705027  57.1673679
  42.5655556  54.4100237  57.4299955  43.2274961  55.5009127  55.6765842
  43.7247181  56.4336872  55.4104948  43.6096287  54.6846581  55.0635529
  41.7511034  55.7340765  55.3583860  41.1773205  56.9945240  55.3798342
  41.8069696  57.8429699  55.6036329  39.8561811  57.2068167  55.0314999
  39.5479512  58.2399702  55.0946140  38.9933896  56.1723614  54.7025251
  37.7674818  56.4883947  54.2155600  37.4477887  55.7449484  53.6991501
  39.5268393  54.8603678  54.7070980  38.9555383  53.9682055  54.4971800
  40.8774042  54.6716404  55.0070381  41.2583303  53.6732769  54.8502970
  44.6280384  54.4633627  57.4804783  45.6430006  55.1156902  57.3226738
  44.6575689  53.1286430  57.7238798  43.7506151  52.7092123  57.5768471
  45.8460665  52.3243332  57.5166512  46.6579962  52.8491163  58.0201149
  45.7093430  50.9392500  58.2309628  45.6404638  51.0736609  59.3104506
  44.7849798  50.5041265  57.8510666  46.8850899  49.9368000  57.9854774
  47.1131420  49.8739910  56.9214535  48.0146551  50.5860043  58.8134193
  47.5770521  50.7933664  59.7899532  48.8918829  49.9393225  58.8329411
  48.2436132  51.5347767  58.3281279  46.6427612  48.5459280  58.6449623
  47.4102068  47.8573179  58.2914925  46.7735291  48.4600782  59.7236824
  45.6712532  48.1687975  58.3255148  46.1887217  52.1847057  56.0440493
  45.2808475  51.8247366  55.2898693  47.4918222  52.3294210  55.6918621
  48.0678320  52.6792479  56.4441538  48.0797005  52.3878860  54.3119049
  47.4655771  51.8126154  53.6190701  48.1265450  53.8995218  53.9750099
  47.0952082  54.2321730  54.0924168  48.7212276  54.4027090  54.7374153
  48.3626270  54.1206503  52.9341125  49.4760942  51.8835020  54.2478800
  50.2728415  51.8866253  55.2132273  49.8699379  51.5521049  53.0053759
  49.1897631  51.7364883  52.2818661  51.2144661  51.0592270  52.7545357
  51.8486118  51.2365389  53.6231661  51.0798359  49.5388842  52.5182772
  50.8614922  49.4356585  51.4553690  52.4460459  48.8343287  52.6519966
  52.8779554  49.0528297  53.6286306  52.3759842  47.7527809  52.5360250
  53.0395889  49.2721081  51.8494081  50.0619650  48.7445498  53.4369659
  49.0302277  49.0773439  53.3235312  50.0397015  47.7091074  53.0971479
  50.3468800  48.6366320  54.9433947  51.0234642  47.8225708  55.2034664
  50.6009483  49.6341372  55.3019142  49.3957710  48.3685255  55.4034185
  51.9399595  51.7332125  51.6067076  51.3639402  52.1017361  50.5173826
  53.2246494  51.9562864  51.7103720  53.7283897  51.6952229  52.5459480
  54.0297222  52.4160719  50.6010532  53.4604502  53.0791473  49.9496222
  55.1072407  53.2367086  51.2089443  54.6902609  54.0178680  51.8445683
  55.5854988  52.5926304  51.9468641  56.2098408  53.7912798  50.2112150
  56.5243387  53.1587648  49.1783285  56.7770624  54.9423552  50.5094576
  57.5861216  55.2639437  49.9974918  56.6089630  55.2993727  51.4391756
  54.6050119  51.2560940  49.7460651  55.3358126  50.4172564  50.2625084
  54.2683125  51.2672138  48.4540033  53.7558079  52.0790863  48.1404734
  54.4319439  50.1964521  47.5259733  54.1081476  49.2543840  47.9684258
  53.5226679  50.3454304  46.2628746  53.6012793  49.4265079  45.6819344
  52.1230078  50.5984497  46.6474009  51.9014359  51.6300297  46.9209909
  51.4158583  50.3387547  45.8596182  51.9283867  50.0144243  47.5469208
  54.0758133  51.4741468  45.2785110  54.0235996  52.4418306  45.7774782
  55.1089478  51.2674904  44.9991703  53.3812332  51.5071392  43.9229155
  53.7817669  52.3642588  43.3816004  53.4360743  50.5587006  43.3885479
  52.3125648  51.6426897  44.0892839  55.9169912  49.9374628  47.1305037
  56.1937618  48.8147783  46.6423893  56.8585062  50.8296680  47.4530268
  56.4649820  51.4179945  48.1735134  58.2808208  50.6452513  47.1165657
  58.3457184  50.3385210  46.0726309  58.9481688  52.0365810  47.1468592
  59.9816799  51.9978476  46.8026733  58.3613634  53.0305576  46.2287045
  59.0256596  53.8945961  46.2445736  58.2642460  52.6341391  45.2179956
  57.3505116  53.3133698  46.5224552  58.9324665  52.5965118  48.4446669
  58.0304146  52.7380991  48.7410688  59.0806961  49.7465992  47.9680014
  60.2075672  49.4026947  47.6240778  58.6083889  49.4808769  49.2179298
  57.6472807  49.7481060  49.3759298  59.4088888  48.9223623  50.3372288
  60.0599527  48.1212664  49.9872828  60.1890278  50.0775337  50.7842731
  60.8433056  49.6557856  51.5472603  60.8302069  50.5062103  50.0140619
  59.4437551  51.1471558  51.5664482  58.2654238  51.2168980  51.7702198
  60.2042389  52.1339083  52.0036936  59.8107767  52.7809858  52.6719618
  61.2055063  52.0733595  51.8857956  58.5928774  48.1551933  51.4725018
  59.2514706  47.4434805  52.2201967  57.2595072  48.3402157  51.5810347
  56.8928432  49.0141869  50.9242105  56.3764954  47.8895473  52.6700974
  55.4079008  48.1995869  52.2779179  56.4078665  46.3862991  52.7884150
  56.5629864  45.9857035  51.7866373  57.2312927  46.1320257  53.4558153
  55.1548910  45.6660652  53.2846260  54.5438337  44.8239040  52.6007509
  54.7241592  46.0711622  54.4343424  53.9552259  45.5403805  54.8179007
  55.2093124  46.8068981  54.9277163  56.5357256  48.7313461  53.9777374
  56.2553835  48.2243538  55.0939512  56.7914200  50.0113392  53.8301373
  57.2517204  50.3576183  53.0004930  56.5407372  50.8642054  54.9521923
  56.9169855  50.4792547  55.9000063  57.3129082  52.1841860  54.8915672
  58.3760738  51.9489193  54.8423195  57.0553017  52.7568865  54.0006399
  57.1787739  53.0101013  56.1702442  56.1388731  53.0825949  56.4887571
  57.9155350  52.6365614  56.8813992  57.5878143  54.4843292  55.9765816
  58.2195425  54.8470736  54.9895000  57.4068451  55.2698326  56.9082928
  55.0061417  51.1719942  55.1359987  54.3640757  51.8043995  54.2627716
  54.4942999  50.7233858  56.2952900  55.1742744  50.3377485  56.9348383
  53.1373787  51.0527897  56.7366409  52.4451160  50.9479094  55.9012508
  52.5689983  50.0986433  57.8461075  53.0093288  50.4006767  58.7963629
  51.4850044  50.2074862  57.8112984  52.9665804  48.6999941  57.6178551
  52.8713131  48.4312630  56.5658045  54.0194941  48.5444450  57.8529692
  52.2107840  47.6771116  58.5970736  51.7301702  46.6343689  58.1814909
  52.1900606  47.8995514  59.8368740  53.0480051  52.5305128  57.1768570
  53.9667225  53.0164671  57.8441238  51.9492435  53.2339907  56.8290901
  51.2586212  52.7677488  56.2583303  51.7624426  54.6779966  57.1030903
  52.2998238  54.8444462  58.0366993  52.2806740  55.6860304  55.9610415
  52.0974970  56.7087364  56.2906313  53.8755560  55.4195881  55.6814718
  54.3373156  55.3530455  56.6665936  54.1190720  54.5514536  55.0689793
  54.2470789  56.3230848  55.1979828  51.5150070  55.4191828  54.6953773
  51.9828510  55.9688282  53.8786077  51.4073992  54.3876982  54.3598652
  50.5028391  55.7783222  54.8814821  50.2465630  54.9150896  57.3978662
  49.3813038  54.0324020  57.1532059  49.8962736  56.1176300  57.7944803
  50.5890560  56.7961788  58.0768347  48.5632372  56.6673470  57.8774309
  47.9100132  55.8120060  57.7048254  48.4009266  57.1585655  59.2993879
  49.1137648  57.9757977  59.4094276  47.4223089  57.6380539  59.3216753
  48.4234953  56.3313913  60.0088739  48.2489729  57.8892851  56.9471025
  49.0904808  58.8545418  56.8080425  47.0522165  57.7888870  56.3002157
  46.4783239  56.9647074  56.4073277  46.4631224  58.9530516  55.6283331
  47.1964359  59.7534466  55.5297375  45.8773994  58.4463453  54.2101526
  44.9263906  57.9420805  54.3815947  45.6011629  59.5675945  53.2330418
  44.8329020  60.1116514  53.7824821  46.5283442  60.1295853  53.1207800
  45.0664377  59.1285467  52.3907804  46.7054749  57.3776054  53.5595989
  46.3313532  57.2587919  52.5427294  47.7575636  57.6620483  53.5420656
  46.5032482  56.4504290  54.0958405  45.2760983  59.4024181  56.4953661
  44.3734312  58.5767889  56.8252802  45.2571917  60.7354546  56.7027378
  46.0612822  61.2361193  56.3522005  44.1441059  61.4833355  57.2774506
  43.3532476  60.7499266  57.4347925  44.5963478  62.2397852  58.5952568
  45.0731230  61.5525103  59.2941380  45.3515577  62.9688978  58.3017445
  43.5646200  63.1245136  59.3253517  43.3698463  64.0155554  58.7285137
  42.6474667  62.5497866  59.4542360  44.1641712  63.5202074  60.6430769
  44.7267914  62.6871777  61.0645247  44.8597765  64.3355894  60.4446125
  43.1110096  64.0264988  61.6505480  42.3003340  63.2995272  61.6996861
  43.5822725  64.0458012  62.6332188  42.6558447  65.3674746  61.3718653
  42.3356676  65.3378916  60.4144192  42.0011568  65.8558702  61.9659662
  43.4863043  65.9415865  61.3429499  43.4880114  62.5263929  56.3781166
  44.1943216  63.2892036  55.7357407  42.1846294  62.5901937  56.3360500
  41.6198444  61.9414949  56.8654919  41.3593149  63.4211826  55.4197931
  42.0297861  63.9570904  54.7479486  40.3451586  62.4325514  54.6457148
  39.6631694  62.0056534  55.3810740  39.7054362  63.0073833  53.9760733
  41.0552359  61.2969637  53.8617182  41.4717388  60.5486536  54.5360041
  40.0796413  60.5324268  53.0002975  40.4974794  59.6191502  52.5766897
  39.2397428  60.2966881  53.6538267  39.7509837  61.0640335  52.1072721
  42.1524858  61.8403578  52.9592896  41.7653227  62.7333069  52.4685383
  42.9476595  62.3031044  53.5438061  42.5023937  61.1464787  52.1949625
  40.5890274  64.5308352  56.0328817  40.1232004  64.3809223  57.1863222
  40.4513073  65.6606293  55.3297663  40.8993769  65.6474400  54.4246912
  39.8972106  66.9122648  55.8258343  40.3040457  67.2052002  56.7937040
  40.0436687  68.0159807  54.7315788  40.9578133  67.8355742  54.1659880
  39.2318249  68.0168200  54.0042448  40.0790262  69.4467258  55.2875328
  39.0789795  69.7069597  55.6343555  40.6892443  69.4185829  56.1902809
  40.6020641  70.4564190  54.2376900  40.0182056  70.4155636  53.1012917
  41.6092539  71.1629057  54.4885445  38.3814454  66.7776728  56.1531925
  37.6220441  66.0431528  55.4558134  37.8962731  67.5065088  57.1858215
  38.4998751  68.1291246  57.7036238  36.5429544  67.5680065  57.5906992
  36.4191484  66.5467310  57.9509258  36.3557315  68.5970354  58.7993145
  37.1637726  68.3659315  59.4934034  36.5223718  69.6561766  58.6029673
  35.0066233  68.4745598  59.3802071  35.1023912  68.6254787  60.3234196
  35.5532908  67.8530312  56.4162302  35.7469034  68.8857937  55.7288361
  34.4446635  67.1254921  56.3674307  34.2544580  66.4862061  57.1258688
  33.3893228  67.4226618  55.4251909  33.8322568  67.4201488  54.4292450
  32.3817372  66.2343550  55.3101492  32.0020604  66.0302782  56.3112974
  31.5776277  66.5810061  54.6610403  33.0347109  64.9874449  54.7516108
  33.3165240  65.1716948  53.7149191  33.9179921  64.7568417  55.3472090
  32.1595812  63.8116693  54.8725414  31.1622572  63.8262367  55.6055355
  32.4515462  62.7442217  54.1360855  31.9141936  61.8927193  54.2154074
  33.3323002  62.7314281  53.6419249  32.6513362  68.6949682  55.7060337
  32.1588898  68.9205933  56.8068743  32.5115824  69.5497370  54.6081734
  32.8470063  69.2398071  53.7073231  32.0200157  70.9822273  54.5210552
  31.9996166  71.1774683  53.4488773  30.5159998  71.0995531  54.8595619
  30.3115702  71.0247374  55.9276056  30.1842880  72.0406008  54.4208241
  29.5508051  70.0194740  54.2903376  29.8855424  69.6856642  53.3081818
  29.6934462  69.1541433  54.9376059  28.0686426  70.3912783  54.2833853
  27.8574204  70.7785034  55.2801514  27.8929591  71.2533474  53.6399031
  27.1548796  69.2146349  53.8960361  27.3191190  68.3235168  54.5018721
  26.1798191  69.6120024  54.1779089  27.2420955  68.8124275  52.4447441
  26.7396021  69.3597651  51.7606211  28.1384015  68.7168503  51.9891119
  26.8163395  67.8967428  52.4635983  32.9761410  72.0208931  55.1627636
  32.6154375  73.1614399  55.1340342  34.2210770  71.6640043  55.4863930
  34.4112015  70.6825161  55.3427458  35.2368426  72.6210880  55.7132053
  34.9225354  73.3073378  56.4995718  36.4179492  71.9248199  56.3775301
  36.0334063  71.4308214  57.2698259  36.7015290  71.1011410  55.7223701
  37.2360802  72.6274014  56.5360928  35.7319307  73.4815168  54.5328999
  35.9861517  72.9432583  53.4646082  35.8329749  74.8136902  54.7800398
  35.7267189  75.0963879  55.7438326  36.4007640  75.7347202  53.7848616
  36.6136694  75.3061581  52.8055239  35.3556895  76.7950249  53.5029173
  35.1535392  77.2992706  54.4478893  35.7070279  77.5925016  52.8481674
  34.0102839  76.2165356  52.8970766  33.6334467  75.2583361  53.2547665
  33.1852102  76.9072533  53.0710459  34.2204571  76.0913038  51.4026403
  33.2198119  76.2313414  50.9937429  34.8139262  76.9202948  51.0170746
  34.8161268  74.7876215  50.9804106  35.7979655  74.5961380  51.1198187
  34.1659808  73.7023067  50.6814384  32.8800893  73.4985876  50.6624079
  32.2372913  74.2531300  50.8562565  32.4945498  72.6462555  50.2816248
  34.9436331  72.6489449  50.3200865  35.9467530  72.6889849  50.2094030
  34.4527078  71.7725182  50.4248047  37.6763272  76.4184523  54.2070961
  38.5493064  76.7080402  53.3975077  37.7840567  76.6583443  55.5565739
  37.0249820  76.1987686  56.0389566  39.0700817  76.8026018  56.2220621
  39.4413781  77.8161764  56.0707092  38.8689470  76.5508175  57.7152634
  38.1148458  77.2327042  58.1082773  38.3686996  75.6068420  57.9315090
  40.0668383  76.6880226  58.6167526  41.1329889  75.8039188  58.6956692
  41.8169975  76.2637520  59.7942543  42.7524185  75.8201742  60.1018763
  41.3060856  77.4437046  60.2475119  41.7507648  78.0609512  60.9118748
  40.1631546  77.6748705  59.5125294  39.4705677  78.4984493  59.6043921
  40.0451279  75.7695007  55.5778170  39.5970917  74.6574640  55.2459860
  41.3390541  76.0401487  55.5564213  41.9634867  77.3380709  55.9081459
  41.6287804  77.7493715  56.8604612  41.7322969  77.9635239  55.0459003
  43.4661388  77.1625423  55.8869553  43.7999964  76.7567778  56.8419361
  43.9968777  78.0843639  55.6489086  43.4954882  76.1311817  54.7003889
  44.4335938  75.5777311  54.6585083  43.2909584  76.6708708  53.7757254
  42.3452282  75.1598263  55.0497293  42.0888710  74.5454931  54.1866112
  42.7534819  74.1383982  56.0770988  43.8296795  74.0632391  56.5824080
  41.8404818  73.2391024  56.5159178  40.9559774  73.2701778  56.0293102
  41.7809153  72.6342583  57.8217125  41.9795227  73.4802580  58.4796906
  40.3861284  71.9914675  58.1939554  39.7032928  72.8230667  58.3679581
  39.9400187  71.4533377  57.3575926  40.4371595  71.1842585  59.5070696
  41.1802816  71.5317869  60.2247667  39.4547033  71.2100029  59.9784660
  40.6565285  69.7232103  59.1710472  39.7424483  68.9673662  58.8867664
  41.8549871  69.1727877  59.3320847  42.0076180  68.1940842  59.1347313
  42.6495743  69.6518421  59.7311258  43.0601263  71.7124701  57.8667307
  43.8094187  71.6548109  58.8371563  43.1718969  70.8399439  56.8808937
  42.4876690  70.8823395  56.1391783  44.2188549  69.8014307  56.8782806
  44.2780828  69.3487930  57.8680897  43.7627697  68.7393141  55.8685017
  42.7750206  68.4189415  56.1998892  43.6443233  69.3134975  54.9495983
  44.6697855  67.4627066  55.6902456  45.6304502  67.8729630  55.3789282
  44.7905159  66.6821194  57.0134640  45.3593254  67.3063231  57.7026176
  43.7988853  66.5978479  57.4580622  45.2349710  65.7177067  56.7675686
  44.1067362  66.5217352  54.5907211  44.7790623  65.6663465  54.6570063
  43.0633354  66.3115168  54.8257065  44.2167473  67.0379877  53.6370564
  45.5593014  70.2763939  56.5148640  46.5520859  69.6872950  56.9885445
  45.6166220  71.1669254  55.5124235  44.7198439  71.5916681  55.3240395
  46.7942524  71.9234037  55.2308655  47.5987053  71.3423729  54.7799015
  46.3814783  72.9645920  54.1893244  46.1764050  72.5254869  53.2129908
  45.4953146  73.5125160  54.5096159  47.4387693  74.0857744  54.0344954
  47.3423243  74.7015715  54.9286938  48.9031744  73.6121893  53.8095522
  48.7867069  72.8297377  53.0596876  49.5944738  74.3689585  53.4387350
  49.4510794  73.1626797  54.6377039  47.0039034  74.8950911  52.7972507
  46.0471773  75.3020859  53.1245565  47.7246761  75.6793547  52.5659180
  46.9546175  74.2645025  51.9095373  47.3077011  72.5852251  56.4880657
  48.4504890  72.4329996  56.8920374  46.4859200  73.4041452  57.2066069
  45.5235529  73.5408545  56.9322729  46.9782448  74.0605450  58.4420919
  47.8340054  74.6986485  58.2216311  45.8614492  74.8447704  59.0207195
  45.3775644  75.5148745  58.3101463  45.0768137  74.1786432  59.3795013
  46.3363886  75.6656170  60.1511765  47.0480156  76.7801619  59.8920631
  47.4819279  77.0009995  58.9280367  47.3592043  77.6713228  60.9490299
  47.8446054  78.6081648  60.7185459  46.8748283  77.4384212  62.2454786
  46.9337225  78.3842421  63.1429815  46.5267372  78.0564737  63.9482975
  46.2444782  76.1844301  62.5416422  45.9530020  75.8907938  63.5392523
  45.8984184  75.3621674  61.4140987  45.4622650  74.3965816  61.6234255
  47.4252605  73.0970383  59.5186138  48.5075951  73.2636213  60.0694084
  46.7327261  71.9908714  59.8192644  45.9184170  71.8076706  59.2505503
  47.2691727  70.8395290  60.5019093  47.4386168  71.0674763  61.5542507
  46.1859751  69.8235893  60.3283548  45.2795553  70.2091742  60.7950687
  46.0754108  69.5889759  59.2696619  46.4675760  68.5524845  61.1711550
  47.3466253  68.0850458  60.7274437  46.6289234  68.9568377  62.1704340
  45.2724218  67.5749588  61.2246799  45.3238964  66.5336227  61.9337177
  44.1827106  67.7336121  60.6564426  48.5509443  70.4051304  60.0484133
  49.5011997  70.2008581  60.7623720  48.7610483  70.1591587  58.7579775
  48.0096579  70.1871538  58.0836439  50.0494957  69.7971201  58.1929111
  50.3085613  68.8117361  58.5802221  50.0117588  69.6132898  56.6821098
  49.2440987  68.9022636  56.3767576  49.6540499  70.5606937  56.2789011
  51.2600994  69.3895912  56.1022425  51.3761616  70.0802326  55.4456282
  51.2193394  70.7601976  58.4768009  52.1904564  70.2419901  58.9855576
  51.0096073  72.0655251  58.3697224  50.0386906  72.3244190  58.2677460
  51.8197775  73.0716658  58.7736082  52.8158283  72.9176474  58.3585501
  51.2923670  74.4598722  58.2341576  50.2050829  74.4359636  58.3072853
  51.7542505  75.2760077  58.7897539  51.7125463  74.4928551  56.7601728
  52.7996254  74.5601749  56.7174244  51.3408995  73.6243439  56.2164259
  51.2144709  75.7886410  56.1347294  50.1680374  75.7822132  55.8297062
  51.4923811  76.6031885  56.8035889  52.0439720  75.9968948  54.7867012
  53.1135368  76.0491371  54.9901867  51.9500875  75.0362968  54.2801952
  51.6473627  77.0901918  53.8791227  52.2747564  77.0401382  53.0892086
  50.6869745  77.0794868  53.5666561  51.8239689  77.9901695  54.3021488
  52.0707512  73.1697226  60.2569437  53.1752682  73.5822630  60.6658506
  51.0703135  72.8673553  61.0874987  50.1588345  72.7495861  60.6686544
  51.2319422  72.7435541  62.5326300  51.7494965  73.6163139  62.9307890
  49.8871994  72.7323675  63.2556009  49.1415024  72.2828627  62.5998735
  49.9485922  72.0585203  64.1101551  49.4448090  74.1147566  63.7998247
  48.4333944  74.0023851  64.1903496  50.3418446  74.2919683  65.0401449
  51.4261532  74.2771292  64.9299240  50.1228714  75.2884388  65.4238129
  50.1225376  73.5883093  65.8431816  49.5507622  75.2763844  62.8596354
  50.5851889  75.5216122  62.6189470  48.9733219  75.0982380  61.9524860
  49.2538452  76.2166548  63.3242273  52.0449400  71.5757322  63.0127811
  52.9989767  71.7647600  63.7626600  51.8354368  70.3825712  62.4477625
  51.0747576  70.3758812  61.7833614  52.8097296  69.2777872  62.6478100
  52.9334307  69.1080809  63.7173891  52.4514008  68.0033493  62.0073318
  52.6163435  68.1489372  60.9397650  53.1869888  67.2387075  62.2570038
  51.0704470  67.3509407  62.3111582  50.8984566  66.9444180  63.6410284
  51.5701008  67.1059513  64.4712114  49.7467852  66.1777496  63.8960695
  49.5228052  65.7949638  64.8808050  48.7546492  66.0180664  62.9520416
  47.5013065  65.5666208  63.3542204  46.7758942  65.6738758  62.7346468
  48.9567184  66.4843225  61.6556168  48.2475853  66.2478256  60.8761263
  50.1449823  67.1298504  61.3056612  50.2811193  67.5605488  60.3246546
  54.2995405  69.5648527  62.2232294  55.2450895  69.0390968  62.8117323
  54.5160723  70.4939604  61.2575722  53.6892223  70.8407259  60.7926273
  55.8023548  70.8904219  60.8058596  56.4849091  70.0465631  60.9064674
  55.7625675  71.4971066  59.3747663  55.0833178  72.3448801  59.2852926
  56.7826033  71.8533993  59.2309618  55.2335119  70.3925991  58.4146023
  56.0511446  69.6812248  58.2983160  54.4459772  69.7863388  58.8621998
  54.8808622  70.7307816  56.9905758  53.9123154  71.2285995  56.9436502
  55.5839443  71.4220858  56.5259361  54.8560667  69.4964075  56.0075903
  55.7894421  68.9443970  55.8971643  54.1686440  68.7444258  56.3949776
  54.5467234  69.9238825  54.6402359  55.2820015  70.4146624  54.1517687
  54.5537710  69.0965843  54.0608931  53.6387157  70.3655720  54.6634388
  56.4407444  71.9672394  61.7600584  57.6350737  71.9080639  62.0935297
  55.6422043  72.8575611  62.4021387  54.6477604  72.8226805  62.2290182
  56.0516453  73.8401222  63.4282398  56.9437981  74.4050837  63.1580925
  54.9235964  74.8558664  63.6323881  53.9946413  74.3240595  63.8381243
  55.2852869  75.8000040  64.8248911  56.2495422  76.2565374  64.6015167
  54.4993305  76.5474939  64.9327421  55.4063272  75.1533222  65.6939411
  54.8229456  75.6924152  62.3355770  55.6605101  76.3894224  62.3079681
  54.8728323  75.1639366  61.3835573  53.4505653  76.3996935  62.3401022
  53.2563734  76.9028711  61.3928890  52.6975489  75.6732130  62.6455307
  53.3804846  77.1672821  63.1108141  56.4244223  73.0571938  64.7023201
  57.4762011  73.2850981  65.3399038  55.6666470  72.0315123  65.0206757
  54.8135424  71.8674040  64.5055199  55.8640385  71.1298227  66.2030172
  56.2250757  71.6380167  67.0971584  54.5186281  70.5529881  66.6625118
  54.0952349  70.0532722  65.7912350  54.6005869  69.7595739  67.4053955
  53.4625196  71.5382004  67.1715212  53.2418060  72.2754049  66.3995647
  52.1498060  70.8803558  67.5737572  52.2911787  70.2364254  68.4417772
  51.4165163  71.6433859  67.8348541  51.7698765  70.3252125  66.7161036
  54.0959358  72.3754168  68.2407284  54.7077465  71.7615223  68.9017248
  54.7025585  73.1843281  67.8335810  53.3236361  72.9314709  68.7721920
  56.8989801  70.0294018  66.0343647  57.1579456  69.3444824  67.0345068
  57.4827623  69.9040270  64.8776007  57.4162102  70.7243347  64.2921352
  58.1971502  68.7414026  64.3497419  57.4658537  68.0155754  63.9940882
  58.8637114  69.1106749  62.9783583  59.1778994  68.1465960  62.5784302
  58.0454111  69.4874144  62.3647165  60.1245022  70.0294399  63.0673409
  59.7709513  71.0037279  63.4047842  60.7523441  69.5581055  63.8234901
  60.9148502  70.0944519  61.7339230  60.4092264  70.3024673  60.6740046
  62.1945000  69.9390745  61.8269920  62.8303957  70.0885439  61.0566664
  62.5533867  69.5398045  62.6824903  59.1988277  68.1747818  65.3356314
  59.8314714  68.8832140  66.1637354  59.4304228  66.8144608  65.2395105
  58.7469006  66.2577057  64.7466421  60.6857538  66.2109280  65.7371235
  60.9798574  65.2812815  65.2499294  61.3907623  67.0275164  65.5814219
  60.7902575  66.0105658  67.2288704  61.8982792  65.8923197  67.7410412
  59.6545124  66.0565710  67.9626465  58.7717819  66.0674191  67.4719620
  59.6425056  65.7755661  69.4000959  60.6608629  65.6788445  69.7765064
  59.1406202  66.5632534  69.9620247  58.8540745  64.4792795  69.6671820
  58.2383060  63.9146805  68.7915802  58.8334465  64.0787125  70.9247112
  59.2585135  64.6467733  71.6435528  58.1112051  62.8637981  71.3140297
  58.5387182  62.0236397  70.7667875  58.3549547  62.4871731  72.7697182
  57.8046608  63.2174921  73.3629417  57.8315020  61.0385418  73.0228043
  56.7439604  61.0465288  73.0955696  58.2126522  60.3620577  72.2578239
  58.1883764  60.8133745  74.0278101  59.7959471  62.3857832  73.1568336
  59.8291683  62.1895123  74.2285061  60.2550077  61.6226625  72.5283289
  60.2554655  63.3706045  73.0727053  56.6129541  62.9463911  71.0255289
  56.0221291  63.9248323  71.4606619  55.9668207  61.9752645  70.4280090
  56.5531588  61.2041187  70.1422834  54.5995188  61.7829466  70.1933622
  54.4789505  60.7550526  69.8513222  54.1088820  61.8584728  71.1637640
  53.9767361  62.8299809  69.2289829  52.9052305  63.3802700  69.4662142
  54.7184658  63.1614733  68.1802225  55.5219841  62.5707674  68.0204725
  54.4633532  64.2203093  67.1259117  53.4028339  64.4679737  67.1713781
  55.2802086  65.5332327  67.3986244  56.3165951  65.2605438  67.5977135
  55.3382349  66.4293432  66.1291027  55.9431362  65.8899784  65.4002142
  54.3969202  66.7635727  65.6928492  55.9180498  67.3371840  66.2956810
  54.6817541  66.4029837  68.5615683  54.6265459  65.8259487  69.4846535
  55.3291512  67.2650719  68.7221384  53.2960415  66.9426537  68.2823324
  53.0700016  67.3147106  67.2830391  52.5059271  66.2402678  68.5478115
  53.2058239  67.8198433  68.9230347  54.8111105  63.5197163  65.7978249
  55.8083153  62.8208828  65.6430387  53.8047934  63.3381653  64.9612379
  52.5297260  63.9438868  65.0305653  52.5510454  65.0241899  65.1740646
  51.9260550  63.6027527  65.8715820  51.8562126  63.6502028  63.7226248
  51.9706106  64.4352388  62.9751396  50.7851458  63.5337877  63.8880444
  52.5242662  62.3717308  63.2881021  52.4053335  62.0734310  62.2464848
  52.1486807  61.5776443  63.9334393  53.9798164  62.5630283  63.7272263
  54.3620253  61.5780592  63.9952803  54.7775221  63.2470465  62.5837469
  54.4373369  64.3709469  62.1262360  55.7350349  62.5262308  62.0045042
  56.0297632  61.6351604  62.3776340  56.3636589  63.1018972  60.8439779
  56.6201973  64.1443348  61.0327053  57.7176762  62.3878813  60.6088209
  58.4531069  62.6609373  61.3655806  57.5464725  61.3128614  60.5529499
  58.4465599  62.6594734  59.3202829  58.4131241  61.8559361  58.1307697
  59.1971445  62.5133944  57.2478151  59.5163345  62.0901966  56.3068438
  59.7749138  63.5634613  57.7835417  60.4192352  64.0961409  57.2167921
  59.2503881  63.7392664  59.0457296  59.4294310  64.5539427  59.7317600
  55.4403448  62.9614449  59.5794964  54.7270775  61.9342661  59.4354010
  55.4867887  63.8891315  58.6307049  56.0926628  64.6277046  58.9586210
  54.7556448  63.9497614  57.3549843  53.8474035  63.3471394  57.3480558
  54.2703438  65.4328823  57.1457958  55.0641632  66.1423922  56.9122362
  53.4008789  65.4673290  55.8688927  53.0435801  66.4615059  55.6004620
  53.9827156  65.2367067  54.9764919  52.6720715  64.6568871  55.8798838
  53.6197233  66.0307741  58.4039736  54.3400240  66.0269976  59.2220592
  53.3111954  67.0063019  58.0281353  52.4440622  65.2465057  58.9574099
  51.8374729  65.0170612  58.0813408  52.8350830  64.2526674  59.1753292
  51.8856716  65.7459974  59.7491264  55.6461573  63.5278034  56.2005091
  56.6514015  64.1364574  55.7947159  55.2632141  62.4715328  55.5186701
  54.3756151  62.0556927  55.7622766  55.8113432  62.0106983  54.2283821
  56.8948793  61.9257927  54.3111181  55.4137993  60.6212044  53.8035727
  54.3567991  60.7350063  53.5629272  56.0021544  60.1899624  52.9936504
  55.4662085  59.6524334  54.9924517  54.7801542  59.9450111  55.7873297
  55.1260662  58.6457396  54.7496080  56.8916178  59.4298220  55.4539490
  57.4776793  59.0113068  54.6357298  57.3632145  60.3609800  55.7680178
  56.9752455  58.4202290  56.5225363  57.3418045  57.4963522  56.3431263
  56.6590214  58.5799503  57.8030252  56.3372087  59.7178698  58.2973289
  56.6694164  60.4729462  57.7145815  56.0213518  59.7625017  59.2556286
  56.7035437  57.5962448  58.6160421  56.7274380  56.6667414  58.2216311
  56.6804409  57.8513098  59.5930290  55.5205917  63.0015326  53.1266308
  56.5204334  63.3303404  52.4287605  54.2448521  63.4001017  52.9769993
  53.5773325  63.2354259  53.7168646  53.6422014  64.0563726  51.7755556
  54.4083023  64.7607422  51.4514446  53.6015558  63.0107450  50.6230974
  54.5922041  62.6663160  50.3263187  53.0775070  62.1119595  50.9481525
  52.7657080  63.4542036  49.4573021  53.3273220  63.8606834  48.3121824
  54.3789196  64.0283442  48.1320858  52.3622036  64.1225529  47.3934078
  52.6387501  64.6240377  46.5614557  51.0967207  63.9296961  47.9001808
  49.8533010  64.0339851  47.3004055  49.6646309  64.3796253  46.2947512
  48.6812687  63.6365986  48.0046558  47.7083063  63.6640882  47.5366879
  48.9190006  63.0877161  49.3212175  48.0434036  62.8026247  49.8855305
  50.2018929  62.9589796  49.8735428  50.3193569  62.5384474  50.8613443
  51.3666153  63.3664751  49.1818380  52.2634459  64.7367287  52.0458364
  51.4225006  64.2287970  52.7685785  51.9212532  65.8569813  51.4250278
  52.5321341  66.1924696  50.6940126  50.6131411  66.4410543  51.4226055
  49.9342442  65.7154131  51.8705463  50.6520271  67.7765417  52.1298170
  50.6178617  67.5803232  53.2014656  51.5247345  68.3566475  51.8298912
  49.3918562  68.5658741  51.9269276  48.2510424  68.2024097  52.6137590
  48.3745956  67.4105120  53.3376598  47.0382261  68.8270617  52.3198462
  46.1750412  68.5966444  52.9266596  46.9642973  69.9168015  51.4998341
  45.8064032  70.5474806  51.1555815  45.1376104  70.5382299  51.8442202
  48.1687021  70.3785801  50.8996773  48.1175232  71.2799931  50.3070259
  49.3947887  69.7493744  51.1162710  50.2627325  70.1519966  50.6152964
  50.1401281  66.6518164  49.9590158  50.9781551  67.1375227  49.1124630
  48.8406849  66.4999056  49.7304916  48.2547235  66.2383032  50.5104399
  48.2353163  66.9730377  48.5297012  48.5196733  68.0156088  48.3872509
  48.7555742  66.5572357  47.6668358  46.6925430  66.8403625  48.4575891
  45.9773827  67.0572090  49.4876766  46.2200594  66.4395857  47.2979927
  46.7978954  66.5533829  46.4774704  44.7702169  66.3375473  46.9321346
  44.1720390  66.0760212  47.8049946  44.0895557  67.5190687  46.2833929
  44.3259573  68.3744335  46.9162989  44.6795559  67.6487780  45.3761053
  42.5727749  67.5919151  45.9983873  42.4072504  66.7231369  45.3612566
  42.0058537  67.4653912  46.9207144  42.1078205  68.8019228  45.2517891
  41.2940264  69.5657682  45.6353855  42.5757647  68.9863443  44.0363741
  42.1352243  69.7102451  43.4868383  43.1590509  68.2883358  43.5974407
  44.5275784  65.1559162  45.9921789  45.3290844  64.8608065  45.0967312
  43.3962440  64.4912624  46.1106777  42.7837372  64.6226978  46.9029284
  43.0322552  63.3028221  45.2476406  43.8253927  63.0906963  44.5306826
  43.0670452  62.0783091  46.2141132  44.0541840  62.0374107  46.6745234
  42.4915028  62.3234797  47.1067190  42.5770235  60.7381916  45.6883001
  42.6188421  60.0943995  46.5668678  41.5152311  60.6454182  45.4600525
  43.4277153  60.3030491  44.5614958  44.6542025  60.3981972  44.6787643
  42.9131222  59.7742271  43.5469818  41.7727375  63.5984659  44.4622898
  41.7653942  64.5649433  43.6585522  40.6432867  62.8729725  44.5716572
  40.7659435  62.0816708  45.1872063  39.4383287  62.9947329  43.7342405
  39.7675300  62.7806139  42.7174425  38.4209704  61.9156218  44.0732527
  38.9084935  60.9407282  44.0763474  37.8591108  62.1545219  44.9762106
  37.4525666  61.7889166  42.8661156  36.7703843  62.6324415  42.9719257
  38.0659461  61.9289255  41.9760180  36.5729070  60.5574989  42.9878998
  37.2425318  59.7231245  42.7792740  36.2759590  60.4059458  44.0256643
  35.3263259  60.5102921  42.0904303  35.0305820  59.4613171  42.0733929
  34.5524168  61.0894012  42.5942135  35.5797553  60.9295273  40.7117987
  34.6994638  61.0293531  40.2267981  36.1922336  61.7291117  40.6367159
  36.0267282  60.2127695  40.1581049  38.7357402  64.4037485  43.7498760
  38.4922767  65.1079226  42.7494287  38.5387015  64.8104906  44.9892282
  38.6875319  64.1473818  45.7363796  37.9178309  66.0964584  45.3416395
  38.4113908  66.8932295  44.7851753  36.4299393  65.9826183  44.9286890
  36.0478091  67.0032024  44.9507046  36.4488459  65.6350279  43.8957691
  35.5228162  64.9288321  45.5472088  35.8571100  64.2370462  46.5417671
  34.3676114  64.7758579  44.9741888  38.0969501  66.3376570  46.8503761
  37.3040366  67.0118904  47.4723053  39.1700149  65.8237648  47.4385834
  39.9485803  65.4120064  46.9442272  39.4373083  66.0012197  48.8833618
  39.0234208  66.9473171  49.2322159  38.9745164  64.8713493  49.7213030
  39.3737698  65.1253510  50.7032299  37.8890610  64.9650431  49.7547722
  39.3397141  63.4682751  49.2345047  40.3295279  62.7572632  49.9802637
  40.7993364  63.3106947  50.7798862  40.6964016  61.4399719  49.7455978
  41.4446831  60.9213781  50.3265715  39.9966860  60.7460356  48.7337303
  40.3648710  59.4615316  48.3825827  40.8885384  59.0211248  49.0559435
  38.9171863  61.3250971  47.9784632  38.3972645  60.6940842  47.2728395
  38.5944939  62.6976109  48.2236242  37.8503847  63.2659817  47.6854277
  40.9427357  66.0273504  49.1488647  41.6282749  65.2831745  48.4774828
  41.3384295  66.8517160  50.0654221  40.5516529  67.1887875  50.6015778
  42.7386808  66.9604301  50.4275036  43.3604050  66.9729137  49.5322943
  42.9600239  68.2980061  51.1767721  42.4409437  68.2097816  52.1311665
  44.0356779  68.3814287  51.3320255  42.5187111  69.5753193  50.3481722
  42.8573322  69.7797298  49.2209578  41.8318367  70.5021048  50.9318733
  41.4764929  71.2200356  50.3167200  41.5707779  70.5703163  51.9051647
  43.2618999  65.7685471  51.2945318  42.4923658  65.1223660  51.9915533
  44.5360804  65.4949713  51.2088633  45.0529051  66.1467361  50.6359768
  45.1602316  64.2422485  51.7041111  44.5266199  63.8567924  52.5028992
  45.3367376  63.1514502  50.6208706  46.1005116  63.5101032  49.9308586
  45.8825827  61.8164158  51.1369181  46.5860987  61.9958591  51.9499159
  45.0593472  61.1940718  51.4877510  46.3303232  61.3145924  50.2791309
  44.1517210  62.7785444  49.7832537  43.2642841  62.5287867  50.3648043
  43.9262009  63.5850954  49.0856075  44.4143295  61.9060040  49.1850805
  46.5542269  64.5821810  52.3201180  47.3550177  65.1897573  51.6530514
  46.7890167  64.0182638  53.4635544  46.0440397  63.4574080  53.8515711
  48.0376577  64.2113590  54.2035294  48.8462162  64.6342421  53.6072874
  47.8637552  65.2006340  55.4034138  47.6659107  66.1889553  54.9884701
  46.9525528  64.8550081  55.8916283  49.0859604  65.2673626  56.3749027
  49.4831371  64.2844582  56.6283703  50.1250410  66.1479616  55.6955957
  49.6561623  66.8535376  55.0097227  50.7094574  66.6743994  56.4501905
  50.7971096  65.4709387  55.1682758  48.5866880  65.8936501  57.6514482
  47.7288389  65.3653193  58.0674410  49.4318056  65.7126284  58.3156109
  48.4529638  66.9753742  57.6614189  48.4843493  62.8283072  54.6543264
  47.6587391  62.1276665  55.2259398  49.7046947  62.3834705  54.3794107
  50.2876282  63.1419992  54.0555000  50.3530931  61.0894728  54.6524143
  49.5958233  60.4282379  55.0736141  50.8886671  60.4092264  53.4152937
  51.6871405  61.0301638  53.0091286  51.5178728  58.9754486  53.7725210
  52.4026918  59.1798925  54.3753481  50.7885122  58.3620930  54.3016052
  51.8713284  58.5133743  52.8507519  49.8725748  60.1996422  52.3185682
  49.4110870  59.2283440  52.4966717  49.1158485  60.9787464  52.4105644
  50.2846003  60.2603912  51.3112736  51.4500523  61.2404442  55.7294178
  52.3245716  62.1281099  55.6286907  51.4533234  60.3868341  56.7523241
  50.6382132  59.7974586  56.6610575  52.2982407  60.4066372  57.9640865
  53.2915783  60.7422733  57.6662064  51.6446161  61.3626766  58.9552593
  52.2230148  61.5416479  59.8616409  51.5619564  62.3408318  58.4814596
  50.2686930  60.8400488  59.4182110  49.5726681  60.8923531  58.5810089
  50.3229046  59.7779655  59.6572542  49.5409346  61.7815351  60.8595419
  49.0158796  63.3436966  60.0293636  48.2350874  63.7656784  60.6621313
  49.9227476  63.9470291  59.9883652  48.6949730  63.0234480  59.0381193
  52.5352335  59.0319920  58.7536430  52.1075010  57.9539776  58.3701372
  53.3455610  59.1034508  59.8381090  53.9862728  59.8812199  59.9063873
  53.5575867  58.1556702  60.8852196  54.2887306  57.3876619  60.6328487
  54.1888285  58.8334799  62.0985794  53.7050629  59.7549152  62.4226522
  54.0216017  58.1786060  62.9537249  55.6723022  59.1958904  61.9819212
  56.2374067  59.0359783  60.9082556  56.3161993  59.6688557  62.9513311
  52.2039890  57.4468803  61.2562275  51.2219000  58.1506968  61.4685774
  52.1652412  56.1385965  61.2984419  53.0501890  55.6707573  61.1639595
  51.1045218  55.2749729  61.6912746  50.1506996  55.6679058  61.3392353
  51.3413525  53.8297701  61.1087990  51.3469601  53.8578033  60.0191736
  52.3539066  53.5368395  61.3863468  50.4320431  52.7166462  61.5418863
  50.4233932  52.6321316  62.6285696  48.9784765  53.0457687  61.1964130
  48.3705616  52.1628571  61.3939047  48.5245991  53.7756157  61.8668032
  48.8937902  53.3844185  60.1638174  50.8080435  51.4730501  60.8332253
  50.1702547  50.6793451  61.2222719  50.5766678  51.5762186  59.7730732
  51.8613768  51.2337065  60.9791756  50.9871626  55.1631880  63.2279253
  51.9851208  54.9685955  63.9573622  49.7965908  55.3011322  63.7791538
  49.0292358  55.4823065  63.1479263  49.4575644  55.4568529  65.2305698
  50.3474426  55.2646542  65.8299637  49.0154028  56.8808794  65.5727196
  48.0285501  57.0681000  65.1494265  48.9573956  56.9910955  66.6555834
  49.8764229  58.1272697  65.1801014  49.9767447  58.0303478  64.0990639
  49.1264439  59.3612814  65.5291557  48.1290007  59.3632507  65.0896025
  48.9632225  59.5205498  66.5950346  49.8214102  60.1336336  65.1996183
  51.2988281  58.0995941  65.7730579  51.7533255  59.0713263  65.9660769
  51.3088083  57.5738096  66.7278099  51.9656754  57.5699425  65.0927067
  48.4419394  54.3872404  65.6805277  47.9033995  53.6404896  64.8507738
  48.2679796  54.3095350  66.9518900  48.7694263  54.9906921  67.5038671
  47.2535515  53.4996414  67.5364161  46.9413424  52.7006102  66.8639708
  47.7352047  53.0449820  68.4020901  45.9895706  54.3490458  67.8172445
  45.8116627  55.4456949  67.2370958  45.0639772  53.8072157  68.6408234
  45.1166582  52.4712420  69.2587233  46.0428047  52.2884560  69.8036480
  44.8916578  51.7933607  68.4353447  44.0622759  52.4250603  70.2770948
  44.4447994  52.9189587  71.1703157  43.8308573  51.3866234  70.5141258
  42.9373312  53.1952524  69.5699310  42.0870447  53.4078407  70.2179480
  42.4551535  52.6696920  68.7456703  43.7768173  54.3943167  69.0153408
  43.2820463  54.7128677  68.0978298  43.7730980  55.5910540  69.9679804
  44.7027254  55.9445143  70.6574488  42.6310062  56.3839245  69.9324036
  41.8082476  56.1664152  69.3884706  42.4809742  57.5241899  70.8777380
  43.4390736  58.0354214  70.9715176  41.4329529  58.5206890  70.3573656
  41.6586924  59.4306803  70.9132957  41.6354084  58.7247562  69.3059492
  40.0951195  58.0501270  70.4900265  39.8308134  57.4265146  69.8096943
  42.1182680  57.0987892  72.2778320  41.5635443  56.0253429  72.5136089
  42.4671221  57.9489946  73.2577419  42.9469585  58.8003731  73.0027580
  42.0939589  57.6628113  74.6682549  42.5355434  56.6879034  74.8748064
  42.6843214  58.6620617  75.6866884  42.3905373  59.6689701  75.3901529
  42.2757912  58.4720659  76.6792154  44.2533159  58.7545395  75.9002209
  44.6709204  59.0363836  74.9336433  44.4532537  59.9753952  76.8470573
  44.0738630  59.8163795  77.8564548  45.5302572  60.0886297  76.9709301
  43.8181639  60.7940292  76.5085363  44.9601746  57.5169802  76.3955545
  44.4256067  57.1654177  77.2780180  45.0307846  56.7663193  75.6083918
  45.9601212  57.6452732  76.8099833  40.5879164  57.5416756  74.8739624
  40.2433157  56.8322325  75.7687235  39.6992493  58.2165623  74.1488791
  40.0860405  58.9653778  73.5923100  38.2856512  57.9898071  73.9956236
  37.8912902  58.1083584  75.0048447  37.7674246  58.8609982  72.8163052
  37.8848743  59.8931694  73.1463480  38.3722448  58.8010025  71.9114876
  36.2967324  58.7576771  72.4016666  36.0564327  59.6605968  71.8403387
  36.3324571  58.0118942  71.6075373  35.3091216  58.4000492  73.4621429
  35.1219249  59.2400599  74.4199705  34.5499539  57.4075174  73.4200525
  38.0159593  56.5017176  73.6285925  37.4001861  55.7605553  74.4118214
  38.5468841  55.9898090  72.5278664  38.9690042  56.6423035  71.8827581
  38.4526753  54.5951939  72.0053434  37.3873353  54.3802691  71.9218636
  39.1088939  54.4521999  70.6167603  40.1333618  54.7844076  70.7847071
  38.9624286  53.4552050  70.2012491  38.5768986  55.4393482  69.5915794
  39.3326998  56.0347128  68.8381910  37.3489189  55.5230951  69.3307829
  39.0127563  53.5608387  72.9730940  38.3303475  52.5798416  73.2674313
  40.2033186  53.7747812  73.5479307  40.5575418  54.7054386  73.3790970
  40.7532072  52.9262209  74.6138620  40.8650064  51.9190931  74.2122459
  42.1782017  53.5191298  74.9750710  42.1493721  54.6049833  75.0656176
  42.5019884  53.0516291  75.9049654  43.2768965  53.1464815  73.9811373
  42.8889084  53.3606720  72.9853058  44.5556068  53.9734602  74.1060257
  45.3683662  53.4640455  74.6237469  44.8616743  54.2046022  73.0857325
  44.3551588  54.9299669  74.5887375  43.6818647  51.6795158  73.9232063
  42.7772284  51.0727978  73.9636564  44.3741512  51.5504789  73.0912304
  44.1534281  51.4858723  74.8866606  39.9153566  52.9519558  75.9053802
  39.7255921  51.9246912  76.5761995  39.3462253  54.0947104  76.3507366
  39.4455409  54.8704290  75.7115936  38.3500195  54.2348862  77.4512339
  38.7657738  53.8606977  78.3867693  37.9132986  55.7585239  77.6144314
  38.7815881  56.4094782  77.7165461  37.3380589  56.1394405  76.7705679
  36.9797039  56.1564064  78.8387775  37.0716667  55.4837132  80.0702190
  37.6821947  54.6017075  80.1956081  36.4020395  55.9542894  81.2041759
  36.4866233  55.4912281  82.1761894  35.4841447  57.0391941  81.0614395
  34.8579669  57.2999477  81.9018650  35.2903795  57.6457548  79.7995949
  34.5724416  58.4501600  79.7370529  36.0782695  57.2650146  78.7077761
  36.0213351  57.8199148  77.7829790  37.1413612  53.2749557  77.1570683
  36.5800285  52.6453876  78.0852175  36.7397165  53.1659746  75.8391571
  37.2543669  53.8129091  75.2588892  35.5894089  52.3720980  75.2766037
  34.7761989  52.4692535  75.9958744  35.0820827  53.0795765  73.9928818
  34.9095058  54.1397858  74.1780329  35.7777071  52.8713846  73.1799459
  33.6759925  52.6832342  73.7544441  32.7475333  52.9327917  74.5416498
  33.4322953  52.0496559  72.6343060  32.4680066  51.8612337  72.4003220
  34.1371918  51.7516756  71.9751930  35.9266305  50.8526039  75.2263784
  35.0892115  50.0828552  75.5626059  37.1043754  50.5127859  74.8253059
  37.6857924  51.2745285  74.5062447  37.6701093  49.1914654  74.9000883
  37.0570517  48.5024261  74.3191528  38.9948249  49.3231726  74.1254044
  38.8215947  49.7113657  73.1217098  39.5153379  50.1379681  74.6286678
  39.9201035  48.1430197  74.0357971  39.8134041  47.2481918  72.8676844
  39.0920758  47.3417664  72.0693588  40.8172607  46.2335920  72.7755356
  40.8489656  45.6530905  71.8653631  41.7302418  46.0495186  73.7891865
  42.5588179  45.3656530  73.6787558  41.7657900  46.7867136  74.9738646
  42.4442053  46.5257835  75.7726622  40.8594275  47.8744888  75.0477362
  40.8095694  48.4797812  75.9407902  37.8310156  48.6580133  76.3472128
  37.5598836  47.5028944  76.6892052  38.1715989  49.5271587  77.2649956
  38.4489679  50.4391623  76.9312096  38.2858396  49.2348433  78.6350536
  38.7654209  48.2633352  78.7544966  39.2711830  50.1728392  79.3377924
  38.9748430  51.2134457  79.2057943  39.1851354  49.9158287  80.3935623
  40.9656954  49.8856449  78.7005854  40.7480288  50.6723022  77.6428986
  36.8933225  49.0978575  79.3395185  36.8367290  49.0174818  80.5898476
  35.7844901  49.3757105  78.6104059  35.8710456  49.4270611  77.6054335
  34.3717194  49.3856621  79.0288734  33.7983799  49.6937656  78.1545448
  33.8403583  48.0097675  79.4940519  34.3348742  47.5957966  80.3727913
  32.7584624  48.0602169  79.6167660  34.1361451  47.1555471  78.4196663
  33.6345100  47.3204756  77.6179409  34.0431190  50.5177021  80.0138283
  33.5022473  50.2770901  81.1652565  34.3502688  51.7660856  79.5897579
  34.7156262  51.8399382  78.6510563  34.0658998  53.0095577  80.2499771
  34.6052337  53.7670135  79.6812248  32.5587964  53.3356857  80.0833511
  32.0398188  52.4981499  80.5494976  32.4132609  54.2141199  80.7120609
  31.9322252  53.6574650  78.7838554  31.9421101  52.8077221  78.1012583
  30.9400797  54.0663815  78.9749813  32.8055096  54.7628403  78.1511641
  33.0554223  55.5378437  78.8757467  33.7985015  54.3650103  77.9418802
  32.2442389  55.3399944  76.9424915  31.2482762  55.2554703  76.7975378
  32.9315925  55.9178686  75.9834146  34.2339540  55.8536959  75.9330416
  34.7720742  55.2678490  76.5553951  34.5798421  56.2213326  75.0582266
  32.3506594  56.4933538  74.9859667  31.3655615  56.6805267  74.8649216
  32.9379034  56.7402077  74.2021894  34.5535707  53.0256224  81.7463875
  33.8214588  53.3879614  82.6459789  35.7906485  52.7047396  81.9187069
  36.1836243  52.2393322  81.1130619  36.3132453  52.5885820  83.2494450
  36.1008286  53.5133934  83.7858295  35.6902862  51.3222075  83.9417648
  34.6327400  51.4949942  84.1413689  35.7681584  50.4869080  83.2458305
  36.3223863  51.0120773  85.3068542  37.3820758  50.7577658  85.3288555
  36.2033510  51.9224882  85.8942986  35.6765723  49.8751211  86.1224079
  36.1519361  49.6935463  87.0863342  34.6988034  50.1913977  86.4857769
  35.6621623  48.5578537  85.3680038  35.9090519  48.5302067  84.3890381
  34.8286629  47.5666618  85.7121086  34.2643452  47.5088072  86.8590069
  34.4247556  48.1575060  87.6163483  33.4769058  46.8783188  86.9092751
  34.6883178  46.5818977  84.8725224  35.2181602  46.5948772  84.0127563
  34.1815162  45.7445049  85.1215744  37.8615499  52.4952412  83.2371426
  38.3896351  51.4527321  82.9954338  38.5114956  53.6015797  83.6183643
  37.9083514  54.3431234  83.9445972  39.9218106  53.6584377  83.8932133
  40.4263210  52.7733088  83.5057640  40.4893064  54.9416018  83.3709335
  39.8947859  55.7948637  83.6974144  41.5089083  54.9551296  83.7560654
  40.5976963  55.0409842  81.8568420  41.3520098  54.0658331  81.1943245
  41.6444778  53.1936359  81.7601299  41.5555811  54.2117977  79.7620821
  42.1902657  53.5131025  79.2372942  41.2166929  55.4120016  79.1599894
  41.3830853  55.5682278  78.1043816  40.5024242  56.4358711  79.8455667
  40.1407146  57.3024607  79.3121004  40.2588797  56.2364483  81.2333298
  39.7620869  57.0335770  81.7664242  40.1919842  53.5662270  85.4173374
  39.5906520  54.3311834  86.1519241  41.0890293  52.7320766  85.8757210
  41.4906645  52.0644379  85.2330399  41.8302584  52.8577709  87.1516132
  41.0948801  53.0350351  87.9364014  42.7943087  51.7303944  87.4694443
  43.3772850  51.8700361  88.3797932  42.0051765  50.3990841  87.6572132
  42.5806379  49.4911671  87.8378868  41.2983561  50.5114317  88.4793377
  41.5183783  50.1730680  86.7085075  43.6755085  51.4226675  86.3636971
  43.1357479  51.1930656  85.6037331  42.7059078  54.1263580  87.1559811
  43.2832289  54.5933199  86.1527920  42.6538563  54.7780609  88.2792568
  42.0648193  54.3895102  89.0018654  43.2283592  56.1161804  88.4302139
  42.7928734  56.7360115  87.6464748  42.8329325  56.6464329  89.8730469
  41.7461538  56.7297554  89.8809147  43.0132151  55.8552599  90.6008148
  43.4114647  58.0708885  90.1210117  44.4866467  58.0211067  90.2930546
  43.1729317  58.7428284  89.2965794  42.8757334  58.7364197  91.7815495
  41.1635494  59.1912889  91.2455654  41.3449192  60.0696325  90.6261063
  40.6341267  58.4728336  90.6197643  40.4591799  59.4315052  92.0419693
  44.7470570  56.1429644  88.2079792  45.2546406  57.1025276  87.6912880
  45.4439974  55.0515795  88.3351326  44.9886370  54.3297338  88.8752079
  46.8953562  54.9647284  88.0460072  47.5939369  55.6053782  88.5842037
  47.4082327  53.5385561  88.3413315  47.1870470  53.3048010  89.3827438
  46.8457556  52.9421902  87.6229572  48.9184761  53.3703089  88.0743313
  49.2205524  53.5760784  87.0474339  49.5040131  53.8858843  88.8355350
  49.1238022  51.8771410  88.1186390  49.0293074  51.5733099  89.1611671
  48.3715963  51.4320469  87.4673462  50.5272055  51.3869858  87.5791740
  50.6032610  51.9261456  86.6349220  51.2837553  51.8359613  88.2227230
  50.5941248  49.9762726  87.2229576  50.7416773  49.3352938  87.9894257
  49.7350311  49.6853638  86.7786217  51.3448668  49.8108339  86.5678883
  47.2055340  55.2644348  86.5580940  48.1619644  55.9499931  86.2862778
  46.3854837  54.7447348  85.6287766  45.6493187  54.1246700  85.9348392
  46.3926554  55.1036739  84.1750908  47.3288298  54.8105431  83.6999512
  45.3486586  54.2543411  83.5647202  44.4228840  54.2880917  84.1390896
  44.8438597  54.6637726  82.2046661  44.3849087  53.7875843  81.7466831
  44.3153286  55.6111050  82.0982361  45.7849932  54.8225117  81.6781998
  45.8076239  52.8621101  83.5308456  44.9604607  52.4243498  83.6416721
  46.1198044  56.5531969  83.9776993  46.9917011  57.1781015  83.3373737
  45.0898552  57.1005392  84.5436001  44.5513391  56.6055918  85.2401066
  44.6388721  58.4744501  84.3321419  44.5943022  58.6252165  83.2535362
  43.2975435  58.7018776  84.9835205  43.5151148  58.4949636  86.0313511
  42.8111458  60.0992012  84.5222569  43.4426928  60.9163618  84.8708153
  42.7407312  60.1506281  83.4357452  41.7715693  60.1280022  84.8486805
  42.2547150  57.6924562  84.4307518  42.4386692  57.5364017  83.3677769
  42.2507477  56.7820692  85.0301552  41.2399149  58.0454016  84.6143627
  45.6421947  59.4951296  84.8099136  45.8301067  60.4209566  84.0592098
  46.3044071  59.2577124  85.9289932  46.0176134  58.3981133  86.3750076
  47.3609829  60.0067806  86.5101147  46.9886017  61.0307693  86.5398598
  47.7586126  59.5645380  87.9332733  48.0966043  58.5288811  87.8975296
  48.6838245  60.0872374  88.1759167  46.7858315  59.6080542  89.1180229
  45.8224344  59.1896248  88.8266850  47.1747112  58.9049578  90.4378700
  48.1411314  59.3315840  90.7064056  46.4134169  59.2333937  91.1454487
  47.2706127  57.8417158  90.2178288  46.5852213  61.0945463  89.5794964
  46.3241053  61.6487741  88.6779690  45.6552267  61.2360954  90.1301098
  47.4749327  61.4970541  90.0637531  48.6234140  59.9867010  85.6134892
  49.0387583  61.0554123  85.1470470  49.1586924  58.7718058  85.3491879
  48.6030865  57.9953241  85.6785393  50.2609348  58.5466957  84.3964481
  51.1603022  59.0168715  84.7941589  50.5991554  57.0121384  84.2777443
  50.4989100  56.5636826  85.2661514  49.8879147  56.4409828  83.6810780
  51.9678450  56.5959501  83.7080479  51.9819546  56.4965534  82.6226807
  52.6618433  57.4205685  83.8707638  52.6297712  55.0623846  84.3869019
  51.3060665  53.8405466  84.2364693  50.4762125  54.0392399  84.9146748
  50.8734846  53.7717867  83.2383442  51.9191885  52.9848814  84.5193481
  49.9818563  59.3102217  83.0395317  50.8607054  59.8037720  82.3936844
  48.6908007  59.3062210  82.5664043  47.9984808  58.8156462  83.1142426
  48.3632612  59.9436808  81.2850189  49.1894627  59.8656034  80.5783367
  47.1436167  59.3133545  80.6677818  46.3438892  59.2532158  81.4059639
  46.8012142  60.0151062  79.9072504  47.4204922  57.9034472  80.1895618
  47.9174852  57.4053717  81.0220337  46.1131048  57.0642233  79.9462032
  45.5982304  57.5297308  79.1057730  46.3398600  56.0157013  79.7530985
  45.4238510  57.0814800  80.7904339  48.2050323  57.5724602  78.8678217
  49.1502714  58.1002855  78.9943790  48.3527136  56.4948750  78.7964344
  47.6796770  57.9716587  78.0002165  48.1679058  61.4931583  81.4621353
  48.6762619  62.2560501  80.6736660  47.5880480  61.9910192  82.5797272
  47.2064590  61.3202333  83.2312965  47.5168562  63.3828926  82.8680038
  46.9624853  63.8141775  82.0344734  46.8185616  63.6427116  84.2722893
  45.9022856  63.0752754  84.4352722  47.4221325  63.3921432  85.1446533
  46.7424631  64.7168446  84.4412422  48.8545322  64.1420412  82.8979301
  49.0954733  65.1635408  82.2574329  49.8924589  63.5820818  83.4573555
  49.6563005  62.7992773  84.0502644  51.3120079  63.9888430  83.4334183
  51.4320660  64.9695158  83.8938236  52.2611666  63.0275631  84.1926003
  51.9997787  63.2087040  85.2351761  51.9564676  62.0225430  83.9007092
  53.7520456  63.1665850  83.8973522  54.3883991  64.0243721  84.5287514
  54.3983555  62.4551010  83.0773735  51.7401361  64.1576576  81.9553852
  52.3703766  65.2224207  81.6462708  51.5478420  63.2031441  81.1093807
  50.9359694  62.4537182  81.3993454  51.8287659  63.3167982  79.7116280
  52.8165150  63.7658834  79.6078253  51.9800425  61.9070768  79.1484308
  51.0771179  61.3323927  79.3547440  51.9947624  62.0184565  78.0642366
  53.2007217  61.0268354  79.6389484  53.1285572  60.9969568  80.7261467
  53.0959463  60.0310993  79.2080975  54.6114349  61.5921736  79.3420362
  55.1159954  61.6931105  78.2720470  55.3293133  61.9075060  80.3861523
  56.2629747  62.2790670  80.2845860  54.8281384  61.9588709  81.2615395
  50.9145212  64.1991615  78.8915920  51.2878895  64.8454475  77.9253054
  49.6215391  64.3262625  79.3163204  49.2486000  63.8302898  80.1132011
  48.7421322  65.2256489  78.5613632  48.9105511  65.0860977  77.4935341
  47.3072863  64.9511194  78.8991117  47.1710062  64.8813486  79.9783087
  46.7040825  65.8164263  78.6243534  46.6759539  63.7157726  78.0906487
  46.7210913  63.8607550  77.0112753  47.1777248  62.7755594  78.3193922
  44.8605061  63.3693409  78.3183861  44.8993874  62.6141310  79.9814844
  44.9022436  63.4061241  80.7303810  44.1151571  61.8707180  80.1243782
  45.8554602  62.0933104  80.0341797  49.1283083  66.6988039  78.8282967
  49.0886259  67.6089334  77.9852152  49.6463776  66.9963169  80.0023460
  49.7086573  66.2160110  80.6405830  50.2912951  68.2654381  80.4475594
  49.6500731  69.0581417  80.0621319  50.3956842  68.3492279  81.9225502
  50.8438253  67.4466467  82.3380184  51.2601137  69.6126032  82.2395897
  50.9161282  70.4653454  81.6542721  51.2015915  69.8088217  83.3101940
  52.2412968  69.4291925  81.8017197  49.0086603  68.4680605  82.6181507
  48.5934305  69.4292927  82.3153114  48.3062029  67.6837206  82.3362350
  49.1177750  68.2466841  84.1234970  49.0142393  67.1717072  84.2711353
  50.0873899  68.6157274  84.4577980  48.3032560  68.7635565  84.6309471
  51.6139412  68.3304262  79.6428156  51.7019796  69.2442465  78.8579655
  52.4560213  67.2820568  79.6395826  52.2462130  66.5241671  80.2733707
  53.6887836  67.3768091  78.8418722  54.2638445  68.1996059  79.2666245
  54.4850159  66.0719347  79.0890646  54.7086143  65.9714556  80.1511383
  53.8694811  65.2248383  78.7863302  55.7531977  66.0587740  78.4643555
  56.3430071  66.7506456  78.7726498  53.4958506  67.6751041  77.3310852
  54.2521477  68.3837795  76.6654587  52.4379969  67.2006989  76.6388988
  51.9330788  66.4591885  77.1029234  52.1307898  67.4443340  75.2260828
  53.0405378  67.4261951  74.6259737  51.1663008  66.4103317  74.6422386
  50.2671623  66.4221430  75.2582836  50.9140253  66.9223690  73.7136507
  51.6778564  64.9777508  74.3069553  51.6648865  64.4383240  75.2540350
  51.0170221  64.4684315  73.6055326  53.1357431  64.8110723  73.8224554
  53.2403469  63.8568211  73.3061600  53.3592176  65.7466841  73.3098316
  54.1199541  64.8217249  74.9078178  54.7642946  65.5982542  74.8639774
  54.4617128  63.8348818  75.6099939  53.9605570  62.6059341  75.4537201
  53.3423042  62.3744535  74.6893406  54.3132353  61.8025303  75.9539843
  55.2016735  64.0673828  76.6526031  55.5783987  64.9879837  76.8277693
  55.2038670  63.2921219  77.2999525  51.5718603  68.8780975  75.1468086
  51.9911575  69.6495247  74.2560863  50.6727648  69.3217897  76.0153341
  50.2430487  68.7190962  76.7025089  50.1399136  70.6842947  75.9572840
  49.8714924  70.8334494  74.9114323  48.8808441  70.8275700  76.9633198
  49.0990829  70.4667473  77.9684448  48.5048532  72.2967911  77.0693016
  48.1622887  72.4946117  76.0536146  47.6799250  72.4931192  77.7541780
  49.3919945  72.9036474  77.2504187  47.7102995  70.0833035  76.3387394
  47.6404953  70.4525137  75.3155518  47.8747272  69.0110302  76.2324429
  46.3329697  70.3529596  77.0639133  46.4943457  70.2661133  78.1383991
  46.1346149  71.4006758  76.8379831  45.5696630  69.6521425  76.7258072
  51.2619972  71.6940784  76.2800837  51.3119793  72.7529478  75.7015371
  52.2850084  71.3304472  77.0959139  52.2067213  70.4254198  77.5373888
  53.3604860  72.2154284  77.2919178  53.0102062  73.1835079  77.6500082
  54.3118668  71.5983582  78.3350706  53.7277222  71.4032507  79.2344093
  54.7454119  70.7182550  77.8601313  55.5088425  72.5471306  78.5985518
  56.2067938  72.6540232  77.7681684  55.1443291  73.5448551  78.8430452
  56.5603542  72.0398569  79.6310616  56.9870567  72.7678728  80.5278206
  56.9648790  70.8782959  79.3501091  54.2311335  72.4082661  76.0558033
  54.5594501  73.5212708  75.6996250  54.4617653  71.3396883  75.2914143
  53.9488125  70.5079508  75.5467463  55.1594925  71.3448381  74.0120745
  56.1816883  71.7017603  74.1378450  55.2603769  69.8535919  73.5247946
  55.5442905  69.1201448  74.2794847  54.2396498  69.5514870  73.2904005
  56.2217093  69.6843719  72.3532343  57.5516605  69.3158865  72.5266504
  57.8197241  69.1716671  73.5628700  58.3356094  69.1304541  71.4160156
  59.3344736  68.7276745  71.4962959  57.8721094  69.4238091  70.1424885
  58.7206841  69.0725803  69.1617107  58.2879639  69.2103004  68.3159113
  56.5779066  69.8617029  69.9245501  56.1099863  69.8699951  68.9512110
  55.7370090  69.8974848  71.0515070  54.6842718  70.1263046  70.9753799
  54.5691109  72.2460270  72.9807091  55.2444983  72.9269075  72.1954060
  53.2705259  72.3087597  72.9181337  52.7491951  71.5596676  73.3507729
  52.5624800  73.2510567  71.9730854  53.0173254  73.1681871  70.9859943
  51.1122847  72.7927303  71.6651583  50.6031847  72.7520752  72.6281023
  50.3602409  73.7306547  70.7364225  49.9612331  74.5813131  71.2889481
  50.9915686  74.1971540  69.9801779  49.6276665  73.1638718  70.1617956
  51.1181259  71.3386154  71.1782122  51.9191647  71.2836218  70.4410553
  51.3171434  70.6777477  72.0218611  50.1607990  71.0610580  70.7370949
  52.6701498  74.6723127  72.5163221  53.2476187  75.5734777  71.9419909
  52.2140026  74.8782396  73.7689018  51.9936132  74.0601444  74.3186712
  52.1371841  76.2293530  74.3436527  51.4306784  76.9089079  73.8670397
  51.6284227  76.2259531  75.7179689  52.0999527  75.4286194  76.2924385
  51.9395638  77.1555042  76.1946535  50.1379395  76.0195732  75.8541250
  49.3998241  75.9682035  77.0656395  48.1869698  75.5467987  76.7722797
  47.3583555  75.5052185  77.4637127  48.0930710  75.2170086  75.4718256
  47.2597599  74.8398447  75.0435257  49.2565203  75.6641626  74.9046707
  49.5599842  75.5472898  73.8747931  53.5263681  76.9677019  74.3928337
  53.6223459  78.1614685  74.1002703  54.6446133  76.2060261  74.6479416
  54.5169401  75.2327776  74.8858213  55.9902239  76.9039726  74.7185040
  55.8709431  77.7408886  75.4065800  56.9603539  75.9583473  75.3938341
  57.9457188  76.3702297  75.1758528  56.6472054  75.9029102  76.8693304
  57.0454121  76.8324947  77.2760248  55.5906010  75.7729578  77.1034098
  57.3038387  75.2098703  77.3952866  56.9574261  74.6367693  74.9028397
  56.1260319  74.2331743  75.1626492  56.5793276  77.3897982  73.3883810
  57.3288870  78.2824278  73.3850765  56.0083914  76.8035555  72.3152447
  55.2255106  76.1738539  72.4186230  56.3143253  77.2378206  70.9410095
  57.2480392  77.7980804  70.8922148  56.4913416  76.0177708  70.0748920
  55.5733061  75.4428148  69.9535131  56.7777014  76.2274837  69.0442991
  57.4728155  74.9808884  70.7138681  58.4122419  75.4682970  70.9746599
  57.0141268  74.5768499  71.6163397  57.7649450  73.8416672  69.7741413
  56.9128418  73.4069061  69.2516470  58.4775972  74.1415024  69.0058136
  58.2692289  72.6345778  70.5873775  57.6632547  72.4251556  71.4688778
  58.1825590  71.7612791  69.9408960  59.7124290  72.7747917  70.9183931
  59.8713875  73.4978437  71.6054487  60.0675344  71.9251728  71.3333035
  60.1895666  72.9929733  70.0553560  55.3066111  78.2793283  70.3426647
  55.2643728  78.5078430  69.1335201  54.6038103  79.0230894  71.2327814
  54.8455620  78.6879873  72.1543884  53.7456036  80.1637268  71.0454655
  53.6865759  80.6861782  72.0002699  54.3956184  81.1535645  70.0403643
  54.3423605  80.8668041  68.9901066  53.8703632  82.0884132  70.2359581
  55.8188534  81.4101601  70.2484989  56.3387203  81.3562584  71.3535833
  56.6048384  81.6080570  69.2244291  57.5608349  81.8631268  69.4271994
  56.2798500  81.5474796  68.2700634  52.3156548  79.8818254  70.6093311
  51.6571760  80.8384514  70.3714705  51.8714190  78.6084700  70.5134726
  52.3619843  77.8128195  70.8960962  50.4511881  78.3546162  70.0014162
  49.9958181  79.2690516  69.6212196  50.5263853  77.4147320  68.8479424
  51.1576319  76.5606737  69.0933323  49.4930029  77.1213961  68.6630869
  50.9948921  77.9323769  67.5083542  52.2812700  78.4597063  67.2854471
  53.0305481  78.4502077  68.0631924  52.7211714  78.9084768  66.0461235
  53.6861801  79.3904352  65.9924793  51.7988062  78.9892673  64.9918652
  52.0788860  79.3957233  64.0312672  50.5070925  78.5214996  65.1649284
  49.8797560  78.5554314  64.2864656  50.1133680  77.9571152  66.4102316
  49.0823650  77.6546812  66.5196371  49.5448828  77.7661896  71.0849619
  50.0569439  77.3974371  72.1423817  48.2293987  77.6507902  70.8900213
  47.7899599  78.1015205  70.1001835  47.2797441  76.9306231  71.7510319
  47.7412033  76.2211466  72.4379158  46.5945244  78.0116367  72.6305151
  45.8341265  77.4634886  73.1867790  47.6030254  78.6197090  73.7045717
  48.2040071  77.8594208  74.2034531  48.0939293  79.5252180  73.3479643
  46.9945526  79.0524530  74.4986725  45.9132910  79.1678286  71.7967367
  46.6881800  79.8619556  71.4714098  45.4631042  78.6904430  70.9263706
  44.8050690  79.9977255  72.5063992  44.0091610  79.2916775  72.7433348
  45.2343798  80.3400803  73.4479856  44.4984722  80.7407665  71.7702007
  46.3588858  76.2238884  70.8552742  46.1401510  76.6768122  69.7343731
  45.8553028  75.0763845  71.1747360  45.9881687  74.7425842  72.1186781
  45.2384520  74.0731287  70.2662420  45.7735252  74.1130066  69.3174458
  45.5106068  72.6235723  70.8833694  46.5970182  72.5695801  70.9533787
  45.1203489  72.5525379  71.8986273  44.8937702  71.5468597  70.0499439
  43.5860157  71.0325766  70.1924181  43.6092234  69.8260784  69.5213223
  42.8441191  69.0666580  69.5868921  44.7873545  69.7707701  68.7709761
  45.0571442  69.0300846  68.1395531  45.5672026  70.8095455  69.2054558
  46.6227245  71.0078621  69.0916872  43.6826563  74.3767071  69.9598551
  43.1827879  74.0821409  68.9053106  43.0009985  74.9345827  70.9770203
  43.4973860  75.1746750  71.8232203  41.6374445  75.4833269  70.8680487
  41.4098883  75.8335352  71.8748617  41.5025711  76.6070127  69.8678446
  41.8300390  76.3932323  68.8504124  40.4665232  76.9239759  69.7485018
  42.3070765  77.9031706  70.2924967  42.2595501  78.0949974  71.3644314
  43.3466339  77.6404476  70.0964928  41.8033600  79.1363573  69.5747089
  40.7646608  79.3366909  69.8375130  42.3905134  80.0133228  69.8472643
  41.8408537  78.8527441  68.1409740  42.2237730  77.9641676  67.8513050
  41.4500570  79.6648455  67.1556139  41.0371256  80.8697796  67.4684572
  41.1690903  81.1697102  68.4238243  40.8076143  81.4906025  66.7055607
  41.4388180  79.3323040  65.9048986  41.8141556  78.4130049  65.7201910
  41.2899780  80.0202179  65.1805210  40.5477142  74.4407034  70.6883526
  39.4252110  74.8470640  70.5411530  40.8613920  73.1477690  70.7297039
  41.8379831  72.8901672  70.7329988  39.9369168  72.0855856  70.3745127
  38.9376330  72.3971081  70.6786251  40.0078821  71.9104147  68.8549423
  40.1358891  72.8613091  68.3377314  40.8615732  71.2807035  68.6043787
  38.7594247  71.2031317  68.2971048  37.6228786  71.4380741  68.7228251
  38.8234448  70.4800415  67.2979498  40.1936340  70.7267189  71.1488056
  39.8557234  69.6867275  70.5764198  40.6385374  70.7166624  72.4041414
  40.8175707  71.6718006  72.6793766  41.0315752  69.5101976  73.1649828
  41.6928911  68.9952278  72.4681520  41.8796110  69.9150610  74.4750404
  41.2478876  70.4697418  75.1688433  42.2463512  68.5540342  75.1964426
  42.7983761  67.8096485  74.6226215  42.8547049  68.7405491  76.0814428
  41.3697958  67.9956865  75.5250692  43.2322788  70.6553745  74.2764378
  42.9649734  71.5829897  73.7702990  43.5749531  70.9780169  75.2595901
  44.3524694  69.9421978  73.4779692  44.0448904  69.4677591  72.5460863
  45.1490450  70.6602430  73.2830620  44.7470951  69.1234827  74.0796995
  39.8427987  68.5695791  73.4067011  38.7291002  68.9578962  73.8078165
  40.1577759  67.3093987  73.0739117  41.0691977  67.1043921  72.6900053
  39.1860819  66.1777306  73.1052113  38.6397934  66.3070774  74.0395260
  38.1015110  66.2212610  72.0007849  37.4808073  65.3269958  71.9449186
  37.4855685  67.1057892  72.1630573  38.7157989  66.2503242  70.6118631
  39.5373344  66.9656324  70.5729580  39.1452265  65.2987289  70.2985620
  37.6817346  66.7725563  69.6585941  36.7539978  66.2124634  69.7756529
  37.5063300  67.7911997  70.0045776  38.1455731  66.7653608  68.1752634
  38.5002160  65.7791996  67.8755569  37.1875215  67.0864058  67.7664089
  39.1128254  67.8064013  67.8968668  39.3490648  67.7679968  66.9156361
  38.6966896  68.7036371  68.1015587  39.9462891  67.7461243  68.4641457
  39.9350834  64.8446369  73.3333063  40.9418726  64.6481848  72.6506662
  39.3881106  63.9036703  74.0594673  38.0739498  63.9203739  74.7376347
  37.3525620  64.3465233  74.0404272  38.2330704  64.5427370  75.6182241
  37.6748681  62.5758553  75.1181889  37.1802640  62.0873308  74.2786551
  37.1038318  62.5857258  76.0465813  39.0392709  61.8947744  75.1873064
  38.8781738  60.8235216  75.0666142  39.5523643  62.0152283  76.1414146
  39.9331760  62.5809622  74.1011763  40.9522724  62.6266003  74.4851875
  39.8787403  61.9122839  72.7450037  40.7247066  61.0887814  72.4471951
  39.0744996  62.4123001  71.7788982  38.3732605  63.1003189  72.0134068
  39.1761446  62.0629072  70.3194714  39.1692710  60.9753752  70.2465343
  38.0058551  62.7510691  69.4679832  38.4336472  63.6358261  68.9965010
  37.7387786  61.9715214  68.7544775  36.6662192  63.1477833  70.1704645
  35.7903004  63.7086773  69.4417763  36.4320207  62.9278469  71.3774347
  40.5443001  62.4405193  69.6812105  40.7092142  62.1964693  68.5189819
  41.4479828  63.1714582  70.3907871  41.2479544  63.2490540  71.3777399
  42.7293777  63.6432743  69.8425388  42.8736353  63.0885172  68.9154243
  42.7266836  65.1941299  69.7577477  42.4168253  65.5759335  70.7305336
  43.7155581  65.5923271  69.5304489  41.8989515  65.9467363  68.6916828
  41.7574644  67.1680069  68.7190294  41.1781454  65.2021933  67.8506136
  40.7531977  65.6981850  67.0802164  40.9517670  64.2221832  67.9424524
  43.9952517  63.2755566  70.5811596  45.1182032  63.4435272  70.0472879
  43.9637566  62.6531410  71.7624855  43.0129290  62.4287271  72.0187426
  45.1127720  62.1234894  72.5168419  46.0278511  62.6630783  72.2727442
  44.8450327  62.3558569  74.0093374  43.7792730  62.2369671  74.2045879
  45.3565598  61.5413618  74.5222044  45.4074478  63.6720514  74.4539785
  46.8084478  63.9448404  74.5074320  47.4714422  63.1426001  74.2189026
  47.3118687  65.2641439  74.8379898  48.3785534  65.4267406  74.8843002
  46.3946915  66.2410975  75.0949144  46.7590284  67.2445250  75.2585745
  45.0316429  66.0058928  75.1373053  44.3320417  66.7690277  75.4448462
  44.5572233  64.7129154  74.8374844  43.5013103  64.5057011  74.7452688
  45.1411247  60.6231976  72.1981764  44.1063786  59.9418688  72.2929668
  46.2787056  60.1554060  71.6618776  47.1098852  60.7251501  71.5938187
  46.4032650  58.8679266  70.9135437  45.4527140  58.3360100  70.8733797
  46.7796040  59.0491247  69.4079971  47.3853159  59.9490547  69.3014812
  47.3706436  58.2019091  69.0601587  45.4396629  59.2415428  68.5714197
  44.8174477  58.3475018  68.5309410  44.7222614  60.5327606  68.9336252
  45.4062366  61.3786316  69.0028000  43.9084101  60.7874298  68.2547379
  44.3023872  60.4687166  69.9374723  45.7768917  59.2492485  67.0653582
  44.9051666  59.6670294  66.5617228  46.6114235  59.9322557  66.9067574
  45.9618330  58.2381535  66.7026091  47.6516628  58.1694889  71.4601135
  48.7189150  58.6499453  71.7170429  47.5163317  56.8694258  71.7338562
  46.5918303  56.5369081  71.4996910  48.6562729  55.9402466  71.9949198
  49.3255234  56.6618156  72.4634743  48.2356215  54.8035955  73.0009317
  47.4782991  55.2518892  73.6440468  47.7719688  53.9968824  72.4331713
  49.3651819  54.0960550  73.7847567  48.8756800  53.4000778  74.4660091
  49.8091936  53.4402180  73.0358696  50.5444574  55.1985025  74.6393347
  49.4864702  56.1582232  75.7700491  49.3924427  55.5961704  76.6992235
  50.0194073  57.0831919  75.9903002  48.4700680  56.2437296  75.3857136
  49.3253279  55.5299139  70.6735325  48.6353970  55.1094151  69.7549629
  50.6101036  55.7031107  70.4559183  51.1791563  56.1776495  71.1422777
  51.2512779  55.1660776  69.2380476  50.8187246  55.5791855  68.3268213
  52.3061275  55.4349136  69.2939425  51.2287188  53.6097145  69.2195940
  50.7094717  52.9270124  70.1149225  51.8589830  53.0068779  68.1770945
  52.3969936  53.6307859  67.5928116  52.1431541  51.5916634  67.9824972
  51.8257761  51.1111403  68.9079523  51.3265705  50.9817076  66.8150997
  51.5309191  49.9123049  66.7629385  49.7860146  50.9771585  67.2496796
  49.5381832  52.0305824  67.3799992  49.1267443  50.4715347  66.5441275
  49.7678185  50.5326462  68.2447577  51.4765310  51.5409374  65.3510284
  50.9307194  50.9952831  64.5813179  51.0722780  52.5456953  65.4740620
  52.9207945  51.5249205  64.8801994  53.5204172  52.3146772  65.3327942
  53.3668184  50.5365705  64.9912405  53.0377531  51.5499830  63.7967777
  53.6283970  51.3779688  67.8172874  54.4270039  52.3278999  67.9527760
  53.9534140  50.0973606  67.6985788  53.2381058  49.3857336  67.7435493
  55.3638887  49.6774101  67.4127388  55.3775978  48.5903454  67.4915218
  55.4464626  49.8597574  66.3412762  56.4031172  50.1495743  68.4246731
  56.3807297  49.9863052  69.6524811  57.3207903  50.9031916  67.7712822
  57.2171831  51.0015965  66.7714357  58.4043217  51.5781641  68.4608221
  58.8966370  50.7346630  68.9447927  59.2675591  52.3418379  67.4830437
  59.5669222  51.6834641  66.6675520  58.7278080  53.2198572  67.1282959
  60.5123806  52.9280901  68.1139851  60.2347755  53.6811352  68.8515234
  61.0366631  52.0543289  68.5009956  61.2878180  53.6271381  67.0083046
  61.6166878  52.8870249  66.2788010  60.6704807  54.2794323  66.3906384
  62.4944735  54.3679333  67.4883270  62.6320267  54.4753027  68.4831429
  63.4975529  54.8893118  66.8460846  63.4890795  55.0313330  65.5447483
  62.8148746  54.5155573  64.9974632  64.1238451  55.6917620  65.1193047
  64.4271088  55.4206467  67.4653196  64.3833065  55.3623819  68.4726858
  65.3209162  55.6605864  67.0608044  58.0204582  52.5341845  69.6623325
  58.8057041  52.6250219  70.6363535  56.8400669  53.1138039  69.5250177
  56.2566996  52.9785299  68.7117004  56.2918949  54.0839005  70.4770803
  56.9736671  54.2129850  71.3176870  56.1345053  55.4508734  69.6984625
  55.3994513  55.2907753  68.9096880  55.7777977  56.2337065  70.3678083
  57.2954512  56.1616087  69.0294075  58.3488417  56.8689013  69.6426773
  59.2781544  57.1136713  68.6426497  60.1913500  57.6538229  68.8444090
  58.7754965  56.6518354  67.4410820  59.2025471  56.7950726  66.5370846
  57.5462103  56.1132479  67.6861763  56.8459415  55.6281996  67.0222759
  54.9414206  53.5903931  71.0633039  54.0260315  54.4344997  71.1314917
  54.7646713  52.3669434  71.5653276  55.5702686  51.7588997  71.6028357
  53.5242271  51.7390776  71.8541574  52.7694988  52.0468712  71.1304522
  53.6118412  50.2064562  71.6723394  52.5891018  49.8390627  71.7567730
  53.8747120  50.0240183  70.6303644  54.5809698  49.3797636  72.8937721
  55.8416510  49.7675562  72.6811838  53.0197430  52.0721340  73.3458328
  51.9055891  51.6551113  73.7645578  53.8454914  52.6840591  74.1919088
  54.7526646  52.9219723  73.8170242  53.4562778  53.2872295  75.5402899
  52.3956728  53.0534887  75.6329155  54.3280125  52.7417517  76.6814709
  55.3644800  52.8995323  76.3832426  54.1496086  53.2898235  77.6066160
  54.0687132  51.2546015  76.8940163  53.0143213  50.6744194  76.6095018
  55.0253868  50.5337906  77.4369192  54.9187613  49.5967531  77.7984428
  55.8812618  51.0223532  77.6580286  53.6650753  54.7782660  75.4096413
  53.5775089  55.4718065  76.3883209  53.9119482  55.2698898  74.1635084
  53.7883949  54.6947956  73.3424711  54.0258312  56.7564583  73.9852571
  54.4076777  57.1932840  74.9080133  55.2197695  57.1380854  73.0205822
  55.1333189  56.4937401  72.1456861  55.0096130  58.1460476  72.6628923
  56.6267157  57.1180773  73.7552404  56.6312122  57.9200840  74.4933844
  56.6946697  56.2225485  74.3729067  57.7980137  57.0941067  72.7680731
  57.5483322  56.3656664  71.9966221  57.8587532  58.0062342  72.1744108
  59.1383791  56.8546915  73.4286022  59.2626858  57.5380039  74.2686796
  59.0561724  55.7962370  73.6756086  60.2502394  56.9623804  72.4634600
  60.3910160  57.9182243  72.1691036  61.0654545  56.4688110  72.7979946
  59.9484158  56.4788055  71.6296959  52.7902317  57.5426006  73.5841608
  52.2120857  57.2086239  72.5713015  52.4266720  58.5810661  74.3895388
  53.1347561  58.9061117  75.0322437  51.2506723  59.4636536  74.1162777
  50.5423975  58.6907673  73.8177729  50.7048798  60.1243258  75.4217434
  50.5264282  59.3344831  76.1513996  51.5496731  60.7024956  75.7961035
  49.4021082  60.9456062  75.2831173  49.5920706  61.7693949  74.5950842
  48.2437229  60.2776194  74.5785093  47.2345686  60.6869698  74.6246767
  48.3825302  60.0805187  73.5155010  48.1343126  59.3187046  75.0850773
  48.8569736  61.4306211  76.6285181  48.4568214  60.5546618  77.1390676
  49.6657753  61.9424915  77.1499872  48.0353022  62.1152544  76.4182377
  51.5016842  60.4902315  72.9986238  52.3573971  61.3808155  73.1694889
  50.6679916  60.5407000  71.9536781  50.3198051  59.6213293  71.7221069
  50.6832409  61.5095711  70.8832502  51.5973186  62.0977545  70.9645271
  50.6068039  60.7631016  69.5067692  49.7722054  60.0646830  69.5680332
  50.3237057  61.5157700  68.7709284  51.8389988  59.9655199  69.0479469
  52.1443224  58.7361193  69.5820856  51.4791536  58.3039618  70.3150177
  53.2672071  58.1078053  69.0936375  53.5826874  57.2253609  69.6304560
  54.0437269  58.5678339  68.0208969  54.8602295  57.9632759  67.6545048
  53.7087011  59.8325539  67.4596882  54.3486118  60.3371668  66.7509699
  52.6283979  60.5440331  67.9952526  52.3144579  61.5054750  67.6164770
  49.5380735  62.4860859  71.0233831  48.5823441  62.2884417  71.8366194
  49.5665693  63.5437584  70.2118254  50.4357529  63.7481928  69.7397804
  48.4139061  64.4534349  70.0109196  47.5055408  63.9761925  70.3786373
  48.7339640  65.6491995  70.9539938  48.6987114  65.2733231  71.9765282
  49.7674990  65.9768581  70.8419991  47.6189613  66.7230082  70.9688997
  47.6868868  67.1171331  69.9549246  46.2400675  66.1669827  71.3435841
  46.2791014  65.5108738  72.2131157  45.5639982  66.9939899  71.5605927
  45.8113766  65.6885004  70.4630280  47.8661108  67.9426193  72.0135355
  48.8849449  68.3022738  71.8695259  47.1427584  68.7341309  71.8176460
  47.8068686  67.7031326  73.0752468  48.2616186  64.7676468  68.4627819
  49.2327976  65.1207399  67.8197050  47.0072126  65.0611305  68.0415249
  46.2309885  64.8817062  68.6623240  46.6836214  65.3012228  66.6041756
  47.5540972  65.5760956  66.0085058  46.1798382  63.9014101  66.0163498
  46.0445547  64.1020918  64.9535561  47.1241665  62.6659775  66.0986948
  48.0057240  62.8224134  65.4770136  47.4193764  62.5241089  67.1383190
  46.6437626  61.7254353  65.8290911  44.7747803  63.5467196  66.6159296
  45.0009871  62.7947855  67.3719215  44.1191101  64.2818308  67.0826244
  43.9615774  62.8659391  65.4572773  43.8634634  63.6063671  64.6634007
  44.3333435  61.8855286  65.1594782  42.9819250  62.6448250  65.8809376
  45.6851912  66.4222574  66.3484097  45.3010750  67.1453142  67.2656584
  45.2651930  66.5174866  65.0588799  45.6850386  65.9441566  64.3411541
  44.0398741  67.3610115  64.7063255  43.8497925  67.4148655  63.6343813
  42.9243755  66.6777802  65.4534769  42.9855156  65.6218386  65.1901388
  42.9119349  66.9380951  66.5118647  41.5349054  67.1467352  64.9250555
  40.5413055  67.1221972  65.6777048  41.4311266  67.1976089  63.6822653
  44.2875624  68.8683367  65.1541138  43.4713316  69.5097160  65.7659626
  45.4033327  69.4184780  64.7250938  46.0608959  68.7505913  64.3487501
  45.8971214  70.8083868  64.9452400  45.5345392  70.9874010  65.9574604
  47.4068117  70.9259319  64.7543049  47.7403688  70.5317879  63.7943649
  47.6805782  71.9662142  64.9302912  48.1453800  70.1755667  65.8285427
  48.3495283  70.7944489  67.0510244  47.8625631  71.7214298  67.3155451
  49.0905857  70.1692581  68.0465555  49.2222548  70.6096935  69.0238380
  49.7770405  68.9968920  67.6579762  50.4351234  68.6025238  68.4181118
  49.6539879  68.4011507  66.3712931  50.2363443  67.5195217  66.1476994
  48.8407707  69.0066814  65.4767179  48.8204384  68.6752701  64.4490194
  45.2460098  71.9191313  64.1200781  45.6887531  73.0869579  64.0785408
  44.1177654  71.6260147  63.4721136  43.6207342  70.7812262  63.7158346
  43.4689760  72.4079800  62.4694872  44.1536140  72.7496433  61.6931963
  42.7065754  71.7895699  61.9957638  42.7036810  73.6357832  62.8777552
  42.2565269  74.4672680  62.1054649  42.5785494  73.8703251  64.1681242
  42.7268028  73.0789614  64.7779322  42.0055103  75.0930595  64.8295450
  41.8030596  75.8318615  64.0541220  40.7752991  74.4948816  65.5802870
  40.2505589  73.8788462  64.8500490  41.0943270  73.9115143  66.4440012
  39.6508837  75.5062628  66.0166407  40.1080799  76.2722731  66.6429806
  39.0582561  76.3351727  64.9206877  39.7749877  76.5648890  64.1322517
  38.4756374  75.5643320  64.4162369  38.6278248  77.2348070  65.3605604
  38.5897088  74.8320150  66.9514418  37.6147985  74.9135685  66.4708138
  38.6722517  73.7516785  67.0704603  38.6338878  75.2045584  67.9748487
  42.9468346  75.8272648  65.7982206  42.5991583  76.8534184  66.3603735
  44.2084885  75.3349400  65.8800602  44.4852686  74.5782232  65.2710676
  45.2042437  75.8711720  66.8108511  44.8116016  75.9625626  67.8235579
  46.4652109  74.9958372  66.6565132  46.2565994  73.9700365  66.9603491
  46.7491341  74.9826670  65.6042242  47.3257113  75.3766966  67.2065926
  45.5665112  77.3127222  66.3505077  45.5036306  77.6406336  65.1303196
  46.1055231  78.1669140  67.2563362  46.3080311  77.7867317  68.1698751
  46.3676310  79.5907307  67.0457125  46.4640188  79.9028587  66.0058165
  45.1003695  80.3649902  67.4756241  44.4380713  80.2915573  66.6130352
  44.6122456  79.8409510  68.2973385  45.2372551  81.8538761  67.8294516
  45.9396553  82.0240021  68.6454105  45.6395197  82.3882675  66.9688082
  43.8863659  82.5370789  68.1249571  43.2133579  82.2532368  67.3158884
  43.5085678  82.1320820  69.0637541  43.9951706  84.0741634  68.3022738
  44.3478346  84.3498230  69.2961264  44.7893906  84.3829346  67.6225901
  42.7477169  84.8207951  68.1406116  42.1094990  84.3461037  67.5181580
  42.2552729  84.8497868  69.0219450  42.8819752  85.7436752  67.7528429
  47.5744772  80.0839806  67.7773285  47.7675915  79.6571255  68.9173317
  48.3606339  81.0460949  67.2705984  48.0492449  81.5159702  66.4325285
  49.5151377  81.5734673  67.8913546  49.9649286  80.7748222  68.4812307
  50.4106951  81.9942188  66.7902279  50.4645920  81.2063122  66.0389566
  49.9817038  82.8053761  66.2019444  51.9134092  82.3530006  67.1315813
  51.8813181  83.2168102  67.7955866  52.2920227  81.5045452  67.7015734
  52.8586292  82.6316738  66.0184765  53.1640911  81.6430950  65.6756830
  52.3414230  83.2155228  65.2570772  54.0370941  83.3652687  66.4746189
  53.7385178  84.3371105  66.8676662  54.5124674  82.7613831  67.2475624
  54.9712849  83.7128353  65.3868294  54.5825768  84.2747116  64.6429825
  55.7633591  84.2797184  65.6539583  55.3492355  82.8870106  64.9449444
  49.1131258  82.6734924  68.8714743  48.3341980  83.6230183  68.5565186
  49.4615364  82.4567127  70.1340532  50.0626802  81.6731548  70.3456402
  49.1637087  83.5314846  71.1485720  48.2398033  84.0119457  70.8266115
  48.7671375  82.8573990  72.4404860  48.1787968  83.4934902  73.1018162
  48.1035614  82.0386600  72.1622133  49.8311472  82.2223473  73.2059288
  50.5976152  82.9986763  74.0524960  50.2486515  84.0092850  74.2051363
  51.8228245  82.4872208  74.6378469  52.3130465  83.1702709  75.3157330
  52.2369385  81.1922646  74.3621349  53.3499193  80.6276321  74.9670887
  53.1912518  79.6816874  75.0073195  51.3961792  80.3617477  73.5282612
  51.6889572  79.3381500  73.3468103  50.2288914  80.9377098  72.9706764
  49.6747065  80.3309536  72.2698689  50.2598333  84.6293449  71.4038229
  49.9713898  85.5573273  72.1778917  51.4790726  84.5475578  70.8583832
  51.7519999  83.8510895  70.1797485  52.5138474  85.5483246  71.0861015
  51.9754219  86.4937115  71.1527777  53.2756519  85.2554607  72.4119234
  53.8220739  86.1879826  72.5530386  52.4890709  85.0480366  73.1374359
  54.2576027  84.0389442  72.4047709  53.7533426  83.0751801  72.3341942
  54.8537159  84.1726017  71.5020657  55.0917673  84.0522575  73.7461710
  55.6032705  85.0092411  73.8493824  54.4644785  83.8875484  74.6222305
  56.0398006  82.9400063  73.7499857  56.2177801  82.3975754  72.9168081
  56.7089081  82.4608326  74.7580624  56.6694832  82.9830074  75.9503603
  56.1831045  83.8429451  76.1602497  57.4331379  82.8364944  76.5949249
  57.4570179  81.4188385  74.4560623  57.3527479  80.9637070  73.5604715
  57.7946901  80.8243847  75.1994991  53.5334873  85.6458950  69.9246788
  53.8701963  84.6607208  69.2472601  53.9308691  86.9131756  69.5965338
  53.5307312  87.6644897  70.1401520  54.9408388  87.2111034  68.6234903
  55.0618029  86.4162159  67.8875446  54.6324778  88.4858418  67.7824831
  53.8124657  88.2260704  67.1130085  54.2808533  89.4018269  68.2573032
  55.7787037  88.8780975  66.8990517  56.0801458  90.1150036  66.7579222
  56.4711142  87.9901981  66.4140415  56.2781239  87.3604393  69.3630219
  56.3812542  88.2750607  70.2147961  57.3188686  86.6164207  68.9749575
  57.2198248  85.9314537  68.2393551  58.6839437  86.7884922  69.4314384
  58.7860727  86.7181969  70.5143642  59.4522524  85.5817699  68.8997126
  58.9744282  84.7758293  69.4567156  59.2463303  85.2938271  67.8688002
  60.9250450  85.7120323  69.0859652  61.6844845  86.4042950  68.3742332
  61.4305115  85.1497936  70.1220798  62.4382067  85.1363087  70.1889038
  60.8518744  84.5867920  70.7289600  59.2197418  88.1602192  68.9995956
  59.8359537  88.8883400  69.7720051  58.9948988  88.5480881  67.7591133
  58.2738256  88.0538368  67.2532797  59.7865200  89.5430946  66.9599962
  60.8534527  89.3338394  67.0372868  59.3466091  89.4465446  65.4953146
  58.2656765  89.5848656  65.5189228  59.6473026  90.3841591  65.0278044
  59.7579432  88.1849098  64.7576952  59.5066023  87.3028660  65.3467035
  59.2320490  88.1876183  63.8029528  61.2027073  88.0394459  64.5284986
  61.7016792  87.7556801  65.4551029  61.5168095  87.1642208  63.9597940
  61.9200706  89.2320728  64.0894365  62.3598337  89.8256588  64.7781801
  62.1323776  89.5033169  62.7843380  61.4612770  88.9130116  61.7994976
  60.8776665  88.1068707  61.9716740  61.5323210  89.3508911  60.8921337
  63.0454302  90.3925419  62.5663853  63.1867170  90.8274746  63.4669209
  63.2169437  90.8385944  61.6765976  59.6269751  90.9944439  67.4830151
  60.5000782  91.7786789  67.3415232  58.4561634  91.2642574  68.0450916
  57.7537298  90.5456638  67.9435921  58.0396652  92.4395561  68.7959814
  58.8688660  93.1470299  68.7948608  56.7895269  93.2017994  68.1693935
  56.7148304  94.2290401  68.5261822  56.8023920  93.3408833  66.6614342
  57.0124388  92.3601818  66.2345743  55.8616447  93.6592960  66.2123108
  57.5360060  94.0750217  66.3283396  55.7027674  92.4078465  68.4110928
  55.8844662  91.5811062  67.9582310  57.7385330  92.1916866  70.3334713
  57.6007748  93.1554985  71.0712767  57.7938843  90.9779453  70.7686806
  57.6343250  90.4036427  69.9533129  57.7369452  90.5471802  72.2252226
  57.9990625  89.4901276  72.1801949  58.8844585  91.1555958  73.0913162
  58.6622858  92.2192478  73.0054474  58.8226938  90.7925797  74.1172409
  60.2146482  90.8665276  72.3483276  60.3333902  89.8220253  72.0601845
  60.3222942  91.4999866  71.4678478  61.3894367  91.2150669  73.3131933
  61.5337610  92.2754955  73.5199499  61.1635876  90.6958675  74.2446089
  62.6054621  90.5561638  72.7937508  62.5086784  90.1329517  71.8818140
  63.8732243  90.8705330  73.1485128  64.0803003  91.6611481  74.1907167
  63.2398605  91.8361473  74.7228241  64.9895096  92.0607471  74.3744564
  64.9090004  90.4784203  72.5032997  64.7456789  89.9115658  71.6834879
  65.8210230  90.7653141  72.8288746  56.3686991  90.7156086  72.8390598
  56.1526918  91.1658192  73.9563513  55.3732443  90.3233719  71.9736433
  55.6556559  89.7301769  71.2065268  54.0099525  90.7109451  72.1844864
  53.9632559  91.2371635  73.1379032  53.5519123  91.6788197  71.0849571
  53.9152575  91.3158226  70.1235390  52.4643755  91.6970158  71.0140419
  54.0264130  93.1826973  71.3782120  54.9936628  93.1983566  71.8804884
  54.0163136  93.7162113  70.4277563  53.1476355  93.9690876  72.3229170
  52.3826075  93.4436607  73.0870342  53.3164930  95.2370071  72.4349308
  52.8067160  95.6466389  73.2046318  53.7786722  95.7715130  71.7132664
  52.9772091  89.5512581  72.2012281  52.6465368  88.8710403  71.1586905
  52.4152613  89.3687725  73.3855629  52.7687311  89.7713375  74.2417860
  51.1261129  88.6818981  73.5810041  51.2950802  87.6488972  73.2769203
  50.7182360  88.5704231  75.0794983  51.5377188  88.7133598  75.7838488
  50.0102091  89.3876553  75.2170563  49.9966812  87.3398209  75.4395342
  48.7295961  86.9231415  75.0888109  48.3925056  85.9688950  75.9329510
  47.4432325  85.4538441  75.9321547  49.3488741  85.7692719  76.9316578
  49.2134047  85.2667236  77.7972126  50.3506088  86.6339302  76.5835142
  51.1257219  86.8844032  77.2926426  50.0014210  89.2357635  72.6485777
  50.0055218  90.4202175  72.3891830  49.1204357  88.4107018  72.0753765
  49.1558647  87.4108696  72.2139215  48.0083132  88.8856506  71.2497234
  48.4150314  89.4580078  70.4160070  47.1274996  87.7707386  70.8277750
  46.2975597  88.1976318  70.2646971  47.8940821  87.1078968  69.7542238
  47.4680567  86.2240028  69.2795229  48.1254578  87.8303242  68.9715004
  48.8866520  86.8282509  70.1073742  46.5725136  86.7352581  71.8152761
  47.4125767  86.2240505  72.2854471  46.1337709  87.3071289  72.6329374
  45.5820847  85.7376957  71.2549496  45.1807785  85.0739193  72.0207500
  44.7688627  86.4064312  70.9728909  45.9490538  85.2152348  70.3715134
  47.2319651  89.8801327  72.1733141  47.2476673  89.8718452  73.4050798
  46.3712406  90.6686783  71.5203810  46.3905764  91.0778618  70.1100111
  46.1526680  90.2177525  69.4841480  47.3740053  91.5352058  70.0013638
  45.2957916  92.1148014  69.9473715  44.3061590  91.7785454  69.6380711
  45.6863832  92.8510094  69.2448473  45.1234055  92.6994991  71.2871265
  44.1164875  93.0559349  71.5043211  45.8578920  93.4957504  71.4080381
  45.3983212  91.5187931  72.2535610  45.9620905  91.9514084  73.0800629
  44.1070795  90.7485104  72.7459431  43.6768103  89.8119450  72.1178484
  43.4639168  91.1097813  73.8491392  43.8279963  91.9059086  74.3528652
  42.0966387  90.5833912  74.2147875  42.0960903  89.4951725  74.1523695
  41.7882395  90.9208012  75.6633043  42.5973797  90.6459999  76.3399696
  41.7860651  92.0094109  75.7183933  40.5210161  90.3133202  76.2160540
  40.4987431  88.9669514  76.6356373  41.4138269  88.4086800  76.5038395
  39.3757343  88.4657955  77.2493267  39.4527721  87.4672604  77.6535511
  38.2366967  89.2626572  77.4758482  37.0899677  88.7401962  77.9867029
  36.4761209  89.4743538  78.0629444  38.2498026  90.6024647  76.9290638
  37.4262762  91.2967300  76.8503475  39.4266748  91.1217594  76.4290047
  39.4700575  92.1180058  76.0142660  40.9228230  91.0688496  73.3497143
  40.8338308  92.2444344  72.9739285  39.9713063  90.1602554  73.0572319
  40.1121044  89.2185402  73.3940411  38.8056850  90.3413677  72.2037935
  38.6020494  91.4102268  72.1390343  39.0949464  89.6939087  70.7676315
  39.5872855  88.7226582  70.8162928  38.1470418  89.5450783  70.2505016
  39.9241376  90.7369041  69.9460554  40.5681562  91.2632465  70.6505489
  40.6644821  90.2224350  69.3334198  39.1787672  91.7111301  69.0089941
  39.9837518  92.2482491  68.5073948  38.5174417  91.1815643  68.3231974
  38.3885765  92.7268410  69.6564388  37.4298811  92.4940968  69.8728561
  38.7851453  93.9339828  70.0749159  39.9263334  94.5076180  69.7480345
  40.4970932  94.0102768  69.0794563  40.0624180  95.4844761  69.9655962
  38.1218386  94.6046352  70.8953524  37.2067404  94.2638874  71.1534023
  38.5183477  95.4874706  71.1842775  37.4849820  89.7724628  72.7836418
  37.4217677  88.6248398  73.1768751  36.5112138  90.6452560  72.9600477
  36.7534971  91.6186523  72.8420973  35.1244330  90.2594852  73.3538532
  35.1392579  89.8610115  74.3683004  34.2185473  91.4500237  73.3987474
  33.2875609  91.2051201  73.9100075  34.7091913  92.2016239  74.0171862
  33.8916373  92.0902634  72.0354223  33.4166431  91.3897610  71.3485622
  33.1740451  92.8685188  72.2952080  35.1202512  92.6393604  71.2948990
  35.9391737  93.3056545  71.9205332  35.3103828  92.3537064  70.0982857
  34.4730759  89.1192245  72.5328827  35.0265217  88.7449455  71.5294075
  33.3579087  88.5683060  72.9310083  32.7981567  89.0507126  73.6195278
  32.5246668  87.4620628  72.3663664  33.1175184  86.5505409  72.4423075
  31.2696004  87.2593880  73.1917572  30.7062674  86.5024757  72.6460075
  31.7573643  86.7872047  74.0445280  30.3477478  88.3710575  73.6260653
  30.8828115  89.2870331  74.3447685  29.2137742  88.4445763  73.1147289
  32.1472883  87.4952888  70.9489441  31.9052958  88.5520840  70.3670883
  32.1147680  86.2629318  70.3823566  32.1641755  85.4230595  70.9411716
  31.7815423  85.9319782  68.9903402  31.2198257  86.7802238  68.5991240
  33.1010008  85.7545090  68.1887341  33.7458825  84.9388695  68.5157776
  32.8598523  85.5683804  67.1421623  34.0699506  86.9795609  68.1478786
  34.4587708  87.1024513  69.1587257  34.9014235  86.7025757  67.4997807
  33.5365772  88.1817627  67.5050163  33.7339354  88.0627155  66.4396572
  32.4604058  88.2807922  67.6469707  34.3560505  89.4397259  67.7719688
  35.4361987  89.2999554  67.7290010  34.1882563  90.1166630  66.9342899
  34.0654159  90.1121235  69.0760803  33.0683351  90.2642918  69.1287756
  34.4052911  89.5564747  69.8479891  34.5440602  90.9929657  69.1990232
  30.7680964  84.7696781  68.9617157  29.5583630  85.0599957  69.0078020
  31.2312913  83.5565948  68.7203932  32.2179818  83.5114288  68.5094309
  30.4972935  82.2975826  68.6884642  29.7160077  82.3414898  69.4472647
  29.9833488  82.2731400  67.2396660  29.3769884  83.1427193  66.9861507
  30.7555270  82.0914364  66.4921188  28.9397240  81.1675358  67.0232487
  27.7343082  81.3389969  67.1033430  29.3669820  79.9362373  66.7800236
  28.7339950  79.1529512  66.7032290  30.3537011  79.8193407  66.5988684
  31.3110733  81.0441399  69.1302156  32.5142741  81.0239601  68.8081741
  30.6667900  80.0449753  69.8190403  29.7776651  80.3037167  70.2223015
  31.1712003  78.6913300  70.1249933  31.4433384  78.7018776  71.1804247
  30.1219153  77.5831366  69.9309444  29.3411469  77.8862810  70.6285191
  29.6973848  77.6398325  68.9286184  30.5195713  76.1316013  70.1579189
  31.3981581  75.9789324  69.5311213  30.9594774  75.8938217  71.6439819
  30.1401639  76.1954498  72.2965479  31.1927533  74.8491907  71.8499613
  31.8095398  76.5758657  71.6617060  29.5181847  75.1173449  69.6477556
  28.4931493  75.4234838  69.8567677  29.5758677  74.8887253  68.5835648
  29.5327973  74.1072607  70.0571823  32.3698163  78.3070374  69.2601967
  32.2755218  78.2452202  68.0388546  33.4415531  78.0067062  69.9480772
  33.4282088  78.2035398  70.9386206  34.7442436  77.6768446  69.3762445
  34.5908284  77.2504473  68.3849049  35.6032395  78.9440823  69.2346621
  35.6418872  79.4093561  70.2196169  37.0834184  78.7865353  68.7933826
  37.6144457  78.2610750  69.5871067  37.1041536  78.2914114  67.8225470
  37.4266887  79.8172808  68.7049007  35.0114608  79.8060513  68.3438301
  34.1333342  79.9543095  68.7023163  35.4502678  76.6235065  70.1598883
  35.5141640  76.6879654  71.3236523  35.9002376  75.4901171  69.5492697
  35.7049084  75.4753876  68.5584450  36.2549901  74.2769146  70.2371931
  36.8602109  73.7395048  69.5071220  36.8045282  74.4803190  71.1562920
  35.0952888  73.3896923  70.5775547  33.9230037  73.7878704  70.6370831
  35.3815413  72.1222258  70.7051659  36.3412118  71.8753767  70.5097246
  34.4244027  71.0317373  70.8740568  33.8023353  71.1002302  69.9816227
  35.2569890  69.7753286  70.7560587  36.0505462  69.7125530  71.5006638
  34.4852471  68.4938717  70.9196663  35.0975156  67.6509619  70.5991602
  34.4450188  68.3752155  72.0024443  33.5117507  68.5144091  70.4297876
  35.7946944  69.6639061  69.3911934  36.4264703  70.3785372  69.2827463
  33.6056471  71.0832119  72.1725559  34.1910005  71.0935402  73.2830429
  32.2983217  71.0562611  72.0357704  31.8685246  70.9248924  71.1312723
  31.3929129  71.4786577  73.0787230  31.7304063  72.4851465  73.3260775
  29.9700093  71.7417860  72.5409031  29.3292618  71.9524527  73.3971500
  29.9210215  72.6029539  71.8744946  29.6618652  70.8137608  72.0593262
  31.3771939  70.5982924  74.3323278  31.0542607  71.0798883  75.4051065
  31.6964674  69.3152046  74.2430878  31.9152927  69.0163994  73.3034468
  31.9032359  68.3539486  75.3457499  30.9800982  68.2027435  75.9052610
  32.3341203  66.9903898  74.7714710  32.9839897  67.1671438  73.9144182
  32.8921437  66.4395332  75.5286121  31.1385870  66.1608744  74.4633627
  30.6106782  65.9899473  75.4015541  30.4313397  66.7009592  73.8339138
  31.6460180  64.8898506  73.7328959  32.4238753  64.4604540  74.3642902
  30.7247138  64.3162298  73.6316204  32.1199512  65.2019644  72.4114895
  31.5394020  65.8489943  71.8972683  33.1785488  64.7661543  71.7229652
  33.9444923  63.9256144  72.2601223  33.6052990  63.4437943  73.0804253
  34.7892261  63.6581421  71.7753696  33.4978008  65.1329708  70.5435276
  32.9157996  65.7633591  70.0106287  34.3751311  64.7919130  70.1773834
  32.8123116  68.9236403  76.4286757  32.6934600  68.6202383  77.5693703
  33.9000726  69.6134043  75.9889889  34.0296078  70.0156498  75.0716400
  35.0506163  69.8440552  76.8951321  34.8355412  69.4768715  77.8986359
  36.2160826  68.9749098  76.3836670  36.4166737  69.3774605  75.3907871
  37.1174908  69.1469669  76.9718504  35.8493876  67.4734926  76.4015150
  35.4656601  66.8948841  77.5865984  35.4698730  67.5301170  78.4600258
  34.9044514  65.5921507  77.6085424  34.4307160  65.2116203  78.5013866
  34.8051500  64.8762035  76.4110756  34.1608882  63.7193775  76.3510227
  34.6437573  63.0871916  75.8136415  35.3494430  65.4032230  75.2300167
  35.2599835  64.8774052  74.2909098  35.8038783  66.7500114  75.1764822
  35.9582758  67.2549248  74.2343473  35.4603004  71.3354731  77.0091486
  35.5664182  71.8181610  78.1834745  35.5668736  72.0323086  75.8792067
  35.5119848  71.5398312  74.9991179  35.9226942  73.4543753  75.7129908
  36.9710231  73.4435606  76.0112953  35.6388688  73.9238358  74.2356873
  36.2318039  73.1842899  73.6975384  34.5598364  73.9325714  74.0817022
  36.0970569  74.8936701  74.0418243  35.2786899  74.3774986  76.7426348
  34.1234446  74.1200066  77.2230005  36.0972142  75.3843307  77.2254753
  36.9988942  75.6134272  76.8322897  35.5776119  76.2586117  78.2981396
  35.2783871  75.5961561  79.1103697  36.6800284  77.1370983  78.8407564
  36.3994861  77.6063967  79.7837067  37.4258375  76.4297676  79.2034531
  37.0204902  78.0461836  77.7458906  37.8775978  78.3584213  78.0450153
  34.4167495  77.1257114  77.9137278  34.1047168  77.3014164  76.7374945
  33.7083817  77.6122999  78.9229918  34.0636492  77.4299765  79.8507023
  32.6334167  78.6397552  78.7653589  31.9287753  78.1606245  78.0856371
  32.0567727  78.8833570  80.1609039  32.9382062  79.0730047  80.7734489
  31.0958791  80.1306438  80.1566792  31.5747213  81.0789585  79.9127245
  30.2826071  79.9621010  79.4507837  30.6678104  80.3962135  81.1232853
  31.3343668  77.6217556  80.6994915  30.4725194  77.3403263  80.0944138
  32.0840144  76.8333387  80.7668114  30.9180832  77.7356291  82.1133518
  30.5396843  78.7424517  82.2900677  30.1316667  77.0407581  82.4079800
  31.8241763  77.4683619  82.6571083  33.1428528  79.8753643  78.0626583
  32.4663854  80.3554058  77.1434498  34.3748617  80.3230476  78.3412075
  34.7629309  80.0492764  79.2325878  35.0037527  81.4514542  77.5667000
  34.4404149  82.3780632  77.6769543  36.3685727  81.7124748  78.2492542
  36.1629248  81.8718338  79.3077517  36.9253516  80.7754135  78.2521725
  37.0950627  82.8392410  77.6355600  36.8253732  83.9429474  78.0878544
  38.0360818  82.6179790  76.6967869  38.4014153  83.3135223  76.0620880
  38.3730054  81.6691399  76.6175270  35.0488186  81.1316586  76.0758257
  34.4663525  81.8882370  75.2570200  35.5409431  79.9738073  75.6472445
  35.8628607  79.2534304  76.2777376  35.5030870  79.4112253  74.2569828
  35.9416819  80.1824665  73.6238050  36.4883971  78.2104397  74.2607403
  37.3129463  78.4243202  74.9408007  35.9982514  77.3070526  74.6237135
  36.7946291  77.9698229  73.2426929  34.0593362  79.2502117  73.6892796
  33.8235259  79.6387339  72.5833130  33.1203461  78.7361288  74.4759941
  33.3788824  78.2519007  75.3238058  31.7108536  78.6897135  74.0852880
  31.7109179  78.1846809  73.1193495  30.7889485  77.8045464  74.9571228
  30.9248710  78.2413387  75.9464836  29.8013020  77.8244543  74.4964218
  31.0872769  76.3594151  75.0671291  30.2256989  75.4438686  75.7327843
  30.8043671  74.2378473  75.6201982  30.4822350  73.3044004  76.0575867
  31.9703770  74.3602085  74.9755764  32.6732826  73.6460590  74.8489952
  32.2023869  75.6563807  74.6539593  33.1378078  76.0918760  74.3349981
  31.0322952  80.0247383  73.8251781  30.1769137  80.1631641  72.9626608
  31.4967489  81.1512280  74.4019461  32.2368360  81.1096382  75.0879812
  31.0866213  82.4974537  73.9511919  30.0132585  82.4881649  73.7617016
  31.2334251  83.4281540  75.1880598  32.1771646  83.1864452  75.6769705
  31.2327695  84.4998264  74.9890232  30.2611351  83.1051350  76.3347340
  30.1406646  82.0447922  76.5566874  30.7300591  83.5439205  77.7060795
  29.9346876  83.1548023  78.3417511  31.7056799  83.1252861  77.9530954
  30.7691836  84.6302509  77.7864408  28.9139867  83.8132191  76.0881615
  28.4679437  83.4808922  75.1507664  28.1509233  83.7649822  76.8650198
  29.0436220  84.8954582  76.0810947  31.9085956  83.0366516  72.7818680
  31.6792560  84.1589260  72.3349237  32.8422523  82.2410488  72.3003387
  32.9403472  81.3436890  72.7533484  34.0091276  82.6925755  71.5519094
  34.7738838  81.9183445  71.6136646  33.5771728  82.7153111  70.5514097
  34.7686195  83.9667130  71.9862413  35.2746558  84.7305202  71.0984707
  34.8051715  84.2387390  73.2991600  34.5950007  83.4368610  73.8761568
  35.8588147  85.1507664  73.7960863  35.7336378  86.1206245  73.3146238
  35.6905341  85.3468227  75.3222513  35.6801963  84.3701744  75.8061457
  36.8529224  86.1984539  75.8610153  36.9624805  87.1322346  75.3095198
  36.7884040  86.4347649  76.9231319  37.8033638  85.6648159  75.8613634
  34.3561482  86.1103821  75.6703901  34.5265412  87.1630573  75.4446888
  33.6137056  85.9196186  74.8954773  33.8052773  85.7768822  77.0529985
  32.9071236  86.3920879  77.1073055  33.4299922  84.7535229  77.0512247
  34.5003438  85.9625053  77.8718567  37.2459912  84.6090126  73.3835936
  37.5016451  83.4250927  73.2094717  38.1481504  85.5835342  73.0326223
  37.8134990  86.5357685  73.0695200  39.5649958  85.3161621  72.9086828
  39.5892262  84.8433971  71.9268370  40.3647184  86.6317463  72.9002237
  39.7596455  87.4159431  72.4452353  40.3820753  86.9121552  73.9533949
  41.8357992  86.5030384  72.2388887  42.3492956  87.4473381  72.4197769
  42.3965406  85.7343388  72.7706528  41.6564703  86.1339283  70.7405615
  41.4250755  84.9598598  70.5182743  41.5244865  86.9816685  69.8124981
  40.1872301  84.3048191  73.9444685  39.8748016  84.2702103  75.1541615
  40.9816074  83.3522415  73.4249687  41.1944723  83.5737991  72.4628353
  41.4621115  82.1698093  74.1900492  40.9930706  82.1571922  75.1738882
  41.3020706  80.7843876  73.5017014  41.4944935  80.7668114  72.4289656
  41.9613314  80.1220703  74.0627909  39.7487640  80.3541756  73.6408472
  39.6852064  79.9617481  74.6557713  39.1691446  81.2691784  73.5187531
  39.2245603  79.3875265  72.6550341  38.6285186  79.7709608  71.6495991
  39.4682312  78.0454779  72.7986145  39.0710211  77.3904896  72.1403456
  40.1882839  77.7237654  73.4295845  42.9284716  82.3829746  74.4370747
  43.7519836  82.9062557  73.6510134  43.2793522  81.9758224  75.6657982
  42.5523949  81.5737057  76.2402010  44.6671581  82.0118713  76.2767792
  45.3341579  82.4130058  75.5136919  44.7135448  83.1084728  77.2845268
  44.5616102  84.0707111  76.7955446  43.9617538  83.0953693  78.0736637
  46.0338306  83.0520535  77.8429174  46.2685251  83.9829159  77.8446722
  45.1291323  80.6165600  76.7405844  44.3287277  79.6795893  76.6703033
  46.3516188  80.3729534  77.1483183  46.8056631  81.2727642  77.2138405
  47.0035028  79.1061974  77.5762701  47.1413279  78.4336090  76.7296648
  48.4383345  79.3168736  78.0200911  48.4751511  80.0670338  78.8100290
  48.8917542  78.4235144  78.4495354  49.3563175  79.7279406  76.8942785
  49.4167519  78.8932371  76.1959124  49.0556335  80.6214046  76.3470793
  50.8183813  79.9741983  77.3014212  51.1888361  79.2044401  77.9784250
  51.3795328  79.8758698  76.3721561  51.0205603  81.2980652  77.8998232
  50.1728249  81.6897392  78.2845879  52.0736647  82.0153427  78.1808329
  53.2371378  81.7100334  77.8817654  53.4173679  80.7792377  77.5335789
  53.9647913  82.3700142  78.1163740  51.7989492  83.1391621  78.7393570
  50.9006119  83.4138393  79.1103601  52.5669050  83.7837410  78.6173964
  46.1334419  78.3995676  78.5998726  46.0140944  77.1528387  78.5615158
  45.4578495  79.1591167  79.5015335  45.7808495  80.1068974  79.6337318
  44.4283247  78.7625742  80.5160141  44.9455452  78.1656694  81.2672043
  43.8562393  80.0555897  81.1486340  43.2235479  79.8531723  82.0128250
  44.7302485  80.6111145  81.4886475  43.0014038  80.8411217  80.1393127
  43.5432529  80.9389687  79.1986036  42.0805836  80.3084087  79.9018002
  42.5611162  82.2047043  80.5079842  42.1210289  82.0601940  81.4946651
  43.3864784  82.9164982  80.4929352  41.6394901  82.6769924  79.5070887
  41.5602064  82.0701790  78.7036037  40.9582424  83.7926483  79.3481922
  40.7552624  84.7110081  80.2375126  40.9841442  84.5050144  81.1994267
  39.9890399  85.3332329  80.0233841  40.2729702  83.8949394  78.3117580
  40.4227066  83.1551456  77.6406527  39.4962192  84.5401192  78.3342981
  43.3240795  77.9438019  80.0125313  42.9171371  77.0269346  80.7294941
  42.8245115  78.1355810  78.7849379  43.3883142  78.6658621  78.1360769
  41.5688658  77.5807476  78.1878996  40.8298492  77.5854683  78.9891100
  41.0007286  78.4616327  77.1252489  41.6948700  78.5985708  76.2960863
  40.1886225  77.8777456  76.6920519  40.5475092  79.8599672  77.5142908
  39.3792582  79.8948383  77.9480886  41.1148882  80.9251499  77.2528887
  41.7556572  76.2074327  77.5777102  40.9911585  75.3390503  77.8802443
  42.9209995  75.9199953  76.9394684  43.6789942  76.5741491  76.8066883
  43.4219456  74.5803213  76.7084551  42.7243805  74.1347885  75.9992313
  44.7971916  74.7206831  76.0534573  45.2919674  75.5226994  76.6012383
  45.3542185  73.7969017  76.2098026  44.7415113  74.8875856  74.5206356
  43.6834717  75.1524258  73.9455795  45.8125114  74.7373962  73.9305353
  43.5136938  73.7484884  77.9361248  43.0070782  72.5665569  78.0107450
  44.2314959  74.3031549  78.9558506  44.8510265  75.0472498  78.6684227
  44.4957352  73.6472273  80.2428341  44.8472881  72.6664591  79.9225140
  45.5640888  74.3633318  81.0547924  45.3093719  75.4090834  81.2269306
  45.8399963  73.8938236  81.9990063  46.9004107  74.6292830  80.2681351
  46.8365145  74.1668940  79.2831373  47.1537352  75.6893158  80.2843761
  48.3173800  73.8986397  81.0578823  48.2990026  72.0851803  80.7089138
  47.7914000  71.7332458  79.8108149  49.3357038  71.8238926  80.4965878
  47.7087641  71.4461470  81.3656902  43.1316757  73.3736277  80.9968090
  42.9147625  72.2789907  81.5401745  42.1888638  74.3164444  80.9703159
  42.3641634  75.2144670  80.5426311  40.8550596  74.0779591  81.6165257
  41.0829401  73.6922979  82.6102161  40.0534773  75.3830004  81.8793869
  40.7628059  76.0405588  82.3819637  39.8877501  75.8018875  80.8868313
  38.7087893  75.1724577  82.6451683  38.2647657  74.3857908  82.0351696
  38.8383865  74.8889160  83.6896324  37.7417350  76.4180613  82.6933384
  38.1429029  77.5205421  82.3207951  36.6723084  76.2822485  83.3415413
  40.0956917  73.0016518  80.7731152  39.4285870  72.1974421  81.4320087
  40.0194407  73.0452490  79.4300318  40.5975580  73.7292862  78.9631557
  39.3946290  72.0427942  78.6112309  38.3177614  72.1729326  78.7185955
  39.6368837  72.3334980  77.1513462  40.6580877  72.1767807  76.8039465
  38.9581895  71.6305828  76.6682482  39.2459822  73.6392593  76.8733454
  39.8105359  74.2203617  77.3883295  39.8512125  70.6542301  78.9529133
  39.0083718  69.7601318  79.0441418  41.1594725  70.4075813  79.0878773
  41.7685413  71.1277533  78.7266541  41.7044640  69.0864515  79.6023703
  41.4186716  68.4182644  78.7899971  43.2320833  69.1005754  79.6874905
  43.6100960  69.2848682  78.6818838  43.6482430  69.9293756  80.2602100
  44.0119028  67.8478527  80.2464676  43.6764145  67.7012777  81.2731457
  43.6628866  66.5688801  79.4157124  42.6675224  66.1571693  79.5825672
  43.7673664  66.7817307  78.3518124  44.4473219  65.8282089  79.5711565
  45.5547237  68.0763388  80.2531910  45.7760143  68.9119387  80.9171867
  45.9891033  67.1466160  80.6206608  45.8771086  68.2210493  79.2220592
  41.1249828  68.6783600  80.9629154  40.8299732  67.4883509  81.1997128
  40.9064817  69.6219540  81.8824863  41.1193752  70.5760813  81.6286850
  40.2306461  69.3870974  83.1715870  40.8450556  68.6158991  83.6361980
  40.1624584  70.2830696  83.7885761  38.8385749  68.7715006  83.0024624
  38.5481524  67.7724552  83.6926270  38.0093360  69.2546606  82.0025253
  38.2721877  70.1202583  81.5533638  36.7100573  68.6111259  81.6986179
  36.1420894  68.4316969  82.6114845  35.8155894  69.5677614  80.8802414
  36.2673736  69.7392273  79.9032068  34.8511171  69.0828037  80.7295513
  35.5273056  70.8676672  81.6207314  34.6134162  70.8961344  82.6579094
  34.0975976  70.0548792  83.0967999  34.3539786  72.0677376  83.3757782
  33.6344552  72.1471548  84.1772652  34.8776507  73.3165884  82.9207230
  34.4440150  74.4653368  83.4793472  35.1842475  75.0634050  83.6057186
  35.8008957  73.3983946  81.8911266  36.3233376  74.3109274  81.6446590
  36.1149573  72.1430016  81.2709713  36.9318271  72.1584749  80.5646515
  36.9036770  67.1959591  81.0311508  36.0810018  66.2766695  81.2401962
  37.8782368  66.9743443  80.1721001  38.5198927  67.7292347  79.9758148
  38.3069658  65.6006956  79.7029161  37.4220347  65.0641394  79.3607140
  39.4778824  65.6191778  78.7564182  40.3162336  66.1276484  79.2325735
  39.8273873  64.1634512  78.3383369  40.8012486  64.1792107  77.8490019
  40.0218534  63.5387325  79.2101240  39.0221214  63.7389565  77.7387905
  39.2091751  66.3545752  77.4170160  38.2467246  66.0768890  76.9872761
  39.1403174  67.4277830  77.5947189  40.0263882  66.1666298  76.7206430
  38.6348510  64.7185183  80.9156322  38.0712461  63.6125088  81.0317802
  39.4947863  65.1363087  81.8497086  39.9871325  66.0170078  81.8041515
  39.8054647  64.3582344  83.0647087  40.1839209  63.3634901  82.8294277
  40.7449627  65.1089287  83.9515305  40.2418709  66.0666656  84.0846825
  40.9059000  64.6135092  84.9090004  42.2157621  65.4472971  83.4617043
  42.2483492  65.9417057  82.4908257  42.9918718  66.3510990  84.4773102
  42.4016619  67.2103548  84.7957993  43.3597660  65.8408070  85.3674603
  43.8736916  66.6920471  83.9348698  43.0275965  64.1828346  83.2248211
  42.9159832  63.5989761  84.1384697  42.5606632  63.6370134  82.4049664
  44.0688372  64.4348526  83.0238056  38.5786653  64.0556669  83.8676357
  38.5167646  62.9988909  84.4536209  37.5457621  64.9452209  83.9045525
  37.7089000  65.8453560  83.4764767  36.2505770  64.7478390  84.5999432
  36.4727354  64.4986916  85.6375694  35.4481769  66.0023022  84.6030331
  36.0735559  66.8802214  84.7650814  34.9247742  66.2005520  83.6676979
  34.5160794  66.0373259  85.7819462  33.7399316  65.2917624  85.6092167
  35.0349116  65.9083271  86.7318344  33.6746931  67.6461077  85.8574963
  34.9808526  68.7901163  86.5324593  35.5078936  68.2494020  87.3185635
  35.6296873  68.9625216  85.6737423  34.4429016  69.6851301  86.8449688
  35.4552126  63.5632944  84.1154003  35.0776315  62.7468777  84.9296379
  35.2950859  63.5385895  82.7755833  35.6905413  64.3025637  82.2463703
  34.6869540  62.4669647  81.9703579  33.6784530  62.4330616  82.3825264
  34.5977783  62.9134655  80.5267906  33.8541865  63.7062502  80.4451466
  35.5782938  63.3067417  80.2584267  34.3425369  61.9026661  79.4070530
  33.1628704  61.1937380  79.4895649  32.4765539  61.3171768  80.3142738
  32.8278589  60.2908945  78.4305573  31.8531322  59.8258638  78.4381056
  33.7572289  60.0689173  77.4546051  33.4823895  59.1720009  76.4548206
  34.1825294  59.2471695  75.8023214  34.8976684  60.9062719  77.3694754
  35.6369662  60.7720518  76.5937042  35.3081656  61.7004490  78.3888006
  36.2897539  62.1499348  78.3596230  35.4812765  61.1654806  82.1909523
  34.8514915  60.1191139  82.3192883  36.7899680  61.1949635  82.1870899
  37.3119473  62.0536804  82.0859241  37.5865126  60.0653219  82.4924469
  37.2685981  59.2869616  81.7987633  39.0752530  60.3914738  82.2330093
  39.2708111  61.3739824  82.6625824  39.7052789  59.7078800  82.8021049
  39.4882274  60.5219364  80.7283592  38.6664963  60.0480556  79.7136593
  37.6425242  59.7078848  79.7601986  39.1857219  60.0842857  78.3615732
  38.6143923  59.6949053  77.5318909  40.5094862  60.6082964  78.1231403
  40.9209919  60.4957390  77.1309757  41.3259268  61.0067034  79.1644382
  42.3298454  61.3626385  78.9859676  40.7604027  61.0958767  80.4634094
  41.3682270  61.5575886  81.2274647  37.4323201  59.5580292  83.9142799
  37.5388575  58.3692694  84.1893101  37.2548127  60.3987312  84.9591923
  37.2251630  61.3564777  84.6399021  36.8416905  60.0786257  86.3490963
  37.3365307  59.1287947  86.5517139  37.2307658  61.1700106  87.3217392
  36.9537807  62.1609545  86.9620037  36.6520953  61.0380697  88.2359695
  38.7172270  61.0805941  87.6575089  39.0947437  60.4430723  88.6384487
  39.6058297  61.6810226  86.9243908  40.5554819  61.4402676  87.1699333
  39.3719745  62.3453140  86.2004280  35.3257132  59.6991587  86.3910007
  34.9616838  59.1665697  87.4478054  34.4278884  59.9558115  85.4186249
  34.7345495  60.2196312  84.4931793  32.9663515  59.6900415  85.4816055
  32.7143764  58.6814785  85.8093357  32.2106981  60.5987263  86.4808464
  32.5493455  60.5314445  87.5147152  32.2604418  61.6163301  86.0934162
  30.7065630  60.1240921  86.5104771  30.1450968  60.3918839  85.6154156
  30.6405544  59.0496731  86.6818523  29.9604821  60.7920647  87.6449394
  28.9503551  60.3834534  87.6170731  30.4487538  60.5696344  88.5937405
  29.8489165  62.2847366  87.4092388  29.3272901  62.5202703  86.5770435
  30.3553104  63.2685280  88.1277084  31.2529016  63.1500101  89.0782166
  31.3818359  62.3434019  89.6722412  31.5291572  63.9836359  89.5770645
  30.0339651  64.4525576  87.7568150  29.2949724  64.4798279  87.0688820
  30.3756762  65.2982378  88.1905842  32.4151850  59.8438025  84.0720367
  32.3474789  60.9744787  83.5761452  31.9300938  58.7572765  83.4723377
  31.8625069  57.8885078  83.9829922  31.4097214  58.8076973  82.1239567
  32.1557784  59.1757774  81.4196777  31.1466360  57.3593044  81.6320705
  30.2389050  57.0079279  82.1226406  31.2509131  57.1093988  80.1697826
  32.2521043  57.4595499  79.9185514  31.0317278  56.0564899  79.9924374
  30.4792356  57.6394892  79.6115541  32.1724653  56.5325260  82.1679115
  32.9342222  57.0995998  82.3084545  30.1066136  59.6144772  81.9533825
  29.7072625  59.8529720  80.8546352  29.3760443  59.8573303  83.0430889
  29.6651077  59.4596052  83.9253330  28.0283213  60.4852772  83.0205822
  27.5416684  60.2486706  82.0743847  27.1795630  59.7282600  84.0110397
  27.0334506  58.6744356  83.7739563  27.7257800  59.8240757  84.9494267
  25.8992457  60.2430296  84.3407440  25.3892684  59.6723032  84.9202251
  28.1152296  61.9796896  83.5380936  28.3461952  62.2354984  84.7249794
  27.8958154  62.8438950  82.5508499  27.8553486  62.5362015  81.5897179
  27.8985071  64.2854166  82.8325272  27.5767708  64.4660711  83.8581657
  29.2904997  64.9377298  82.5529194  29.6469021  64.7673464  81.5370274
  29.0962315  65.9970140  82.7210808  30.4239225  64.5904350  83.4015083
  30.2437496  63.5296679  83.5758877  31.7779922  64.6113157  82.7536297
  31.7938495  63.9167404  81.9137287  31.9617271  65.6055212  82.3463345
  32.5687289  64.3330383  83.4503365  30.5415440  65.3398180  84.7235680
  31.2443972  64.8295259  85.3821278  30.7590795  66.4025450  84.6168137
  29.5726085  65.2887440  85.2202129  26.7693496  64.9432707  81.9301224
  26.5120792  64.4102430  80.8085251  26.0003614  65.9080887  82.5141621
  26.4350963  66.9006109  83.5157681  27.4061584  67.3799562  83.3917999
  26.5041208  66.3318920  84.4430733  25.3302622  67.9837894  83.6596107
  25.5856085  68.8158035  83.0033684  25.1498389  68.3004808  84.6868706
  24.2030334  67.1363544  83.1871891  23.4408808  67.8322458  82.8365231
  23.6870170  66.5863132  83.9741325  24.6564293  66.1914158  82.1117496
  24.1049314  65.2512789  82.1015835  24.4033766  66.7409515  80.6793785
  23.2447815  66.8800068  80.3571796  25.4051757  66.9197369  79.8014593
  26.3367915  66.7027140  80.1256561  25.2074361  67.2498274  78.3768940
  24.3572807  67.9216528  78.2586145  26.3975763  68.1014061  77.8746796
  26.5100694  68.2823229  76.8057013  26.2821484  69.1154194  78.2575083
  27.7273417  67.6373339  78.3178234  28.3744788  66.7325640  77.6046324
  27.9614425  66.2292099  76.7429781  29.6323371  66.6771746  78.0458498
  30.2212667  65.9097481  77.7554655  29.7765422  67.4256325  79.2423010
  30.8287334  67.7186251  80.1323891  31.8138337  67.2855330  80.0406742
  30.6297612  68.6896992  81.1162758  31.4788485  68.9144707  81.7447186
  29.3949032  69.3456888  81.2217522  29.3679476  70.0950146  81.9990444
  28.3107710  69.0236521  80.4001045  27.3676300  69.5447302  80.4732990
  28.5481453  68.0923414  79.3815613  24.9904919  66.0905933  77.3918915
  24.8718882  66.2731028  76.1687040  25.0683284  64.8514652  77.8323603
  25.4847741  64.6792459  78.7362480  24.9293542  63.6813974  77.0136690
  25.4923439  63.8772345  76.1010933  25.6644583  62.5493288  77.7796841
  25.3613830  62.5624084  78.8266182  25.4215479  61.5744734  77.3568916
  27.2186422  62.8029537  77.8085899  27.5575686  62.6347399  76.7863703
  27.5000405  63.7789679  78.2039547  27.8828096  61.8174839  78.7530422
  27.3614049  61.5174723  79.8606777  29.0200758  61.2756491  78.4189034
  29.4538283  60.7525587  79.1661215  29.5262694  61.4950037  77.5728798
  23.4511352  63.3031988  76.7866659  22.6342964  63.3475971  77.6991606
  23.2458401  62.8288269  75.5945826  23.9804125  62.7369356  74.9075174
  22.0002818  62.2779894  75.2201700  22.2130704  61.4909887  74.4966698
  21.4024544  61.8722248  76.0362959  21.0746527  63.2605696  74.5539045
  19.9476087  62.8348207  74.1898918  21.5161037  64.4815397  74.3533373
  22.5181818  64.5143127  74.4752741  20.7201695  65.6048584  73.9346886
  19.6993256  65.5002117  74.3021536  21.4410830  66.9381285  74.4217300
  22.4136114  67.0043850  73.9339828  20.8987474  67.7709484  73.9740896
  21.6327405  67.1450996  75.8514166  22.2313404  66.3985538  76.3733816
  22.3504591  68.5154486  76.0887098  23.3640814  68.4686661  75.6906128
  21.8197536  69.3382788  75.6097460  22.4978852  68.7535954  77.1421099
  20.2817512  67.1581459  76.5799665  19.4456613  67.5960875  76.0347462
  20.0468540  66.1159325  76.7961168  20.4979801  67.5698900  77.5657701
  20.5145884  65.5372477  72.4618006  21.5236473  65.4502249  71.6585064
  19.2310143  65.5843401  72.0706892  18.6331391  65.7979393  72.8562021
  18.6297512  65.2336645  70.7811785  19.3295205  64.5354509  70.3219175
  17.3061383  64.5334530  70.8266258  17.5180590  63.6945295  71.4894962
  16.5957665  65.2076626  71.3050842  16.8753695  64.1953039  69.4604540
  16.6285408  65.1268959  68.9512205  17.7418768  63.5999727  69.1726208
  15.5402374  63.3664227  69.5521450  15.6340420  62.7154398  70.4213524
  14.7307527  64.0283585  69.8598385  15.1189637  62.6723337  68.2405996
  14.9081802  63.4701920  67.5284958  15.9619045  62.0371723  67.9683590
  13.9159048  61.8514872  68.4516525  13.6745477  61.2778950  67.6561403
  13.9410019  61.3439035  69.3244839  13.1461620  62.4868155  68.6064386
  18.7195575  66.4275312  69.8493052  18.2905769  67.4969387  70.3046036
  19.1753316  66.2482929  68.6223030  19.6386075  65.3647280  68.4648657
  19.4561815  67.3332071  67.6993084  18.7505054  68.1519032  67.8402376
  20.8663917  67.9234695  68.0233717  21.6438031  67.2162867  67.7341890
  20.9745812  68.8371897  67.4389791  20.8959031  68.1692457  69.0848875
  19.4655979  66.8541336  66.1873150  20.1298523  65.8593178  65.8187342
  18.7110031  67.4648905  65.2795506  18.2228243  68.2771683  65.6288147
  18.5797584  67.0447683  63.9490747  18.5226393  65.9581089  64.0123844
  17.3449612  67.5363731  63.2438231  16.4259923  67.2345352  63.7463188
  17.3498893  68.6184931  63.3745432  17.3231161  67.2360802  62.1962309
  19.8430216  67.4014091  63.0801916  20.0381684  66.7776966  62.0554972
  20.7024574  68.3106756  63.5340834  20.4954743  68.6899948  64.4469786
  21.9113374  68.7005806  62.8098965  22.1591282  67.9473448  62.0620108
  21.6731334  70.0271225  62.0275021  22.3737335  70.1243782  61.1981630
  20.2589011  70.3738070  61.6869259  19.7929192  69.5762634  61.1082363
  19.7739291  70.5183172  62.6523399  20.1983523  71.3001108  61.1156082
  22.0450497  71.1191940  62.8646946  21.9692707  71.8873739  62.2939444
  23.2173085  68.7237120  63.7309504  23.0773640  68.7769175  64.9386835
  24.4102311  68.7077808  63.1834507  24.4003272  68.7290192  62.1737194
  25.6820631  68.6378574  63.8480568  25.5180168  67.8732300  64.6073580
  26.7500210  68.1756115  62.8156757  26.5479302  67.1372938  62.5527048
  26.7146587  68.9363480  62.0358467  28.1717467  68.1478882  63.3594275
  28.5598326  69.1633892  63.4385014  28.2873368  67.6621962  64.3283653
  29.1252375  67.3539782  62.3899555  28.9325571  67.7212811  61.3819551
  30.1525068  67.5740004  62.6804829  28.7863898  65.8026457  62.3591518
  27.7157664  65.6056499  62.3037910  29.2196584  65.2865171  61.5024185
  29.3178439  65.1130962  63.5109568  28.9550686  64.1753817  63.6068106
  30.3194952  65.0175095  63.4234333  29.0035009  65.6295013  64.3200397
  26.0197759  69.9207973  64.6012974  26.3271117  69.9139452  65.7744360
  25.9312224  71.1287260  63.9465666  25.6365275  71.1958885  62.9828548
  25.9173369  72.4486303  64.6106815  26.8826842  72.4381208  65.1167393
  25.8833170  73.5854053  63.5666418  26.5700459  73.2711554  62.7806711
  24.9410820  73.6131287  63.0193520  26.2969995  74.9496460  64.1161346
  25.6404066  75.1855278  64.9535990  27.3686934  74.9123526  64.3115377
  26.0370898  75.9991741  62.9748058  26.6834044  75.8325291  62.1130562
  25.0126076  75.9219217  62.6107073  26.2433243  77.4065638  63.4662533
  25.6924701  77.5003147  64.4021368  27.3213601  77.5128269  63.5872746
  25.8134270  78.3784866  62.5197887  26.3921380  78.2912874  61.6966343
  24.8764920  78.2867718  62.1539307  25.8703780  79.2899704  62.9511309
  24.8168850  72.6036644  65.7066584  25.3179479  72.8813744  66.8306446
  23.5725117  72.2774220  65.4909945  23.3823872  71.9140100  64.5680189
  22.6063251  72.2262192  66.5460587  22.4289083  73.2169867  66.9643831
  21.2637806  71.7609358  66.0471725  20.9769869  72.4442530  65.2478456
  21.3282323  70.7296753  65.7001257  20.1299405  71.8351030  67.0473194
  20.4158187  71.4693975  68.0335379  20.0311208  72.8995895  67.2599316
  18.7801945  71.3180780  66.6137838  18.7513268  70.2673721  66.0063171
  17.5905168  71.9230938  66.8517065  16.6908145  71.5683937  66.5604687
  17.6614487  72.9155922  67.0249605  23.0367661  71.3587570  67.7249384
  22.7288055  71.6365147  68.8994408  23.6578226  70.1657772  67.5333786
  23.7716889  69.8702097  66.5743303  24.1175628  69.1212463  68.5618401
  23.3602571  68.8555861  69.2994118  24.6152306  67.8780794  67.8506613
  23.8158011  67.4137163  67.2732687  25.3605843  68.2758760  67.1619558
  25.1961493  66.7351294  68.6930990  25.4574752  65.8923721  68.0531216
  26.0817194  66.9396591  69.2947865  24.1526866  66.2542868  69.6639299
  23.9496779  67.0406103  70.3909731  23.2593584  65.9327555  69.1285086
  24.8021054  65.0078249  70.2534676  25.0567937  64.3259573  69.4421196
  25.7435536  65.3281307  70.6997681  23.9898348  64.2893410  71.2188864
  23.8387895  64.7964334  72.0792007  23.1019115  63.9182663  70.9122896
  24.3807507  63.4181452  71.5479898  25.1955628  69.6573973  69.5369434
  24.9788117  69.6205950  70.7264948  26.2313890  70.2666903  68.9478827
  26.3652587  70.0975752  67.9611778  27.2298789  71.0877466  69.6098661
  27.7039242  70.5541706  70.4336882  28.3276367  71.4061832  68.5698843
  27.8687596  71.9831371  67.7669764  29.0144968  72.0815229  69.0800190
  29.0707898  70.2717590  67.8494692  29.9880266  70.7632828  66.8736410
  30.1655293  71.8193865  66.7338848  30.6744337  69.8004007  66.1384630
  31.3617349  70.1746035  65.3941584  30.5931449  68.4394169  66.3406229
  31.4137650  67.5582838  65.7450008  32.2818542  67.8861570  65.4989958
  29.5698404  67.9706478  67.1986675  29.4730306  66.9330835  67.4823761
  28.8443041  68.8527822  67.9699898  28.1664348  68.4192944  68.6903954
  26.5460062  72.2324705  70.3797626  26.6918015  72.3102379  71.6169643
  25.6475639  73.0410528  69.6993589  25.4343104  72.7424765  68.7583590
  24.9756384  74.1758108  70.4400063  25.7349157  74.8392153  70.8541203
  24.0723205  74.9045897  69.4106817  23.5018802  74.1270018  68.9026928
  23.3231854  75.4264736  70.0061131  24.8597646  75.7807446  68.4186697
  25.4530382  76.4397621  69.0525627  25.6301212  75.1888132  67.9244328
  24.0642548  76.5261126  67.4187422  24.3078852  77.6762867  67.2370338
  23.1696963  75.9896183  66.7547321  24.1704726  73.7275028  71.7078638
  24.1215158  74.4684792  72.7068472  23.4921312  72.5540161  71.6666746
  23.6543751  71.9177294  70.8992672  22.6819563  72.0137835  72.7865648
  22.0703745  72.8407240  73.1474590  21.6055107  71.0426140  72.3381758
  21.9668460  70.2481556  71.6851997  21.2224412  70.6651640  73.2862711
  20.5601001  71.7802954  71.4604187  20.2050161  72.5994349  72.0857430
  21.0123134  72.2702932  70.5981541  19.3473554  70.8847570  71.0044193
  19.5701575  69.9851704  70.4306555  18.9708376  70.3440332  71.8727207
  18.2457983  71.6201496  70.2976227  18.6942923  72.3929644  69.6733522
  17.6448202  70.9516764  69.6811295  17.2693169  72.2208261  71.2366009
  16.8464911  71.4792681  71.7764235  17.7107036  72.8519630  71.8900156
  16.5427983  72.6217508  70.6608152  23.5587144  71.4515448  73.9113712
  23.2439351  71.7697906  75.0491095  24.5722651  70.6364250  73.5452032
  24.5817995  70.3878021  72.5663280  25.6736493  70.3305435  74.4284964
  25.3242922  69.6624947  75.2157497  26.7519093  69.5027304  73.7181044
  26.8812943  69.8770523  72.7026033  28.1401181  69.4258595  74.3627071
  28.2614112  68.6755991  75.1440525  28.9420652  69.3551064  73.6278725
  28.4138131  70.3340149  74.8997784  26.3163161  68.0701637  73.5339165
  26.3662100  67.6494884  74.5382309  25.2968168  68.1543922  73.1575871
  27.0770645  67.3778248  72.4305964  26.9940853  68.0019474  71.5408325
  28.1122494  67.1415710  72.6769257  26.4976144  66.4762020  72.2320604
  26.2069893  71.6024399  75.1546097  26.4060426  71.6268110  76.3702011
  26.4491892  72.6175928  74.3444633  26.3396907  72.4937677  73.3480787
  26.9739223  73.9347887  74.8362303  27.8959942  73.7129831  75.3735256
  27.3421645  74.8689270  73.6561632  28.1913710  74.5436287  73.0552244
  26.5059924  74.9555826  72.9623318  27.6040602  76.1658049  74.0861988
  28.1376410  76.0929728  74.8809242  25.9515405  74.5823669  75.7684851
  26.3820434  74.7864580  76.9187880  24.6494150  74.7003603  75.4468441
  24.4074035  74.5743513  74.4743967  23.6437345  75.3398514  76.2726212
  24.0707135  76.3325930  76.4149570  22.4899745  75.6275225  75.4833269
  22.7617097  76.1025095  74.5406485  22.0987558  74.6383810  75.2453232
  21.4826870  76.5991831  76.1026430  22.0024848  77.3869324  76.6479588
  21.0260940  77.1189213  75.2603292  20.3734803  75.9043503  76.9391441
  20.3115344  74.6951532  76.9916105  19.5585954  76.6635704  77.5763559
  23.5170007  74.6778631  77.6358938  23.4917808  75.3838348  78.6485434
  23.5680342  73.2871342  77.7689838  23.6786914  72.7238321  76.9379902
  23.6651731  72.6560688  79.0983725  22.7946568  73.0070448  79.6525574
  23.2978678  71.1761284  78.7900972  22.4503970  71.0838699  78.1108475
  24.1809964  70.7536077  78.3108664  22.8692007  70.4752016  80.1585388
  22.4467850  69.5158815  79.8595953  23.7919068  70.2960587  80.7104588
  21.8153143  71.2154913  81.0718346  22.2588754  72.1722460  81.3474846
  20.8967686  71.4314985  80.5261993  21.6482472  70.4751587  82.3590469
  21.2554979  69.4626522  82.2658730  22.6435065  70.4075432  82.7983475
  20.7692528  71.2070560  83.2757092  20.8167768  70.9443474  84.2497826
  20.9040427  72.2071981  83.2350540  19.8320687  71.0606050  82.9288006
  25.0206494  72.7312374  79.8572969  25.0107408  72.7200508  81.0964489
  26.1520123  72.8239965  79.1995955  26.1132550  72.7658749  78.1920147
  27.5035143  72.9004717  79.8212767  27.5510502  72.3391914  80.7544518
  28.5564446  72.4063635  78.8316822  28.3060098  71.3848495  78.5455179
  28.6473203  73.0762243  77.9766226  29.9667001  72.3023462  79.4079161
  30.3917813  73.3050823  79.4518995  29.9288321  71.9880533  80.4509354
  31.1200237  71.5721130  78.6048698  30.7403255  70.6391191  78.1883955
  31.2684083  72.2326803  77.7506208  32.4393606  71.4525986  79.2931271
  32.5114226  70.9599495  80.2627659  32.9684591  70.9005642  78.5163260
  33.1077433  72.7837563  79.3825817  32.6291442  73.4422588  79.9804306
  34.0300941  72.5900936  79.7457075  33.2833648  73.1727934  78.4672117
  27.8468776  74.2797327  80.2861595  28.4523082  74.5269823  81.3125038
  27.4152255  75.2929974  79.5910311  27.2040510  75.1115561  78.6201620
  27.4096608  76.7268848  80.0311470  28.4431791  76.8943739  80.3342724
  27.0916986  77.6711798  78.8743067  26.0275173  77.5581980  78.6672974
  27.2142649  78.6813354  79.2650366  27.9456949  77.5631380  77.6115274
  28.9534140  77.9263783  77.8131771  27.9885364  76.5117741  77.3271084
  27.4283457  78.6147308  76.2405872  27.9988313  80.2238464  76.7978144
  29.0882349  80.2295494  76.8334150  27.6689267  80.9724808  76.0775375
  27.6409793  80.3647518  77.8177118  26.3306308  77.0581579  81.2202835
  26.5245891  77.9894829  82.0021248  25.2412295  76.2805128  81.2139797
  25.1871109  75.5150509  80.5572891  24.1990423  76.4969349  82.2702312
  24.3242526  77.5198126  82.6253986  22.8270435  76.4832926  81.6667366
  22.0890594  76.8254280  82.3922920  22.8808093  77.3126268  80.9614658
  22.3761153  75.2662754  81.0810471  22.7690721  75.1407909  80.2141857
  24.1582394  75.4895210  83.3793354  23.2186985  75.4692745  84.1915321
  25.0915980  74.5582962  83.5229683  25.6454587  74.3887329  82.6955700
  25.3983998  73.8052893  84.7333622  24.5119691  73.7024593  85.3592777
  25.7828999  72.3887300  84.3347359  26.6374278  72.3286390  83.6607361
  25.9508276  71.5269470  85.5819130  26.7207336  71.8325281  86.2904072
  25.0242496  71.5355825  86.1559010  26.1973476  70.5486012  85.1693916
  24.6477914  71.9371891  83.6749172  24.8592186  71.9677401  82.7389908
  26.5161347  74.4725657  85.5157375  27.5900841  74.6961546  84.9253559
  26.3838005  74.7632074  86.8608665  25.1924753  74.4444227  87.6531601
  24.9823165  73.3850670  87.8004742  24.3145490  74.7888947  87.1066380
  25.4216790  75.2746773  88.8983631  24.9552965  74.6977949  89.6969795
  24.9264622  76.2284517  88.7162304  26.8793249  75.5433416  89.1033649
  27.4343395  74.9725628  89.8478508  27.0590305  76.5750647  89.4056129
  27.4859691  75.2513742  87.6674080  27.7012968  76.2306499  87.2399044
  28.6918855  74.2924690  87.6994610  28.4851599  73.0182934  87.7204514
  29.8654866  74.8709154  87.6488972  29.8247814  75.8485365  87.8992939
  31.0786939  74.0624046  87.7428627  31.0202050  73.2445765  87.0246506
  32.3456073  74.9009037  87.4268341  32.1908021  75.5084991  86.5352249
  32.8016448  75.7938242  88.6778831  33.7213588  76.3119936  88.4063530
  31.9832230  76.4852524  88.8784122  32.9582644  75.2804422  89.6265697
  33.4917855  73.9109516  87.0633411  32.9961443  73.2805204  86.3251019
  34.4163966  74.3622971  86.7035103  33.7104702  73.3669424  87.9822159
  31.2134671  73.1988811  89.0178680  31.5705729  72.0159578  88.9191246
  30.8420873  73.7229156  90.1403999  30.5907631  74.6947289  90.0285435
  30.5611253  72.9970694  91.3497162  31.4940548  72.5686407  91.7160416
  30.0383043  73.9531469  92.4763203  30.6420016  74.8531008  92.5935078
  29.1092515  74.4637489  92.2228622  29.9696755  73.1773233  93.8682747
  29.3314385  72.2992563  93.9669991  30.9361529  72.7838516  94.1832447
  29.4740462  74.0693283  94.9149132  30.2451754  74.7293949  95.5919266
  28.2517290  74.0094852  95.1027203  29.8290730  71.7149544  91.1221695
  30.2099872  70.5770206  91.6112995  28.6011577  71.8083334  90.5576515
  28.3549452  72.7396441  90.2541065  27.6734996  70.7328606  90.3400993
  27.5501895  70.1963425  91.2808609  26.3167405  71.3086987  89.9563026
  26.4325190  71.8895960  89.0412807  25.1693249  70.3080988  89.5882607
  24.9162316  69.8631954  90.5506039  24.2479801  70.8155441  89.3023872
  25.3569198  69.4823122  88.9019680  25.7009840  72.1518421  91.0199261
  24.9059200  72.7870417  90.6294250  25.4005575  71.5579891  91.8831730
  26.4420676  72.8798580  91.3499069  28.2639241  69.7126770  89.3446255
  27.9750681  68.5204601  89.5182037  29.0795708  70.0960636  88.4192562
  29.1053915  71.0944557  88.2687569  29.8410463  69.1335726  87.5995541
  29.1769958  68.3450603  87.2454643  30.5912757  69.9221420  86.4762688
  31.0908031  70.7530785  86.9743729  31.3308668  69.2694378  86.0124969
  29.6550608  70.4405880  85.3837109  28.8827229  71.0755110  85.8178520
  30.3092504  71.4270210  84.4722176  31.1162567  70.9794474  83.8921165
  29.4729066  71.7450953  83.8497543  30.7109261  72.1985483  85.1290989
  29.1843033  69.2777443  84.5793533  29.9733162  68.9264107  83.9144230
  28.8415170  68.3996391  85.1266384  28.3449602  69.6963739  84.0240574
  30.9612918  68.4194136  88.4427071  31.3033891  67.2692537  88.2769871
  31.5141392  69.0720415  89.5008373  31.2439537  70.0422335  89.5771980
  32.5935411  68.5738039  90.3138542  33.1628871  67.8309822  89.7551250
  33.4766650  69.7818947  90.6319714  32.8758502  70.5049276  91.1836433
  34.3116641  69.5418739  91.2901974  34.2143035  70.6334114  89.3011951
  33.0540013  70.9210920  88.7046719  32.2015023  67.8977966  91.6380692
  33.0716562  67.3921824  92.4175072  30.8998895  67.7062654  91.8019295
  30.2575040  68.1484175  91.1600971  30.3633857  66.5590048  92.5483894
  30.4845619  66.7548275  93.6137867  28.9191031  66.4306641  92.0264149
  28.4291553  67.4007702  92.1097469  28.8821769  66.1069632  90.9862423
  28.2080674  65.3554344  92.9542446  28.8464093  64.4797659  92.8366661
  28.2085729  65.7202148  93.9813900  26.7349076  65.0047874  92.7042770
  26.1727190  65.9348822  92.6208305  26.6346979  64.3952274  91.8062305
  26.2008691  64.1349697  93.8679028  26.2444353  64.6573067  94.8236084
  25.1383018  63.9970303  93.6678505  26.9409299  62.8021908  93.9218426
  27.0654798  62.4244308  92.9934597  27.8583145  62.9716253  94.3088722
  26.4823413  62.2385740  94.6233559  31.1843777  65.3008986  92.2253895
  31.3047957  64.9699783  91.0365677  31.7351127  64.6141768  93.2640648
  31.5244865  64.9066544  94.2075634  32.5496840  63.4235811  93.0683899
  32.7399254  62.9099131  94.0107536  32.1085358  62.6358175  92.4577236
  33.9446378  63.5721779  92.4784088  34.7714615  62.6411867  92.5820160
  34.3090510  64.7405195  91.8285275  33.6268544  65.4852486  91.8189526
  35.6678414  64.9552250  91.1517715  35.8500791  64.0906572  90.5134869
  35.5433321  66.1456966  90.2784920  34.7282195  65.9330750  89.5867634
  35.2284360  67.0065880  90.8682442  36.6750956  66.4283514  89.3516254
  37.1975040  65.4597902  88.4584618  36.8032932  64.4619465  88.5822010
  38.0685163  65.8588696  87.3844337  38.4464931  65.1452255  86.6673279
  38.4496665  67.2010422  87.2570038  39.1258121  67.5252390  86.4797497
  38.0145788  68.1002760  88.2208633  38.2816386  69.1385126  88.0899525
  37.1595907  67.7241135  89.3071270  36.7174673  68.4289265  89.9957275
  36.9339156  65.1690006  92.0953083  37.0447898  66.1885500  92.7910900
  37.8877735  64.2503309  92.1222210  37.8593898  63.0007172  91.3111305
  38.4006524  63.1965399  90.3855038  36.9117713  62.5239849  91.0604382
  38.7060547  62.1112490  92.2346401  39.1077375  61.2658596  91.6760063
  38.1355047  61.7366266  93.0844784  39.7581911  63.0209732  92.8286266
  40.5186081  63.1607676  92.0602894  40.2749825  62.6069498  93.6944199
  38.9096761  64.2744780  93.1751156  38.4460616  64.2163229  94.1598892
  39.8131895  65.4817152  93.1676483  40.0516844  66.2367582  92.2146034
  40.3147316  65.6776524  94.3920708  40.1576138  64.9091196  95.0282860
  40.9013081  66.8585396  94.9652672  40.1252079  67.6201057  95.0413227
  41.3699913  66.5291357  96.4061451  40.6221771  65.9263468  96.9214344
  42.3204279  65.9977531  96.4552212  41.5686941  67.4537373  96.9481087
  42.0226288  67.4718857  94.1030979  41.8892527  68.6621618  93.7787628
  43.0010605  66.7020845  93.6256599  43.0672264  65.8018780  94.0788174
  44.0089750  67.1490431  92.6890945  44.4379139  68.0383253  93.1509304
  45.1449776  66.1432695  92.4814415  44.6253586  65.1994896  92.3159695
  45.5817842  66.4124203  91.5197468  46.2042189  66.0668373  93.5084820
  47.0389462  65.3897429  93.3271599  46.7067051  67.0322657  93.4488487
  45.7556629  66.0162163  94.9844456  44.8851585  65.1957893  95.2731705
  46.2120008  66.6945457  95.9287071  43.4254885  67.5841713  91.3349342
  43.7633514  68.6614275  90.8111668  42.4131155  66.8830872  90.8229351
  41.9453716  66.2007380  91.4023495  41.8216944  67.2422791  89.5717335
  42.5678253  67.4632168  88.8084698  41.0295057  66.0594130  89.0192604
  40.0937557  65.8895111  89.5518112  40.8116627  66.3776970  87.9997730
  41.8166637  64.7285223  88.9702988  42.1917105  64.0553093  90.1440334
  41.9662762  64.4221878  91.1344814  42.9357243  62.8769207  90.1111412
  43.1829500  62.3199701  91.0028172  43.1744576  62.2214508  88.8589382
  43.5242939  61.1997223  88.8681126  42.7728558  62.8059721  87.6806068
  42.7558327  62.2490978  86.7553997  42.1070194  64.0721512  87.7207756
  41.8097305  64.5188236  86.7834854  40.9224415  68.5115862  89.7458744
  40.8538008  69.2754030  88.7810993  40.2539921  68.7435579  90.8704662
  40.2981949  68.0358267  91.5896797  39.6184468  70.0144386  91.2446690
  38.8559270  70.2264595  90.4951954  38.7710929  69.9345398  92.5030804
  38.3665133  70.9248447  92.7121353  37.8486967  69.3815327  92.3256493
  39.3717456  69.6587801  93.3698368  40.6422329  71.1092281  91.2370110
  40.5377626  72.1233225  90.4931068  41.6481352  71.0042572  92.1304607
  41.6664839  70.1952171  92.7347946  42.7719545  71.9125652  92.3528290
  42.4015474  72.7878761  92.8864288  43.9310646  71.2650013  93.2801342
  43.3927441  70.7493448  94.0753746  44.3467712  70.4210520  92.7296352
  44.9729538  72.2979546  93.7925339  45.8020592  71.7896318  94.2847633
  45.2755594  72.8358030  92.8940678  44.2758131  73.4497881  94.9204922
  44.4410658  72.5703239  96.5276527  45.5050898  72.6528835  96.7493248
  43.9313221  73.0679464  97.3526573  44.1612864  71.5173006  96.4965630
  43.3677864  72.4741125  91.0586643  43.4802771  73.6660576  90.8810806
  43.7810373  71.5637827  90.1455879  43.8509035  70.6301689  90.5245209
  44.0350008  71.7655230  88.7056828  45.0046587  72.2618675  88.6667442
  44.1867876  70.3783655  88.0704689  45.0378799  69.8769045  88.5312080
  43.3618021  69.7101212  88.3173466  44.4889021  70.5064583  86.5592384
  43.3956242  70.4762697  85.6986427  42.4192476  70.3858042  86.1513138
  43.6198664  70.5872297  84.3356419  42.7448463  70.6347513  83.7043858
  44.9380589  70.6229019  83.7997055  45.1247215  70.8605146  82.4914169
  44.4055986  71.3484955  82.0835686  46.0239458  70.5939007  84.6938801
  47.0201969  70.6464243  84.2802143  45.7789183  70.5230665  86.0980034
  46.6252041  70.3493404  86.7460918  43.0333567  72.6232767  87.9385662
  43.4073973  73.6802864  87.4190807  41.7627573  72.1555471  87.9637909
  41.5299368  71.2807846  88.4117699  40.7811308  72.8587103  87.1630859
  41.0393095  73.0066109  86.1144829  39.5116305  71.9308519  87.2450542
  39.7516632  70.9182310  86.9209003  39.2622161  71.8447256  88.3026409
  38.2753754  72.3882818  86.5992165  38.2072139  73.4694958  86.4790630
  38.0827641  71.8182611  85.1898193  38.7122297  72.3413420  84.4699097
  38.1439638  70.7309198  85.2350521  37.0709419  72.1302509  84.9310207
  37.0069790  72.0103073  87.4456787  36.1102319  72.2414160  86.8707561
  37.0019007  70.9271955  87.5679302  37.0641065  72.5073862  88.4140491
  40.5601263  74.3159723  87.5985909  40.4847860  75.2053785  86.7686272
  40.4445982  74.5084953  88.9293957  40.4203510  73.6716557  89.4943905
  40.2945709  75.7697201  89.5629025  39.4378090  76.3355064  89.1969109
  40.0991583  75.5625248  91.0663128  40.7634687  74.8641825  91.5753460
  40.4206133  76.4687490  91.5796661  38.6361623  75.3220654  91.4283752
  37.6817846  76.0257053  91.1323452  38.4726954  74.2327166  92.1818924
  37.5715041  74.0111017  92.5804424  39.3199801  73.7191916  92.3781204
  41.4853764  76.7321491  89.3276501  41.2774801  77.9160166  89.1729546
  42.6761580  76.1605787  89.4019222  42.7611923  75.1787758  89.6231174
  43.9016676  76.8724394  88.9046383  44.1176653  77.8033447  89.4289112
  45.1514530  75.9999466  89.1415691  45.4241943  75.8016872  90.1781082
  45.0560284  75.0087070  88.6983490  46.3625431  76.6709185  88.5486698
  47.1620417  77.5018454  89.3037605  46.7332506  77.7783394  90.2556419
  48.3850622  77.9677486  88.8018608  48.9494514  78.6351204  89.4362736
  48.8433790  77.5091696  87.5731182  49.9742079  78.0299854  86.9902611
  50.1097488  78.9576006  87.1970272  48.0321836  76.7409515  86.7138863
  48.3640814  76.3656044  85.7571411  46.7924547  76.2558508  87.2489357
  46.2016869  75.5852842  86.6425228  43.7612057  77.3968887  87.4481106
  44.0601206  78.5284090  87.1914577  43.3271503  76.4919472  86.5326691
  43.0528688  75.5348635  86.7025471  43.0994844  76.8347883  85.1364422
  43.9800739  77.3146343  84.7093487  42.8078794  75.6550217  84.2100143
  41.8600893  75.1582861  84.4175148  42.9518747  75.9666586  83.1754780
  43.9719248  74.3134499  84.4538021  43.6698675  73.7806845  85.6411648
  42.0363808  78.0335331  85.0405407  42.3763275  79.0628195  84.3979931
  40.9537077  78.0067301  85.8657932  40.8460617  77.2207642  86.4909172
  39.8900580  79.0722752  86.0601616  39.5386934  79.3417358  85.0641537
  38.6959505  78.3992863  86.7366123  39.0988040  77.8366137  87.5787640
  38.0014348  79.1605377  87.0919323  37.9949641  77.4543381  85.8077049
  37.4891472  78.1291294  85.1171207  38.7194848  76.7921782  85.3336620
  37.0039487  76.6074371  86.6676998  36.6660476  75.8284903  85.9842110
  37.5522661  76.1541796  87.4935341  35.8475947  77.3701143  87.2243309
  35.9744835  77.7296925  88.1595898  34.9209714  77.9215956  86.4585876
  34.8725176  77.8370523  85.1778984  35.5934548  77.3457575  84.6689987
  34.2607284  78.5562277  84.8192883  33.8943672  78.4757090  87.0380688
  33.9880490  78.5385036  88.0417442  33.0064368  78.3420467  86.5756607
  40.4944992  80.3409290  86.6283035  39.9038148  81.4342690  86.4946747
  41.6304350  80.2459240  87.3761940  42.0897198  79.3470716  87.4112225
  42.2378111  81.4055252  88.0623722  41.4893198  82.1782303  88.2378197
  42.5238705  81.1120319  89.0723991  43.4432220  81.9089985  87.2478771
  43.9032364  82.9878616  87.5627327  43.9736605  81.2645626  86.2070465
  43.6344433  80.3460026  85.9595013  44.9953699  81.8598652  85.4367065
  45.8106613  82.2371006  86.0540295  45.6339931  80.9617424  84.4049168
  44.7643614  80.5588245  83.8857841  46.2915659  81.4846897  83.7104893
  46.4195871  79.7950935  84.9011612  45.9050894  79.4242477  85.7876587
  46.6650009  78.6894083  83.9008904  45.6684637  78.3687401  83.5972691
  47.0779037  79.1446257  83.0006695  47.1985197  77.8680038  84.3791676
  47.8060532  80.3764439  85.3444576  47.6863623  81.3479900  85.8238888
  48.1606102  79.7914028  86.1930561  48.4896374  80.2726269  84.5018196
  44.3569326  83.0446625  84.7106647  43.3976030  82.8998661  83.9658833
  44.9355745  84.2434216  84.8432159  45.7133675  84.3125439  85.4838085
  44.4983578  85.4055309  84.0211010  43.4206390  85.5048275  84.1505623
  45.2038240  86.6079998  84.6701622  46.2445354  86.2960720  84.7580338
  45.2302408  87.4907684  84.0313148  44.5871973  86.9379044  86.0505009
  43.7113667  87.5748348  85.9266663  44.3487501  86.0515022  86.6383266
  45.6225729  87.8136539  86.8305302  45.2303410  88.0374622  87.8225803
  46.5088272  87.2001648  86.9926929  46.1737633  89.0008068  86.0206127
  46.9868279  88.8888741  85.4319763  45.6655502  90.2058411  85.9713173
  44.6193027  90.5027294  86.7170906  44.2715883  89.8325253  87.3879242
  44.3941593  91.4830303  86.8088245  46.1770344  91.1222744  85.2337074
  47.0137453  90.9373188  84.6990871  45.5225420  91.8412590  84.9601841
  44.7839880  85.2409458  82.4805737  45.4786825  84.3431664  82.1250916
  44.2762852  86.1795616  81.6629696  43.8168621  86.9821930  82.0689392
  44.4154215  86.1647701  80.1985264  43.9614820  85.2110577  79.9293327
  43.4909916  87.1879387  79.5297098  42.4974632  86.8959618  79.8699379
  43.6488914  88.1204700  80.0715160  43.6230516  87.2604084  78.0090189
  43.1125450  86.2788582  77.1809053  42.6653385  85.3913975  77.6037788
  43.2723856  86.3646317  75.8298349  42.9022408  85.5584335  75.2138567
  43.9828300  87.4046707  75.2482557  44.0120125  87.5848198  74.1837835
  44.5650673  88.4239769  76.0852003  44.9779510  89.2952442  75.5985594
  44.3320227  88.3679199  77.4663687  44.5913696  89.1969395  78.1081343
  45.9198761  86.1890888  79.7024155  46.2672043  85.5558586  78.7471437
  46.8442202  86.8554974  80.3629208  46.5342426  87.4602222  81.1101341
  48.2803869  86.9477177  80.0697517  48.3375788  86.8386936  78.9867258
  48.7258244  88.3498383  80.5048561  49.5867729  88.6532021  79.9091768
  47.9417324  89.0560913  80.2318954  49.1725969  88.5970020  81.9794369
  49.8318005  87.7586079  82.2044754  49.6581268  89.5724869  81.9513893
  48.0424833  88.7119579  82.9328346  48.3453989  88.9010811  84.1139030
  46.8808937  88.6291885  82.5310802  49.1430521  85.8619785  80.7605839
  50.1158476  85.4198742  80.1826477  48.7599707  85.3352737  81.9233704
  47.8472376  85.5891037  82.2734928  49.6127224  84.5541573  82.8252983
  50.4472303  85.2432632  82.9550552  48.9360619  84.4048500  84.1989231
  48.8593531  85.3349209  84.7621250  47.9282284  84.0435982  83.9943027
  49.5307970  83.3910942  85.1507282  48.8905907  83.5043812  86.0256004
  49.4256449  82.3854637  84.7436047  51.0457611  83.5437775  85.5491066
  51.8219376  84.2285824  84.8399448  51.5109301  82.9298019  86.5486431
  50.1042461  83.2470226  82.2435856  49.3890619  82.5522709  81.5642452
  51.4033794  82.9630852  82.4042130  51.9851732  83.5073280  83.0250359
  52.0525360  81.7069817  81.8982792  51.6955471  81.3821507  80.9209728
  53.5273314  82.0704842  81.7466831  53.9618397  82.0973778  82.7459717
  53.9578915  81.3362598  81.0657692  53.6762667  83.1017017  81.4265060
  51.7698860  80.4537487  82.8219032  52.2950268  80.4083347  83.9527988
  51.0531425  79.3786573  82.4658489  50.4660797  79.1874838  81.1388969
  51.1450768  79.1555023  80.2868271  49.8987055  80.0790691  80.8719349
  49.4383001  78.0986595  81.1649418  49.4376898  77.4648237  80.2781773
  48.4742022  78.5595655  81.3798428  49.9023676  77.2515631  82.3590660
  50.5561066  76.4758730  81.9602776  49.1086578  76.7200661  82.8840733
  50.7249737  78.2044077  83.2727909  50.1091528  78.5096455  84.1187763
  51.9838524  77.5075436  83.7622833  52.9313660  77.3222065  83.0535507
  51.9366932  77.0490217  85.0204372  51.1081314  77.2896576  85.5454922
  53.1102753  76.3771200  85.6088638  54.0601110  76.6621685  85.1564598
  53.2392502  76.9139576  86.9987679  53.1132841  77.9961157  87.0330143
  52.3779726  76.5005827  87.5235748  54.4754314  76.4365482  87.7815437
  54.7935963  76.9946909  88.8208961  55.2717304  75.5543184  87.3159599
  52.9544306  74.8650885  85.3809547  52.7085400  74.0769911  86.2701035
  53.0490208  74.3810081  84.1016006  53.1367588  74.9833775  83.2956505
  53.1623316  72.9679632  83.7239075  52.1566963  72.5689030  83.5914326
  53.6570501  72.8501368  82.2618580  54.7395372  72.9673719  82.2110271
  53.4157991  71.8169546  82.0120049  53.0662632  73.7904549  81.2605953
  51.7463970  73.6224174  80.7812119  51.1598158  72.7707672  81.0926914
  51.2620115  74.6022844  79.8937464  50.2783442  74.4657946  79.4692850
  51.9661760  75.7916927  79.5777321  51.4589262  76.7690706  78.8124895
  50.7613420  76.4218760  78.2517433  53.2783175  75.9393311  80.0820541
  53.8496590  76.8017006  79.7717428  53.8521147  74.8640966  80.8232307
  54.8637199  74.8710203  81.2014008  53.8132620  72.0002365  84.7047997
  53.2940483  70.9147835  84.9582195  54.9678278  72.4462509  85.2523422
  55.2732563  73.3820152  85.0261688  55.7428074  71.7909384  86.2785244
  56.1715698  70.8455610  85.9460735  56.9359493  72.6456499  86.6502857
  57.5583935  72.8381681  85.7764435  56.6233349  73.5799599  87.1165848
  57.8520250  71.8827200  87.6513577  57.4495745  71.9362831  88.6629200
  57.9873705  70.8572245  87.3076534  59.4758940  72.5569248  87.7397442
  60.0518990  71.6010523  89.1764736  61.0068893  71.9948196  89.5243931
  59.2615747  71.7184353  89.9178982  60.1268673  70.5454350  88.9154339
  54.8457384  71.4466715  87.4355888  54.7117376  70.2713633  87.8364658
  54.2457390  72.4902248  88.0564117  54.3536377  73.3806181  87.5920200
  53.4284639  72.4169683  89.2930317  54.0225935  72.0218420  90.1170444
  53.0609465  73.8015413  89.6916485  53.8177252  74.2077541  90.3627586
  53.1492519  74.4710875  88.8360786  51.6874886  73.9824867  90.3868866
  51.4965487  73.5672569  91.7573452  52.2837782  73.0195713  92.2540379
  50.2991295  73.7835026  92.4507046  50.2075768  73.3447933  93.4333324
  49.2704439  74.4332504  91.7908669  48.0800438  74.5740509  92.4719906
  48.0366182  74.1023636  93.3069897  49.4286871  74.9130583  90.4807568
  48.6749363  75.4992533  89.9761486  50.6618261  74.7124386  89.7727966
  50.7859802  75.1246834  88.7823200  52.1887589  71.4891768  89.0445805
  51.9922543  70.5216742  89.8279190  51.4162827  71.8124771  87.9921246
  51.6187239  72.5920057  87.3826504  50.2853203  71.0060453  87.4804688
  49.4710922  71.0467768  88.2039833  49.6452475  71.4519024  86.1314678
  50.4728985  71.4742327  85.4225349  48.9045429  70.6989527  85.8621788
  49.0976048  72.9060173  86.2925911  49.8786974  73.5719872  86.6592979
  48.7258768  73.3510733  84.8797798  49.5711803  73.4228325  84.1953754
  48.0638885  72.5436926  84.5667076  48.3183241  74.3618631  84.8970032
  47.8693676  73.0124426  87.3262501  48.1623125  72.4947786  88.2396603
  47.7411366  74.0326166  87.6880646  46.9524145  72.7217531  86.8136215
  50.6185722  69.5077944  87.3553467  49.8932981  68.6201811  87.7962017
  51.7869091  69.1556931  86.8314075  52.3781300  69.8718548  86.4343357
  52.2913742  67.7838230  86.9105434  51.4633179  67.1821404  86.5358448
  53.4928846  67.5937223  85.9473133  54.1957426  68.4183645  86.0658550
  53.9174700  66.6023970  86.1057758  53.1161785  67.6679897  84.4953442
  52.3683786  66.9564486  84.1451931  52.7098465  68.6681509  84.3447495
  54.2591381  67.6907063  83.4866714  53.8074589  68.1359720  82.6002026
  55.0865316  68.3017111  83.8474846  54.8893309  66.3795710  83.2429504
  54.5727205  65.5836725  83.7781239  55.8620262  66.0720253  82.4732876
  56.4705563  66.9337845  81.7239952  56.2206507  67.8969717  81.8969917
  57.2952414  66.6151762  81.2356472  56.1233711  64.8471928  82.1770477
  55.7432985  64.1395760  82.7893543  56.5690517  64.6296597  81.2971878
  52.5269461  67.2944689  88.3524418  51.9267273  66.3291883  88.7343121
  53.2940578  68.0649900  89.1072178  53.7459230  68.8613129  88.6808586
  53.5776997  67.6556015  90.4936600  54.1201830  66.7108727  90.4576588
  54.4560194  68.8086367  91.1693859  55.3469849  69.0557051  90.5921173
  54.0027761  69.7977209  91.1031628  54.9805164  68.5981369  92.5917435
  55.3875589  69.5483208  92.9375267  54.1420841  68.3537817  93.2439804
  56.0880136  67.5652981  92.7091503  56.1962318  66.7032433  91.8154812
  56.9084835  67.5862312  93.7164593  57.7725410  67.0752335  93.6051750
  56.8691921  68.3945847  94.3207073  52.3010969  67.3515368  91.3320923
  52.2093487  66.4261675  92.1324635  51.1649513  67.9905844  90.9676075
  51.2928438  68.8310575  90.4223061  49.8691130  67.6301670  91.6076565
  49.9895334  67.8793383  92.6619339  48.6150980  68.4048700  91.0901260
  48.6143064  68.3939886  90.0001717  47.7043200  67.9710245  91.5028763
  48.6524630  69.9335194  91.4866543  49.4642496  70.5078697  91.0403061
  47.5237417  70.7206917  90.8403111  47.5513983  70.5860758  89.7590065
  46.5639496  70.2458429  91.0438061  47.5859165  71.7328072  91.2401390
  48.4928894  70.1646662  92.9501247  47.5500679  69.7367239  93.2908058
  49.3195581  69.8264074  93.5748672  48.7016392  71.2262964  93.0822849
  49.6007872  66.1055279  91.5512848  49.3986225  65.4640007  92.5743198
  49.6381521  65.5171776  90.3279877  49.8648405  66.0255098  89.4851875
  49.4072199  64.0875387  90.1701164  48.5599041  63.7283564  90.7541847
  49.1643667  63.8097095  88.7211418  50.1362133  63.8650608  88.2306767
  48.9068079  62.7527237  88.6536980  47.9513216  64.6445847  88.2072639
  48.2276678  65.6793976  87.3083401  49.2331982  65.8541489  86.9551182
  47.2345448  66.5832949  86.9438553  47.5744724  67.3470831  86.2601280
  45.9830093  66.5808392  87.4968147  45.1895189  67.2938299  87.3282337
  45.7280874  65.5154037  88.3367920  44.7675848  65.4057217  88.8182640
  46.6509199  64.4941664  88.6643982  46.2684536  63.7756586  89.3742371
  50.5649185  63.2012939  90.6686401  50.3013182  62.1490192  91.2283421
  51.8365812  63.6653566  90.5976200  51.8932962  64.5811129  90.1753902
  53.0201483  62.9212809  91.1099529  53.0477238  61.9368029  90.6429005
  54.3263721  63.6735201  90.7497597  54.3612623  64.6107578  91.3051605
  55.2131271  63.1248617  91.0671520  54.4594193  63.9302731  89.1666603
  54.6568203  62.9406404  88.7546349  53.5178995  64.3361998  88.7967110
  55.6279850  64.7999096  88.8469315  55.4577446  65.8330917  89.1496754
  56.6072130  64.4569921  89.1810226  55.8216000  64.8736143  87.4154949
  55.0634146  64.4016266  86.9438076  56.7884493  65.3616333  86.7123604
  57.8340530  65.9141493  87.1960831  57.9160643  65.9541845  88.2019520
  58.5792208  66.1001873  86.5401840  56.6640902  65.2759027  85.4236031
  55.9081268  64.7001123  85.0814247  57.5212383  65.3333855  84.8924732
  52.9904461  62.5328398  92.6018810  53.3619881  61.4112186  93.0041885
  52.4896908  63.4635258  93.3948421  52.0779276  64.2498255  92.9128742
  52.2906017  63.2651949  94.8497868  53.1980896  62.9141045  95.3410244
  51.8462849  64.5804119  95.5154419  50.9708786  64.9906206  95.0119591
  51.3692760  64.5253611  96.9618607  50.5180454  63.8591194  97.1019650
  52.1923780  64.1427183  97.5653458  51.0605431  65.5003309  97.3389816
  52.9718161  65.6692171  95.3847218  53.6730099  65.3319597  96.1480618
  53.3626890  65.5896521  94.3703365  52.5234461  67.1419525  95.6232166
  53.3334351  67.7565241  95.2303791  51.5720272  67.4581432  95.1955223
  52.4389458  67.3182392  96.6955471  51.2881041  62.1779871  95.0357342
  51.4880753  61.1741686  95.7252216  50.0488091  62.3072243  94.4117355
  49.9132919  62.9382515  93.6348534  49.0255642  61.2766981  94.5151806
  48.7278795  61.2855816  95.5637074  47.7872753  61.7022705  93.7586880
  47.6497984  62.7803040  93.8426399  48.0595922  61.5361643  92.7164078
  46.4074612  61.1086226  94.1268635  46.5589809  60.0465393  93.9341927
  45.9794569  61.3422775  95.6114960  44.9261904  61.0804796  95.7124519
  46.5248585  60.7322502  96.3315773  46.0687208  62.4161863  95.7753372
  45.3856850  61.6910076  93.1866169  45.2683258  62.7714634  93.2699203
  45.6825352  61.4255095  92.1719742  44.4167995  61.2852812  93.4777451
  49.4132137  59.8118782  94.0755272  49.2164707  58.7990761  94.7838306
  50.1528502  59.7517395  92.9654789  50.4015636  60.5750322  92.4359226
  50.6957436  58.4890223  92.3665047  49.8244476  57.9017639  92.0765591
  51.2946987  58.8925076  90.9741020  50.5613041  59.4961977  90.4395103
  52.2109747  59.4634104  91.1244392  51.7155600  57.8130102  90.0011349
  50.7836533  57.3002291  89.0295315  49.7626925  57.6475716  88.9712429
  51.2284994  56.3173771  88.1781864  50.5891991  56.0051727  87.3656464
  52.5198269  55.7879686  88.3238029  52.8516388  55.0565720  87.6017475
  53.3636904  56.1805773  89.3632221  54.2910242  55.6481981  89.5149899
  52.9928637  57.2387266  90.2321625  53.5483837  57.5468683  91.1055756
  51.6698265  57.6431894  93.2465076  51.4654684  56.4163733  93.4326839
  52.4454165  58.3771420  94.0306377  52.3615932  59.3717241  93.8760948
  53.2509041  57.8454685  95.1492786  53.8301563  57.0559931  94.6704292
  54.3434143  58.9055538  95.4815102  55.0949955  58.9384794  94.6927547
  53.9161205  59.9056005  95.5552673  55.0484943  58.6758900  96.7709827
  54.3406725  58.8153887  97.5880718  55.5130243  57.6922131  96.7025089
  56.2041378  59.6329594  96.8117428  56.7913532  59.3657637  97.6903152
  56.9065094  59.4904280  95.9904861  55.8367920  61.0617256  96.8050289
  55.4540062  61.4168453  97.6695919  56.0601711  61.9855976  95.9297562
  56.6681814  61.7817497  94.8071671  57.0852518  60.9138155  94.5024681
  56.7615414  62.5520754  94.1606522  55.5745077  63.1289005  96.1910057
  55.1600266  63.2039785  97.1089745  55.9427214  63.9765978  95.7836628
  52.3736382  57.4979544  96.4111137  52.7385902  56.5709829  97.1991444
  51.3081408  58.2224941  96.5740204  51.0891724  58.9452744  95.9033966
  50.4159927  58.0577230  97.7329731  51.0200834  57.8423977  98.6143398
  49.7655201  59.4019556  98.1493092  48.9902353  59.6727514  97.4325848
  49.0392113  59.3205929  99.5063305  49.7844982  58.9900875 100.2298069
  48.5805225  60.2920008  99.6909237  48.2229900  58.6037731  99.4165802
  50.6774855  60.4499483  98.2982159  51.0359287  60.6583405  97.4323654
  49.4322300  56.8711901  97.6470852  49.1450024  56.1935854  98.5857201
  49.2209053  56.4858389  96.3978863  49.4630957  57.1745968  95.6999969
  48.4769154  55.2981520  96.0273457  47.7025270  55.0239086  96.7437458
  47.7608061  55.5426121  94.6780968  48.5373640  55.5953074  93.9150238
  47.2759533  54.6129513  94.3801594  46.7290115  56.6876888  94.7078323
  47.1664524  57.4667454  95.3321838  46.5235138  57.2268629  93.4049034
  47.3619843  57.8767681  93.1544971  46.5143824  56.4575005  92.6328278
  45.5902815  57.7891970  93.3738708  45.4163599  56.2997866  95.3395367
  45.6222105  55.8194590  96.2961006  44.7339678  57.1364927  95.4890823
  45.0075722  55.5975676  94.6129799  49.4461536  54.1141605  95.8651352
  48.9689255  53.0416298  95.4968452  50.7295465  54.3202734  96.0463524
  50.8432484  55.2445221  96.4374256  51.8879366  53.3717871  96.0340214
  52.7375984  54.0023756  96.2958050  51.6868210  52.2702551  97.0591545
  50.8330250  51.6483450  96.7901421  52.5066471  51.5559721  96.9831181
  51.5356445  52.6667881  98.5154629  50.6436300  53.4373188  98.8720989
  52.4028111  52.2275543  99.3873405  52.1806955  52.4972391 100.3349972
  53.2432699  51.7426682  99.1069603  52.5088549  52.8071165  94.7000885
  53.3747959  51.9252825  94.6910095  52.0852041  53.3552217  93.5314083
  51.4862061  54.1609287  93.6415958  52.5458193  52.9578447  92.2106838
  52.7013540  51.8800831  92.1622753  51.4817238  53.2687521  91.1645508
  51.5504122  54.3134117  90.8611298  51.7178917  52.7942085  90.2121162
  50.0672626  52.8869295  91.5070152  49.4819736  51.5994692  91.4780712
  48.2368708  51.7542410  91.8651676  47.5510645  50.9422445  92.0568275
  47.9593801  53.0423260  92.1718788  47.0745134  53.3796453  92.5230694
  49.1320372  53.7632990  91.9776821  49.3124247  54.8270321  91.9293594
  53.9431000  53.5327339  91.8039608  54.3659353  54.5485783  92.3376274
  54.6393776  52.8446341  90.8687210  54.2790508  51.9843769  90.4811478
  55.8157253  53.3560610  90.0873947  56.1049652  54.3205690  90.5047131
  56.9526911  52.2713089  90.2489662  57.7734232  52.4223423  89.5477581
  57.3818159  52.3022604  91.2504578  56.4359236  50.8684921  89.8991585
  55.8154106  50.5470467  90.7356644  55.7804203  50.8979416  89.0287781
  57.5585318  49.8321342  89.7586346  58.7349176  50.1663208  89.7429085
  57.3633528  48.5283184  89.6835613  58.1721258  47.9248238  89.6413231
  56.4696789  48.1625366  89.9796295  55.4837847  53.6324453  88.6133099
  54.4024754  53.2262659  88.1859779  56.2748337  54.4183064  87.8596401
  57.0165539  54.9882936  88.2405090  55.9263802  54.7739744  86.4366913
  54.8551941  54.8902416  86.2719536  56.7108250  56.0207319  86.0262012
  57.7781534  55.8791494  86.1961079  56.6193533  56.2521601  84.9649811
  56.3539076  57.2215843  86.8332672  55.3384542  58.0565357  86.3952827
  54.9279308  57.8815889  85.4117870  54.8376703  59.1428089  87.2174454
  54.0415382  59.8445368  87.0170593  55.4098034  59.2986012  88.5126305
  55.0978947  60.3859377  89.3499374  54.9585581  60.1062536  90.2576637
  56.4965582  58.4992743  88.9018059  56.9678926  58.8279772  89.8162460
  56.9299173  57.4176168  88.0725384  57.7295685  56.8096733  88.4692287
  56.3561106  53.5893965  85.5644894  57.3827314  53.8067961  84.9675751
  55.5243015  52.5392962  85.5838013  54.9129915  52.5285244  86.3877201
  55.6769514  51.2466145  84.9313164  56.7467356  51.0740519  84.8135185
  55.2979851  50.1425362  85.9524918  55.5660152  49.2835379  85.3373623
  55.8176613  50.3275776  86.8925953  53.7762594  50.0221872  86.1789322
  52.8664732  50.4251051  85.3552437  53.4145737  49.2745590  87.1139526
  54.9989796  51.1095524  83.5468674  55.4194403  50.1063156  82.8568172
  54.0383673  52.0243788  83.2014275  53.8348866  52.7072048  83.9172840
  53.3083582  52.1570492  81.9298458  52.6497030  53.0251789  81.9548130
  54.2603445  52.4413776  80.7289982  54.9031353  51.5668774  80.6281471
  53.7479067  52.4287033  79.7670460  55.1723194  53.6045122  80.9217262
  54.6973085  54.8700142  80.6575871  53.7285995  54.9832296  80.1937103
  55.5110073  55.9607220  81.0396671  55.0729227  56.9457197  81.1050320
  56.8385506  55.7205915  81.5104198  57.5887585  56.7275667  81.9735432
  56.9717360  57.4128485  82.2405148  57.4116945  54.4184923  81.5883064
  58.4512854  54.2226505  81.8057919  56.5161562  53.3870125  81.3962364
  56.7570972  52.3480558  81.5662670  52.3730087  50.9559917  81.5526390
  51.9804811  50.5913830  80.4163265  51.9452095  50.3144598  82.6151752
  52.2218609  50.6043243  83.5422897  50.9729052  49.1769361  82.6431084
  50.9808874  48.5530567  81.7493534  51.1773300  48.2720566  83.8159752
  50.9530735  48.8291454  84.7256279  50.3683662  46.9293737  83.7179279
  50.7347250  46.2660027  84.5013905  49.3448591  47.2163200  83.9591599
  50.4740047  46.4784718  82.7311993  52.5414753  47.8856802  83.8884449
  53.1210279  48.5739183  84.2231846  49.5360899  49.8255444  82.6708221
  48.8813353  49.8308945  83.7343311  49.0449905  50.3018618  81.5734577
  49.6166229  50.1762533  80.7503223  47.6617622  50.9871769  81.5144062
  47.5510168  51.6196728  82.3951912  47.6606464  51.7404413  80.2040577
  47.8510618  51.0047626  79.4226313  46.6808653  52.2006178  80.0761414
  48.6842108  52.8408670  80.1595402  48.6615038  53.9171457  81.0386372
  48.0094242  53.8419580  81.8962765  49.5530128  55.0038338  81.0364437
  49.4163895  55.8358335  81.7113686  50.4937649  55.0440741  79.9800444
  51.1821795  55.8761978  79.9726295  50.6715727  53.9375305  79.1870356
  51.4198589  53.9727020  78.4090710  49.7577286  52.8281784  79.2600107
  49.9313354  52.0060015  78.5815620  46.5559149  49.9454260  81.4522457
  46.7935705  48.8075256  81.0750389  45.2863359  50.3319263  81.7789555
  45.1819420  51.2571669  82.1702862  44.1707420  49.3594360  81.7962933
  44.3954992  48.6351252  82.5792122  42.8437519  50.1063061  81.9528961
  42.6178169  50.7100105  81.0739231  42.0007277  49.4158220  81.9272423
  42.6732349  50.8434486  83.2976913  42.0772696  50.3584862  84.2508793
  43.1899452  51.9481897  83.4202099  44.0656614  48.3876657  80.5450535
  43.7585020  47.2038078  80.7696533  44.2030287  48.9711618  79.3622732
  44.5377111  49.9229670  79.4087744  44.0898514  48.2628632  78.1338120
  43.0712461  47.8748703  78.1362867  44.2595148  49.2738295  76.9520378
  44.1283274  48.6247301  76.0862684  43.3613062  49.8911715  76.9665527
  45.5667114  50.0701046  76.8846464  46.6935015  49.7208548  76.2710381
  46.8584919  48.7591314  75.8081436  47.6264286  50.7527351  76.3662434
  48.5086155  50.6529903  75.8846903  47.0544958  51.8700695  76.9047689
  47.4677610  53.1941700  76.9925070  48.5048771  53.3881855  76.7619514
  46.6297245  54.1277218  77.5796080  46.9851160  55.1211357  77.8103256
  45.2489948  53.7601662  77.9093361  44.5827007  54.4728184  78.3725643
  44.8206520  52.4081469  77.8200483  43.7974119  52.1403551  78.0384064
  45.6835508  51.4659166  77.2414112  45.0804996  47.0749140  77.9413319
  44.8616409  46.0888910  77.1989202  46.3348961  47.1110344  78.5294247
  46.5559530  47.9872179  78.9805841  47.4628687  46.1997986  78.3782244
  47.5377417  46.0493517  77.3012590  48.7524986  46.7840052  78.9556646
  49.4679165  46.0396814  78.6059999  49.3061829  48.1317663  78.4101391
  50.2281380  48.5740137  78.7876606  49.2583323  48.1054258  77.3215103
  48.5849571  48.9347696  78.5621834  48.8419056  46.7533064  80.3529930
  48.1859732  47.3307037  80.7504368  47.0706415  44.8170567  78.9020538
  47.5449848  43.7977028  78.4042835  46.2380266  44.6910954  79.9387026
  45.9390068  45.5087137  80.4507446  45.6883526  43.3798361  80.3890896
  46.5153790  42.6772928  80.4918575  45.0691986  43.4768915  81.8197727
  44.2486954  44.1919708  81.7602634  44.5213175  42.5837946  82.1202755
  46.1097527  43.6614466  82.9230595  45.5725050  43.5532188  83.8652611
  46.8046379  42.8253937  82.8439331  47.0287085  45.2226353  82.9390526
  45.7246304  46.2999678  83.6350727  45.4598331  45.9966230  84.6479702
  46.1408997  47.3072052  83.6523438  44.8688269  46.2527943  82.9616737
  44.6524525  42.7146196  79.4579363  44.3480349  41.5518618  79.7021246
  43.9960003  43.4740686  78.5833645  44.1296911  44.4751787  78.5806942
  42.8342152  42.9910851  77.8095865  42.3572493  42.1356678  78.2879877
  41.7353296  44.0608835  77.6753139  42.0904827  44.8999357  77.0770168
  40.8453608  43.7220144  77.1449995  41.2221622  44.7274351  78.9711666
  42.0406723  45.0235510  79.6272612  40.2938414  45.9167099  78.5873222
  39.5726252  45.5692339  77.8475809  39.6989918  46.2226868  79.4479227
  40.8896255  46.6379118  78.0278492  40.5016279  43.5939121  79.7856998
  41.3730764  42.9671049  79.9749088  40.1972866  43.9793730  80.7587910
  39.7918272  43.0030203  79.2067957  43.3920956  42.5401258  76.4683962
  43.8372660  43.3862352  75.6168604  43.5579014  41.1699343  76.4625120
  43.0140448  40.6253099  77.1165037  44.1535473  40.4225397  75.3910685
  44.2207813  41.0357332  74.4924116  45.4793882  39.9130058  75.8962202
  45.1777697  39.1705894  76.6351032  46.0560989  39.5179868  75.0598860
  46.4602375  40.9515429  76.5503216  46.7064619  41.6641474  75.7631302
  46.0264158  41.4692402  77.4058294  47.7062988  40.2808237  77.0698833
  48.3376360  40.0284386  76.2179375  48.3283043  41.0480642  77.5309181
  47.4668217  39.1730094  78.1055403  46.8916225  39.4978786  78.9725494
  46.9248486  38.3202744  77.6966238  48.8403034  38.7970448  78.5853910
  48.9239168  38.0667043  79.2780066  49.4363117  38.5551620  77.8066969
  49.1619968  39.5549202  79.1704035  43.2121849  39.2430997  74.8859739
  43.5584497  38.7039995  73.8945007  42.1511078  38.8983917  75.5695724
  42.0379877  39.4082832  76.4340496  41.1283207  37.9048371  75.3703928
  41.6678905  36.9577551  75.3711987  40.2577543  37.9057980  76.6568184
  41.0413027  37.6289320  77.3621559  39.9054766  38.9265656  76.8052578
  39.1106558  36.8673372  76.6212225  38.2024097  37.2247887  76.1360216
  39.4480228  35.9183693  76.2044001  38.7099981  36.3669109  78.0365372
  39.4546509  35.7085419  78.7746572  37.4881148  36.7774034  78.4128714
  37.1406484  36.3372374  79.2528820  36.9389725  37.4033237  77.8412342
  40.3085279  38.1492710  74.0864229  39.8663282  39.2674470  73.8382053
  40.1616287  37.1993279  73.2836103  60.0219584  43.4063816  49.7019100
  60.4133606  43.1942558  51.2058735  61.7643833  42.3771095  51.3443136
  61.7367744  41.1143589  50.5388355  61.0259295  41.1423397  49.3866444
  60.2214289  42.0937872  48.8903332  56.6431475  45.0861025  49.3468475
  56.3063908  43.7899494  49.6075964  57.4542665  42.9234600  49.7870350
  58.5579920  43.7789869  49.4001913  58.1506395  45.1080227  49.1493511
  54.3836689  45.7845259  49.3531084  54.0410233  44.4016933  49.6916914
  54.9964857  43.4197855  49.7830200  55.7959270  46.1578083  49.1957855
  58.8725662  46.0518742  48.9550018  54.6461678  42.1389437  50.0179148
  59.6952534  41.9279528  47.8204823  62.3117161  40.1006794  50.7556963
  60.7699108  44.1011238  49.3002701  61.0642338  40.3590536  48.7454224
  53.5265112  46.4482927  49.2891169  53.0126190  44.0543890  49.7257328
  56.1855507  47.1409416  48.9487457  57.3431540  42.1601486  49.0070248
  57.5466156  42.5065470  50.7975149  55.3328848  41.4085150  49.8799372
  53.6656475  41.8901825  49.9888515  59.5975590  42.5762367  51.6007519
  60.4021454  44.1608858  51.7244434  61.9200087  42.0871782  52.3907995
  62.6106310  42.9956484  51.0207701  44.8593950  81.9425297  62.7106905
  25.4411483  61.9038391  73.2549334  60.1679754  50.7148600  81.9306278
  27.8840160  53.2197571  65.9375381  65.4207230  55.1809645  70.7782173
  60.3930235 108.7209702  17.4043751  49.7125244   4.2303547  23.3670878
  49.1746140   3.8404563  24.0561938  49.5893145   3.6545539  22.6124310
  96.4598560 105.3514004  42.0097160  96.1363220 104.6078873  42.5183868
  97.3443222 105.0957203  41.7478371 105.5729294 108.7804508  58.9139414
 105.4753971 107.8541088  59.1343975 106.3288307 109.0699482  59.4248533
 110.0257969  96.7257690  52.6883698 110.3931618  95.9394073  53.0919838
 109.2847538  96.4067459  52.1732807  93.5403347 102.6911736  29.0245962
  94.0782642 103.2883644  29.5444322  93.9151669 101.8260098  29.1895890
   2.4145144  15.6847954  36.8792677   1.8737227  15.3139973  37.5766087
   3.2068384  15.9850240  37.3245955 113.8324833  92.4289608  49.8836756
 113.5861874  91.7176342  50.4749298 113.8004684  92.0369911  49.0110016
  94.3146229  82.4850559  59.3737841  93.4369659  82.2645092  59.0618610
  94.2996979  82.2662258  60.3055143  29.5899105  17.5707269   9.0154213
  30.1909518  18.3134615   9.0731108  28.7730527  17.8935266   9.3959141
  23.4815741  12.3126614  28.0066562  23.6724567  13.2505202  28.0213976
  22.5293159  12.2633410  27.9229569  82.8771877  65.9047985  54.5944500
  82.5593758  66.6982222  54.1635180  82.2063828  65.2472258  54.4104767
  16.7152667  98.9178753  36.4485073  16.5887725  99.2864609  37.3227954
  15.9068024  98.4367180  36.2721586  90.2671528 100.1647758  49.2294168
  90.7125187 100.2729130  48.3890676  90.2473354 101.0449886  49.6049976
  90.9576225  75.2543402  22.4161267  91.8776894  75.0543356  22.2437716
  90.9828854  75.9584713  23.0640388  66.2946081  68.8180304  89.4898129
  65.4141617  68.5691786  89.7710991  66.8390322  68.0622101  89.7101879
 109.2723465 101.6174984  48.4249640 109.2374325 102.2304249  49.1593599
 109.2138577 102.1721935  47.6470661  93.4275532  57.9235792  12.9965281
  94.1454124  57.8599072  13.6264944  92.6742840  58.1992769  13.5188353
  68.2469702 110.1829815  19.3506408  68.9002085 109.4880581  19.2694628
  67.9962397 110.3825665  18.4486794 114.0534115  84.7061443   4.2826244
 114.2909527  85.4426289   3.7192342 113.1058502  84.7848606   4.3929359
 102.8504944  89.2566776  16.0634351 102.6075554  88.8914108  16.9141972
 102.7935028  90.2044678  16.1846006 115.5055046 109.7827339  22.1813750
 115.4484081 110.7197666  21.9944382 115.3388214 109.3598557  21.3389826
 106.8286896  32.1839714  30.7931399 106.1186409  32.6528835  31.2315321
 107.4939537  32.0681691  31.4715528  93.8931751  81.6491127  17.1752214
  94.5138741  81.6577148  16.4465976  93.2767487  80.9502411  16.9565046
  26.1400938  43.3710003  94.4460678  26.4939260  42.7066565  95.0374031
  26.1297131  42.9468346  93.5880470  86.7142868  86.9865227  40.3115892
  86.2640095  86.1495495  40.4254055  86.0645294  87.6438522  40.5605316
  61.9240332   4.4280696  90.0552654  62.6974201   4.1721177  89.5526886
  62.0311260   5.3686053  90.1972389   4.2414141  96.7548084   6.7999166
   4.2970631  97.5543213   7.3232913   5.0787020  96.7121601   6.3380057
 104.2715645 102.0100975  35.5995631 104.6609116 101.2986851  36.1080170
 104.1393852 101.6371059  34.7279930  57.5840712  13.3019948  69.6077681
  57.9408121  12.9697847  70.4315424  56.6369772  13.3170676  69.7456884
  94.6886635  33.7912536  90.7072830  95.4938698  34.0469337  91.1572933
  94.0023136  34.3033504  91.1349583  14.1978478  18.4919214   4.5251501
  13.9143586  19.3026876   4.9476725  13.4647071  17.8888619   4.6478480
 102.8333569 108.1195736  23.9674425 102.0445824 108.0834389  23.4263611
 103.5259438 108.3877659  23.3636045  20.9490752  87.8626728  12.7220750
  21.7960286  88.0151749  13.1411755  20.3183460  87.8844357  13.4417558
   4.6701482  82.1500778  27.0908451   5.4534644  81.8981266  27.5798893
   4.4176722  82.9954910  27.4620104  40.5866861   9.9891949  20.2065611
  40.9570360   9.1081148  20.2591896  40.5584049  10.1815283  19.2693090
 103.7690830  87.5456142  22.5917220 103.9820099  88.2155323  23.2414246
 103.6266422  86.7505455  23.1053376  94.8953724   0.6423949  27.7799511
  95.4332638   0.1734701  27.1419811  94.1419411   0.0700238  27.9247785
  91.5851307  88.9479542  19.4699097  90.7568645  88.5874462  19.1533113
  91.4776134  88.9967155  20.4198003 101.2044239  71.8526983  37.1718144
 101.6192341  70.9903908  37.1962714 101.7298603  72.3881865  37.7662826
 110.8079910 101.7204762  43.5106707 110.6098652 102.2757339  42.7565670
 110.2579021 100.9465790  43.3893824 116.2542439 105.3220940  21.6558981
 116.6468430 106.0507774  22.1366477 116.2334347 105.6189060  20.7461166
  48.1424284   5.8215880  47.9781628  48.9511728   6.0656959  47.5280762
  48.4350872   5.4312491  48.8017035  54.0039158  14.7608709  21.3998628
  53.1213856  15.0975251  21.5548944  54.4642735  15.4833341  20.9728360
  99.1364861  58.8231611  13.9006507  99.1886902  57.9555893  13.4996152
  99.8106956  59.3347120  13.4534466   4.4216722  88.5641003   8.7784773
   3.7233782  87.9715919   8.4999877   4.0015337  89.4227123   8.8284194
  26.6833401  89.3653584  31.7363739  25.9120250  88.8160896  31.8764138
  27.1145678  88.9824200  30.9724164 111.3342762  94.2789841  17.2454941
 111.7194557  94.9828815  16.7235684 111.0685158  93.6217880  16.6023004
  12.9946971  75.8437061  55.4737186  13.5839009  76.1513424  54.7849321
  12.8130591  74.9323654  55.2441597 115.1750469  86.5511227  44.2783165
 115.6992817  86.4194107  43.4883404 115.5446815  87.3358822  44.6829748
  65.5937862  33.7006736  93.1442451  65.0069904  33.1785774  93.6913395
  66.4633703  33.3368731  93.3106995   1.7369518  79.8671055  37.7277708
   1.3069066  79.1078234  38.1211925   2.2679961  80.2344131  38.4343910
  84.2550659  80.3180218   8.9947295  84.9264717  80.6063366   8.3764154
  83.6981869  79.7286797   8.4860086  10.0163221  75.7536745  25.5244160
  10.3723478  74.9389791  25.8790207   9.8772138  75.5699205  24.5953774
  14.1921628  98.3672333  45.8326769  14.8426580  98.4319687  45.1334620
  13.4057188  98.7716389  45.4663467  53.4423542   3.5810262  15.0111485
  54.3170881   3.2557607  14.7983718  53.5207415   4.5333615  14.9550712
  94.6580982  72.1170664  92.2153568  95.4948616  71.6730452  92.0778942
  94.5621014  72.6883984  91.4533901 116.9860744 107.1502590  42.8081369
 116.3731766 107.6865578  42.3051739 117.4513531 106.6358662  42.1484852
   7.4776578  83.2398510  67.1900511   7.4180746  84.0881348  66.7506075
   7.7118278  82.6255989  66.4942837  38.2800937  61.5989590  12.6341987
  38.7481761  61.9542599  13.3897746  38.3922458  60.6511450  12.7069926
  96.3270664 100.6492329  49.9335384  96.2858009 100.7304573  50.8863926
  97.1114254 101.1384678  49.6851969   1.6524684 104.1595554  43.4301949
   1.6336147 103.7663364  44.3026924   2.5649333 104.4200420  43.3045435
  52.3914099  49.0983009  95.6498241  53.0218172  49.7831726  95.4267216
  52.7372837  48.7063980  96.4517021   4.7604281  57.2390842  27.5521564
   4.2735067  56.6257429  28.1025648   4.5558143  56.9713259  26.6562366
 111.8769836 102.5214577  31.2751627 111.1996174 101.8937588  31.0233760
 112.2241497 102.1812916  32.0997810  56.4047527  53.5904503  73.5814953
  56.7544699  52.6997805  73.5562992  56.9799042  54.0565205  74.1882944
  92.3310566  84.0607738  21.0373712  93.0191040  84.4244099  20.4800630
  92.0111847  84.8087120  21.5418530 115.2670956  17.7498412  61.9329882
 116.1541271  17.5768113  62.2483826 114.6985340  17.4617386  62.6471043
  28.4932017  99.5457458  27.2561383  27.7323699  99.0197945  27.0096874
  29.0564275  98.9407349  27.7388024  98.9941597  80.4459476  25.0514340
  98.9283562  81.3780689  25.2589011  98.1024361  80.1139069  25.1553917
  16.9500434   8.0970806  32.7726698  16.1272931   7.6275826  32.6352453
  17.6271272   7.4276769  32.6742387  55.7206202  78.2023335  39.1687751
  56.1316729  78.9771557  38.7854791  56.4512205  77.6157570  39.3646860
  89.2425251 105.8138943  36.6357493  89.4602680 106.5939903  37.1459103
  89.6903324 105.9418964  35.7994986  30.7141924  93.4629345  34.2658043
  29.7829223  93.5241127  34.0531516  31.1459732  93.3464622  33.4194994
  92.0121861  93.4202862  45.0626993  92.4500561  92.8031254  45.6488895
  91.1543751  93.0281639  44.8995209  30.8845377  13.3830237   8.9051515
  30.7950521  13.4633648   9.8547667  31.0454917  14.2769957   8.6032593
 104.3527126  84.4758987  36.0671353 103.8553238  85.0168800  36.6804624
 105.1402187  84.2273712  36.5511918   1.4312980  30.3313208   7.7039349
   1.4026353  29.8361063   8.5225767   0.8812913  29.8303962   7.1016073
  57.5917864  86.6984844  96.5695763  58.2157469  87.2682285  97.0193577
  57.9567242  86.5897179  95.6913853  24.3751216  75.0966501  45.3035784
  24.3741298  75.3305912  44.3754053  23.4487200  75.0510788  45.5400848
  27.9006791  87.2139263  19.9111629  27.1893477  86.5770435  19.8431563
  28.6152434  86.7314148  20.3268671   4.5021677  82.8169060  18.0893242
   3.9342314  82.0511627  18.0038238   5.2765512  82.4907684  18.5477960
  60.9401894   2.5840545  70.2219820  60.3463078   3.1112880  69.6876049
  61.7318678   3.1168514  70.2968407  15.9354281  83.8041878  22.6418495
  15.2515876  83.9126205  21.9809127  15.6500709  84.3511677  23.3737063
  68.4904814   9.9057090  90.4817963  69.3053579  10.2033889  90.8862591
  68.2199812  10.6346333  89.9234581  12.0657694  78.8438606  19.4161737
  11.4478028  78.1957388  19.7542429  12.8526795  78.3395433  19.2096090
  82.8585339  80.6695557  25.8592749  81.9679546  80.5691910  26.1954665
  82.7967167  80.4167652  24.9381304 110.5490685 105.2238846  46.5868044
 110.1229191 104.4856262  46.1513710 111.2996292 105.4298306  46.0295963
  96.1765289 102.7815247  34.9762011  96.2490177 101.8981075  35.3375196
  95.9928417 102.6457787  34.0466499  45.3794253   0.8723591  24.4875598
  46.2666786   0.9345959  24.1338062  45.3658182   1.4982937  25.2116179
 103.9674187  84.2847443  40.3266335 104.1709232  83.3686161  40.1381588
 103.4019756  84.5580101  39.6042562  13.3688724  67.6317930  14.6183109
  14.3245792  67.6784277  14.6444392  13.0826652  68.5426235  14.6868932
  12.7748406  93.9199162   6.4791429  13.6330879  93.4962368   6.4907980
  12.1594369  93.2094383   6.2982225  81.5234947  22.2936320  87.0442963
  81.0445976  23.0017662  86.6136646  81.3947105  22.4515367  87.9795551
   6.4157164  75.7603502  26.0148120   6.8949491  76.3393927  25.4221272
   5.8305776  76.3435411  26.4982700  23.7826061   7.0797497  59.4412374
  24.6807194   7.3492008  59.2488289  23.2531548   7.8522038  59.2431784
   4.4354460  87.7685261  54.1601658   4.9704581  88.5566044  54.0657330
   3.5334086  88.0823231  54.0962076 100.5842304  85.2617741   3.6910883
 101.0573673  85.5229950   4.4811127 100.2659607  84.3797016   3.8831595
 102.0587635  97.4421787  45.4143429 102.9372883  97.6646614  45.7224464
 101.8765545  98.0829906  44.7270346   7.9700208  88.3683968   4.0952817
   8.5732031  87.9909897   4.7355682   8.3248401  88.1033134   3.2467148
  12.6572120  53.9229870   0.5283155  12.0355010  53.4692574   1.0973835
  12.1865964  54.7023106   0.2326616  91.2257481  53.5662365  93.5874653
  91.4686203  54.4863749  93.6903381  91.7491150  53.1056070  94.2433167
  16.1037123  22.8532600  21.6234922  15.7055426  22.1288133  21.1409283
  15.5566669  22.9512620  22.4028301  48.6666679   1.6359511   2.7706724
  48.2375097   2.4846286   2.6620442  49.5854235   1.8035477   2.5608236
   3.2447416   5.3150487  17.7692771   3.4904605   4.4830149  17.3648345
   2.6987955   5.7482880  17.1131682 111.6819191  57.1220112   3.9092919
 112.5940704  57.3667479   4.0651900 111.6988373  56.1676216   3.8379472
  54.1708851  87.0443344  42.1239042  54.2522812  87.7021027  41.4332914
  54.6638107  86.2916946  41.7971230  93.7157631 111.1404610   2.5627893
  94.4465637 111.1571884   1.9448267  92.9505157 111.3685989   2.0349811
  12.8545713 107.5603199   2.1260251  13.5584104 107.7445221   2.7480453
  12.9950356 108.1841564   1.4137602  84.4368649  68.2893610  43.6687613
  84.5138931  69.2107439  43.9164639  84.7806358  68.2517481  42.7762175
   0.1258074 101.0564995  19.9846172  -0.0948728 100.1665592  19.7097838
   1.0195052 100.9887123  20.3206897 109.8716640 102.8280449  15.3688884
 109.3282223 102.1354866  15.7447338 110.0471592 102.5359440  14.4743991
  24.6096230  80.2572155   6.7032796  23.7928224  80.4864979   7.1465570
  24.4454122  79.3904400   6.3318408  98.0209351  95.4013157   8.0655348
  98.0650806  96.2812042   7.6912802  97.2815895  94.9881554   7.6195484
  89.6596718  44.6399927  95.6511784  89.2375755  43.8297558  95.9368134
  89.8005581  45.1342297  96.4587212 116.4939022  54.2136145   5.6548059
 117.1930218  54.2307138   6.3083857 116.2993908  53.2838917   5.5364197
  49.4786978  11.1699176  70.5767393  49.9970484  11.3633347  71.3578463
  49.7518206  11.8291569  69.9387407  15.1315165  92.1333885  34.3543077
  14.8823464  92.9788399  34.7275949  14.2991161  91.7051983  34.1543102
  88.0482006  90.3617573  11.3366485  88.3560371  90.3296947  10.4308701
  88.0600262  89.4494438  11.6260791  31.1738992  20.8138871  17.5452137
  30.2732968  20.9063554  17.2344124  31.3414717  19.8718894  17.5170231
   2.3282807  90.6314564  35.2560639   1.4259271  90.7021618  35.5674982
   2.3232102  89.8681545  34.6785092  43.8606787  15.2459204  29.4364333
  44.0875435  16.1469054  29.6666288  44.5046377  14.9988937  28.7727141
  58.6207342  23.4240460  35.8194661  58.4907055  24.0842628  35.1387024
  59.5192528  23.5625815  36.1189723  63.2448483  22.9400015  45.0592661
  63.5190344  23.2880330  44.2107821  62.9942989  23.7127876  45.5654860
  56.9811857   0.9622524  30.6728840  56.3859332   0.2264069  30.5299592
  57.4325705   1.0712479  29.8358655 117.2508240  90.1634693  17.2978389
 116.8782902  89.9758720  16.4362967 116.7887688  89.5725250  17.8924155
 106.8588734  88.6443329   6.4058292 106.2732887  88.1507969   6.9800645
 106.6844559  88.2977009   5.5308086   6.0451144  71.9294930  19.8297215
   5.7903248  71.4942884  19.0161419   5.8405542  71.2938881  20.5155754
  35.3086948 107.4325657  15.8002377  35.2527952 107.0965004  14.9057174
  34.7379446 108.2009792  15.8035064   8.2003635 110.6491947  42.2233295
   7.9811728 111.2921238  42.8977394   9.1503912 110.5505562  42.2861862
  75.2022791  45.2012491  72.0947266  74.6384811  45.9419584  72.3177004
  75.8416319  45.5630970  71.4811134  62.5559521  14.7574675  44.7350168
  62.9869556  15.5934560  44.9127579  62.3365402  14.7942877  43.8040304
  91.2926769  77.0584011  96.5270996  91.1064911  76.9226599  95.5980396
  90.4656887  76.8637276  96.9680405 115.9400082  67.9934406  89.3301964
 115.4361916  68.0964327  90.1375294 116.8486691  68.1363964  89.5950413
  57.4529362  41.6342497  82.4204254  56.7902994  42.2928333  82.2120667
  57.0400143  41.0802603  83.0828667  28.7811327  14.0636516  49.9196815
  27.9336071  14.1786432  49.4899035  29.4165897  14.4080615  49.2921400
 110.9335136  98.5154343  12.9524541 111.2651253  99.4112206  13.0143535
 110.4277325  98.3912468  13.7555707  33.4530950  19.9426246  55.7562542
  34.3996835  19.9835896  55.8923578  33.0999947  19.6805561  56.6064739
  64.1446686  31.2460327  38.9973450  63.9597750  30.8262992  38.1571841
  64.9589825  30.8396912  39.2940187   2.2714293 105.6370258  19.0249932
   2.6312253 105.2401161  19.8182416   1.7122909 104.9569798  18.6493206
  51.6997099  11.8631268  -0.0070668  51.1490107  12.0492375   0.7534099
  52.3351622  12.5787783  -0.0235117  71.3596249  93.0265713  60.9087181
  71.7326975  92.8635025  61.7750072  71.8812609  93.7470150  60.5550385
  35.2043295   2.3078620  10.5115008  35.1586914   1.7879993   9.7090727
  35.3536296   3.2034749  10.2084851  93.6528206  87.4113846   4.2249671
  93.9278507  88.1249523   3.6492795  93.0521870  86.8910885   3.6913437
   2.4896644  84.7416592  29.2402411   1.9812799  85.2872467  28.6401486
   3.3156240  84.5869446  28.7818885  58.7521267  19.6860719   6.7185998
  58.4832907  18.8095987   6.9938344  58.6209536  19.6901321   5.7704389
  72.2083521   1.2775707  15.4673970  71.6785192   2.0707896  15.3879333
  72.0887041   0.8249854  14.6324825 103.9477909  71.3271472  96.2208510
 103.8316048  71.1109516  95.2956522 103.0853927  71.6286680  96.5064852
  12.6016092  70.0353384  32.1545577  11.8341017  70.2691746  31.6325569
  12.2729886  69.9793148  33.0518341  10.3938877 110.7737563  15.7592511
   9.5683634 111.2234424  15.5789232  10.1437914 109.8601874  15.8973598
   5.4027635  23.0737996  55.7169342   4.6758917  23.4223914  55.2008200
   6.1751395  23.5278535  55.3800344   5.0003856 103.7765217  18.8879299
   4.4530383 103.4291077  18.1836939   5.8675504 103.8697338  18.4935093
  63.4148169   9.8420483  24.9618888  63.8104630  10.2013099  25.7560086
  63.2898998   8.9130390  25.1557136   9.0944916  12.1959901  24.0054369
   8.6869085  11.7773581  23.2472444   9.7969544  12.7304327  23.6350989
  22.0991969 103.4246826  30.9958792  22.7201009 102.9828835  31.5751290
  21.2397981 103.2158566  31.3620186 111.1502647  91.3884926  13.6661291
 112.0863628  91.4512634  13.4763670 110.9440517  90.4609871  13.5501575
  98.8281059  38.8257861  81.4524460  98.9263630  38.2157207  82.1834755
  98.9409924  38.2839537  80.6714821  88.6550522  88.8136864  43.3709526
  89.0372276  88.3224773  42.6437044  87.9024029  89.2634201  42.9869127
  50.9288549   2.5041461  47.5709724  50.2263355   2.4640924  48.2198858
  50.8501434   1.6850907  47.0819044  32.1876907  15.9847760  12.4351418
  32.6202369  15.1310050  12.4496365  32.6253963  16.4631033  11.7309761
   6.8235391 105.1732922  30.5575800   5.8734143 105.1592350  30.6728935
   7.1730840 104.9660683  31.4242458  56.3222027  25.0777555  37.0779157
  56.2319183  24.5764494  37.8883314  55.8382225  24.5697165  36.4268446
  24.8138332  10.4419088  42.9124355  25.6309795  10.3476954  43.4019518
  24.1277361  10.2572906  43.5538530  42.5654364  10.3237593  33.6949778
  41.9284725  11.0381472  33.7074876  43.4082222  10.7566714  33.5588503
  89.2313480 106.1580563   6.3133562  89.3600464 105.4149437   6.9028056
  89.9947357 106.7162228   6.4614272  27.9672408  98.2616234  42.5578976
  28.3751869  98.7596989  43.2662249  27.7916169  97.4017525  42.9400158
  99.2671299 102.9340076  26.9835067  99.7828388 102.6591492  27.7416205
  98.4365082 103.2321358  27.3542094   2.7283835  86.7133808  59.5491552
   2.3365137  86.0406208  60.1059818   2.9938194  86.2446594  58.7579060
  54.1410446   0.4968436   1.4703149  54.8871136   1.0561460   1.2539972
  54.5030594  -0.1704891   2.0532785  83.6044121  63.1467247  91.2594414
  83.7913704  62.2079897  91.2667751  84.2190647  63.5183096  91.8921757
  11.1710012  99.9943542  23.4036541  11.9665384 100.4183960  23.0818701
  10.4795623 100.3089619  22.8212738  64.1206598  88.5297871  30.9864974
  64.4681168  88.5484123  30.0947809  63.4699011  89.2315102  31.0046887
  16.6223478  10.8823454  22.9057145  17.3379290  10.7435238  22.2853088
  17.0488989  10.9042275  23.7623405  97.0630646 109.0338993   4.8187980
  96.6970444 109.7016335   5.3987819  97.5399685 108.4444809   5.4030782
   7.0236719  98.7725163   3.1800038   7.3604125  99.4700718   3.7423658
   6.9035733  99.1896152   2.3268707 106.6561127  75.9886932  32.4631763
 106.8519306  76.8226385  32.0360613 107.0220757  76.0785007  33.3430815
  60.6124067  30.7049489  23.0726528  60.7363558  31.4692092  23.6354804
  60.0540400  30.1191139  23.5837865  29.6381140  95.8759308  32.4584985
  29.5677519  95.7093430  33.3984590  29.8318934  95.0195503  32.0773196
  18.5756516  17.8940213   3.9752743  18.9735460  17.0239687   4.0056205
  18.0796003  17.9021168   3.1566781  14.8725188 103.7582588   8.0436581
  14.6478212 103.7632179   8.9740980  15.5158997 103.0549240   7.9563791
 111.7141247  79.8855734  10.4929984 112.0100021  79.3852377   9.7325015
 111.6418934  79.2368698  11.1931396   7.9977483  86.7060566  11.1074412
   7.5880867  86.2066746  10.4010236   7.7156460  87.6083946  10.9576881
  11.0786712  69.3440533  26.3242698  10.1439393  69.5502186  26.3222289
  11.4312792  69.8232937  25.5744505  34.9140000  24.1982198  34.4226408
  35.3616810  23.4651017  34.0003252  34.0942550  24.2900944  33.9370394
  67.4056005  25.1193833  88.2617188  66.8332195  25.8156753  87.9395485
  68.2826042  25.3815246  87.9817581  12.4306846  17.5179923  12.5722682
  11.5237617  17.5004613  12.8779078  12.5105667  18.3506632  12.1069622
  56.2285137  11.6155660  13.0240905  55.8354378  12.3558891  13.4863067
  56.9028330  12.0094907  12.4705970 100.6355572  63.2094145  13.1883597
 101.5561771  63.0848026  13.4189594 100.1516247  62.8498316  13.9318240
  18.9255476  23.8318539  44.0535593  18.1107199  23.3586621  44.2220116
  19.1865277  23.5543442  43.1754303  78.7752008  26.8173361  87.5867653
  79.0924740  26.3644958  88.3681107  77.9597378  26.3682151  87.3641777
 115.7746029  34.3702769   7.3984540 115.6115150  34.0406227   6.5147334
 115.2554703  35.1725221   7.4544239 115.8447933  84.7762299  13.9094007
 115.0844193  84.2174911  14.0702868 116.3415432  84.3157864  13.2330489
  31.5742803  16.0511518  39.5775151  31.2778711  15.2241826  39.1973901
  32.5046825  15.9132349  39.7551727  91.4262962 103.9083862  24.5621538
  90.7070541 104.3926334  24.1566658  91.4604092 104.2376709  25.4602838
  63.4539413   4.6633530  47.6126146  63.5355997   4.6502709  46.6589975
  64.2840910   5.0282353  47.9191113  55.5507278   9.4739956  11.3383913
  55.7858229  10.2142477  11.8978453  54.7112131   9.7230446  10.9518468
  63.4562778  47.7695179  91.5487576  63.5165977  46.9288254  92.0024395
  62.5174141  47.9503584  91.5033627   8.0911833  90.3976631  26.7699504
   7.7731621  89.8409557  27.4807048   8.5418421  89.7957802  26.1776018
  93.7133884   9.7678292   8.5061866  92.9745579   9.8911572   9.1021341
  93.9222336  10.6496370   8.1979132  25.6845057   1.9214633   0.6882257
  25.2895128   2.7040723   1.0725946  26.6274368   2.0636895   0.7711763
  34.5550561 111.0867119  28.5682249  33.9152718 110.9626579  27.8671408
  34.6204948 110.2286434  28.9873457 105.4163837  78.5629177  22.9952478
 105.5848312  78.0802393  23.8044953 104.4746876  78.7338352  23.0099010
   4.1535789   4.7290850  12.9867280   4.4023511   5.6424189  12.8447211
   3.6410585   4.7433451  13.7950301 114.0542984  85.2126884  26.7541409
 113.6000061  84.5387650  27.2597766 114.3455601  85.8475685  27.4086094
  60.7239485  19.9254048  84.4984531  61.3454819  20.6048942  84.2372608
  61.1337519  19.5034266  85.2535915   2.5932708  86.7004204   7.6870316
   2.9562721  85.9588432   7.2027558   1.8303204  86.3406467   8.1394738
 107.3869514  74.5430613  16.8466198 106.6441727  74.7915602  16.2963772
 107.1020222  74.7431374  17.7382576 107.4941349  94.7292805  28.7494349
 107.3900986  94.5949364  27.8074360 108.0821609  94.0272427  29.0279889
  81.3520527  47.8043270  75.6479979  80.8178616  47.7793741  76.4418793
  82.0931721  48.3657551  75.8755493 117.3788262 110.5773528  27.6897788
 117.1510053 110.9382145  26.8329787 118.1902338 110.0929122  27.5375724
  80.7575226  33.0627847  95.2764702  80.9809971  33.9768672  95.4518032
  81.1695862  32.5745177  95.9892273  85.4671001  58.3098412  88.9474964
  86.2638855  58.3732176  88.4208488  85.7427120  57.8588629  89.7455406
  24.7460151  48.5989046   8.6256421  25.1922345  49.2143917   8.0440134
  25.2857852  48.5819244   9.4159532   2.1346575 110.8246231  60.7990456
   1.9568537 109.9307823  61.0917282   1.2701103 111.1946011  60.6204081
  21.1816287  29.6395445  58.8111544  20.4223919  30.0724602  59.2015028
  21.8390417  29.6356106  59.5068741  53.3825636  20.6873870  73.3017302
  54.3339109  20.7799602  73.2507467  53.1451845  20.2118874  72.5056267
  15.4829657   9.1547740   4.6381745  16.2113929   9.4470143   4.0902498
  15.5791116   9.6527123   5.4499906  45.3128481   0.6223035   3.5635835
  46.2238503   0.8895570   3.4415612  44.8507071   1.4344868   3.7709776
 104.0079689  90.1278210  47.8393507 103.3914185  89.5529747  48.2928467
 104.8191166  90.0532341  48.3420515  89.5699406 109.0357018  50.3651619
  88.6788845 108.9355946  50.0301647  89.8066139 109.9379635  50.1503563
  27.1321964  96.5018177  10.0268257  27.2707367  95.8824062   9.3103343
  27.5373602  97.3140621   9.7229487 104.2823732  63.6942580  96.0033359
 104.9333895  63.0917820  95.6435638 103.4514654  63.2262924  95.9206906
  47.2325039 105.0395107  26.8272805  46.6476345 104.2960644  26.9737053
  47.0572710 105.6300449  27.5599456  95.7669830  16.7544425  95.7647991
  95.9166622  16.2240362  96.5474224  96.1543179  16.2453389  95.0527477
 114.1438103  99.2970562  31.5170288 113.5416985  98.5769176  31.7043710
 113.9115906  99.9747372  32.1518922   3.9286768  50.9577608  29.8270798
   4.0735894  51.6270351  30.4958844   2.9975349  50.7471704  29.8967838
  87.4284935 105.6727219  17.4201870  87.3746300 105.1556015  16.6164947
  86.7557335 106.3458157  17.3174512   1.8521209 110.2753162  90.5917454
   1.3502291 111.0764408  90.4416084   1.5456137 109.9561977  91.4405441
  66.0338068  22.4448633  80.4968643  65.5707216  22.3421741  79.6654606
  66.3271093  23.3560205  80.4967022  87.9535389  76.3110161  23.6567497
  88.6676121  76.5364361  24.2530084  87.8060341  77.1080256  23.1475878
 100.8020306  76.6072178  22.7154207 100.7226849  76.4446259  21.7754745
  99.9398613  76.9311857  22.9760671   2.9431611  90.7585144   9.3082947
   2.9198974  90.4251671  10.2052724   3.0934733  91.6987705   9.4060332
 100.2617264  87.0779037   7.7994978  99.9147987  87.8177261   8.2980317
  99.9383163  86.3047409   8.2619363 107.2143650  85.3893471   0.4510162
 108.1100941  85.1272678   0.6636718 106.8445683  85.6774235   1.2855789
  10.3297627  68.5123444   2.1567005  10.5242157  67.8819561   2.8502664
   9.5787418  68.1378412   1.6963215  73.3644915  38.7544727  78.5482359
  73.1554031  38.8757730  79.4744110  74.0584564  39.3903303  78.3740902
  26.9572091  76.3384151  19.5607841  27.7603316  76.7113495  19.9243093
  27.1465349  75.4045391  19.4699001  13.1570637  98.4926033  10.1702809
  12.8807974  97.6426697   9.8274738  12.6569211  98.5985184  10.9795237
 116.7936535  66.5269136   2.0276012 117.2908364  66.3875389   1.2216134
 116.9339935  67.4498653   2.2390203   4.6357194  52.6461601   9.6925336
   4.2921749  53.4840107  10.0027299   5.4745293  52.8664494   9.2874378
  98.7151909  44.6778727  83.5821533  99.5854378  44.3040180  83.7205315
  98.4310436  44.3185902  82.7416706   1.7856279  77.0427752  11.8832695
   2.3134702  76.4433670  12.4108350   2.3547941  77.7985191  11.7379010
   1.4352733  81.5083313  35.5734897   0.5245861  81.8027592  35.5873775
   1.4680704  80.8007431  36.2172890  35.0705433 105.7094383  89.7758675
  35.9112287 105.6926441  90.2332497  34.5415998 106.3358784  90.2698517
   6.0950637 101.1478233  17.3360193   7.0097631 101.2226486  17.6079714
   6.0064119 100.2417183  17.0404851  60.4100895   7.6944846  89.1112137
  59.5981026   7.9642475  88.6820984  61.0904121   7.8504092  88.4561634
 113.6762524 105.1232910  21.4693403 113.3382607 104.7698021  22.2921658
 114.6245384 105.0084877  21.5309191  58.7508535  26.4056301  89.6061420
  58.3715010  27.0714879  90.1796913  58.8122225  25.6236863  90.1548004
  86.8408775  33.1186795  71.7107964  86.8423748  33.6780977  72.4875069
  87.6753998  32.6515222  71.7504930   3.7535748  73.0338669   7.5292575
   3.9773247  73.7654686   6.9539899   4.5386484  72.4862957   7.5367635
  26.0852981  96.7822933   6.3784039  26.2704229  97.6138783   6.8147874
  25.1629949  96.8425465   6.1294907 114.9596691  40.5188084  50.2830935
 115.5527782  41.2213612  50.0168753 114.2319202  40.5721140  49.6636009
  97.7529049  61.9195271   8.1429154  98.4704685  61.2891865   8.0796087
  97.3096466  61.6964340   8.9614391   7.3706430 102.8482914  84.6461678
   7.0962352 103.5876656  84.1037083   8.3234334 102.9267502  84.6937656
 105.8698845  29.7336125  65.8245802 106.3108635  29.5234632  66.6477489
 106.5492725  29.6364689  65.1573229   0.3117730  72.9576874  22.2232604
  -0.6391796  72.8950310  22.1338463   0.4535051  73.7686110  22.7116704
   3.8142535  78.2755995   6.3785505   2.9116148  78.5929394   6.4063203
   3.8735694  77.7940798   5.5534154  99.7980690   3.2230482  94.3033123
  99.0608883   3.6038989  94.7805309  99.5224285   3.2360384  93.3867455
  33.1963253 103.6747742  75.5215359  33.5048819 104.3994999  74.9776649
  32.4697828 104.0443230  76.0233259  91.8973732  56.2379026  22.4748087
  91.6235542  55.3260517  22.3759055  91.0862827  56.7408609  22.4013424
 113.2103479  88.5859495   0.0567884 113.9777935  89.0321760   0.4147596
 112.5026739  89.2255788   0.1361913  26.8482947  89.4208527   3.9421791
  27.0104504  88.4839916   4.0527850  27.1394062  89.8131275   4.7653437
  45.3119564  16.2163937  55.6580305  45.2528620  17.1166730  55.9777737
  45.2965927  15.6793678  56.4502430  66.3097906   3.4045145  90.3291512
  67.2668505   3.3947203  90.3160095  66.0753059   2.8755248  91.0916615
   0.5172461  65.7371807  15.7492495  -0.2709272  66.2800789  15.7658362
   1.2403361  66.3640022  15.7707810 112.3797703  81.9675541  31.0345340
 113.3209896  82.1416283  31.0283732 112.3128319  81.0127258  31.0417867
 108.4275150  18.7647378  62.9690599 109.1319942  18.6579370  62.3298979
 108.0082130  17.9051971  63.0092239  25.6538892  92.7469540  40.1127529
  25.2522421  92.0124817  40.5769348  25.5391908  93.4934616  40.7008028
  60.5446196  69.6581507  92.6749897  60.4295301  70.4125214  93.2528496
  61.4907217  69.6008968  92.5414276  82.3354721  50.8329105   3.1295475
  82.5861740  51.1984634   3.9779282  82.0995426  51.5950346   2.6006481
 103.9436626  87.9446220  30.6679487 104.4590187  87.2640419  30.2349806
 104.5886707  88.4655952  31.1462641  86.8982506 109.1854191  91.9880772
  86.7414379 108.6191559  92.7437115  87.8410435 109.3501091  92.0037460
  74.8738766 105.9754753  68.8084602  74.7552347 105.3629017  68.0825710
  74.1967678 105.7325840  69.4399357   8.1649536  65.4698086   5.7668203
   7.4693412  65.0543118   5.2571958   7.9060632  65.3365946   6.6786653
 113.2503033 110.5301476   5.8507150 114.0097523 109.9477768   5.8682817
 113.6038971 111.3767052   5.5777091  55.3207159  30.3141570  75.2317047
  55.2334213  29.3736243  75.0767612  54.5899534  30.7046938  74.7524357
   0.8492424  87.4612999  40.7751513   0.5221988  86.5694427  40.6574106
   1.7542297  87.3481369  41.0657120  96.8667507  88.4050560   7.6930964
  97.2885227  89.2579842   7.5889194  97.4257565  87.8002548   7.2052824
  76.4982653  44.2609024  68.4896803  75.6343651  43.9243174  68.7276220
  77.0139885  43.4789801  68.2925510  82.2602558  79.1953707   4.0035281
  82.7079391  78.8882303   4.7918656  82.9123402  79.1078329   3.3082959
   0.7761556  29.4536495  16.1517727   1.2105933  28.6294389  16.3712597
   1.2822331  30.1216984  16.6141868  12.9952300  80.3094673  24.0759444
  12.7801740  79.4377851  24.4078469  13.5795629  80.1463890  23.3355427
  28.8636112  14.5032513  16.2945294  28.5822797  13.8957143  15.6104362
  28.1678700  15.1595306  16.3329458   1.0399172  88.1680202  25.2107430
   0.6521975  89.0350819  25.3294921   0.8231505  87.9301357  24.3092656
 116.7459407  77.3441362   7.7490294 115.9532703  77.4758291   7.2288734
 116.8675002  78.1718779   8.2141066 109.1136265  48.1924486   0.6346313
 110.0650787  48.0994081   0.5866534 108.9754295  48.9503384   1.2027321
  44.6443319 104.8686123  68.5101414  44.8016882 105.6488609  67.9784632
  45.0276804 104.1524410  68.0038023  22.0109081  51.7414045  18.0863798
  22.6607370  51.6088390  18.7765825  22.0915627  52.6669741  17.8560567
   3.3576044  78.8991404  15.1508939   2.7455342  79.1580820  14.4620168
   3.4936339  79.6965790  15.6625807  73.5825634  23.6770272  76.2032604
  74.3157530  23.0617046  76.2095976  73.9941406  24.5394635  76.1481476
  67.4022150   6.6971892  85.6996822  67.8299141   7.5412464  85.8441639
  67.5838757   6.4904499  84.7829056  24.9579549   3.6354962  11.6041112
  24.8191643   3.6383614  10.6570303  24.3652105   2.9587162  11.9309986
   8.9790994  89.7445774  12.2983623   8.4204847  90.5218601  12.3019385
   8.9592612  89.4312000  13.2025957  82.7493572  18.5110509  92.8671551
  82.8165245  17.6691008  92.4167824  83.5559368  18.9715421  92.6356316
  13.1908441 104.2454243   2.7958840  13.0200756 104.1533566   3.7332177
  12.7759230 105.0743103   2.5571126 100.5745602  25.4874372  96.3312054
  99.9846268  26.2327409  96.4440632 100.2741432  25.0637889  95.5271530
  79.6795654  67.2437382  14.7580171  80.0202465  66.3597202  14.6213257
  78.9008951  67.2887897  14.2031515   7.5432104  74.2978096   3.0344111
   8.3709335  73.9297247   3.3436349   6.8862361  73.6438990   3.2731906
  57.9769897   5.1270622  95.9308720  57.5680876   4.2961350  96.1729145
  58.3586740   4.9638936  95.0683594   2.1991570  56.1183929   6.6144609
   3.0133975  55.6483698   6.4346755   1.8923005  56.4037609   5.7538581
  74.2867279  82.8638744  15.4652488  73.4919882  83.2368374  15.8467185
  74.1229105  81.9210243  15.4447949  20.4390121  59.1820145   4.1390020
  19.8158681  59.3465567   3.4312946  20.4636264  60.0021505   4.6319595
  81.6743279  78.7966585  14.2625284  82.5966167  78.5420942  14.2337990
  81.3790321  78.5291576  15.1328576 117.2419167  79.6645117   9.5334446
 117.0053101  80.0972557  10.3538001 117.5407600  80.3747272   8.9655286
  94.8123074  82.0794868   6.6977310  95.5900478  81.9444752   7.2391492
  94.1964722  82.5342560   7.2723275   9.0649766  99.9936485  50.1154757
   8.8556308 100.3784180  49.2643833   8.4061801 100.3533173  50.7094955
  83.9781570  40.7168961  89.0591145  84.6366405  41.3786268  88.8475800
  83.6945724  40.9363317  89.9466133  99.3087482  20.4937100   5.1813906
  98.7935257  19.6949005   5.2940309  99.8907280  20.5124760   5.9411138
  15.1428807  19.4993937  17.2140563  14.9400878  20.2168465  17.8143644
  14.2946875  19.2430329  16.8520069  64.5032930   6.7309302  81.8733978
  64.3865252   7.6305699  82.1787643  64.2447901   6.1894095  82.6191616
  95.5197430  32.4265289  79.2735195  95.4134178  33.2981086  79.6546698
  96.3269806  32.0913315  79.6637058  54.7291422  18.5188365  79.1142130
  53.9108801  18.4703445  78.6199236  55.1135778  19.3575764  78.8593435
  70.3200150  49.1614819  70.7263327  70.3994799  48.2782841  71.0867167
  69.8255634  49.6462393  71.3872099  93.6655712  77.4027967  21.4133906
  93.6083126  76.5136909  21.0634756  92.8438282  77.5266123  21.8884182
  99.8944569  14.1080916  73.4587908 100.6737709  14.6596456  73.3902645
  99.7037983  14.0783024  74.3963337   5.0196004  44.0537167   4.6212971
   5.7152689  43.7029219   4.0652215   4.3329445  44.3168831   4.0085346
 103.5003185  61.5422773   5.9579235 104.3021393  61.1777067   5.5832022
 103.5923862  61.4046049   6.9006866  71.9738245 100.6546593  84.0181541
  71.3175726 101.3316536  83.8530827  72.4941254 100.9975433  84.7447586
 104.7094727  66.7595625  15.6478822 105.2050018  67.2548580  16.3000846
 105.3762627  66.4002085  15.0626576  65.8004141  63.8874102  89.5341778
  66.0869741  62.9810858  89.4214916  65.3928518  64.1153860  88.6986160
  19.2104626  32.4880123  13.4692097  19.6422958  33.3321857  13.3383405
  18.7008882  32.3532367  12.6702094   3.1131026  53.9579535   2.6107019
   3.8836280  54.4625616   2.8712630   3.0484664  54.0906668   1.6649531
  84.2064762   0.6204994  88.9173222  83.6288929  -0.1182424  89.1093636
  83.8636112   1.3375685  89.4506931  21.1619210  40.7880068   8.2359320
  20.5699992  40.5883121   7.5106841  20.8491015  40.2424622   8.9575690
 110.5344772  69.9799824   2.9030207 110.7628536  70.7912207   3.3568609
 111.0788345  69.9845934   2.1156944 104.1010952  59.0140629   1.7409687
 103.4971905  59.1570997   2.4697146 103.5405064  58.9963341   0.9653004
 118.1743908  69.7601128   1.8588351 117.3176289  69.5914268   2.2509092
 118.4021568  70.6425667   2.1514682  28.6627936  98.7538338  53.2341957
  29.2791700  98.0910206  52.9227686  29.1670036  99.5674706  53.2366228
  13.7981343  58.8762665  27.0189524  13.0008876  59.1864634  27.4483776
  14.1902328  58.2721186  27.6494288  65.6547022  69.6132040  94.2543411
  65.1808023  68.8500071  94.5847607  65.1128864  70.3601694  94.5087242
  49.9877357  10.7755828  83.0521965  49.3579483  11.0555625  82.3879623
  50.6378126  10.2675760  82.5668526   6.0145313 106.3937759  19.7043610
   5.3876323 106.7796135  19.0925109   5.9272939 105.4496384  19.5730674
 114.3137836  80.4832363  28.7855959 114.5199680  80.0975037  29.6370220
 114.8283005  79.9726820  28.1604266  66.0363293  26.8053508  78.4643078
  65.9595728  27.1170950  79.3660593  65.1320076  26.6832018  78.1753206
  61.7631340  55.6667805  92.5988388  61.0584068  56.3140583  92.6238060
  61.3172960  54.8329258  92.4500275 110.7714844  94.9838543   3.2067484
 111.2805271  94.8322010   4.0030628 110.0263119  95.5106926   3.4955204
 108.5058212  53.9840889  63.4711552 108.6062050  53.1435442  63.9179707
 108.8284588  53.8239431  62.5843143 115.8484173  29.5537806  63.8069153
 116.7609215  29.8416686  63.8333321 115.4913139  29.9616957  63.0180454
  50.1195431  25.9840298  88.2293510  51.0249853  25.9698200  88.5395145
  50.0165844  26.8479776  87.8303242   4.8516393  21.3003850  76.8465996
   5.5895102  20.7885647  76.5152121   4.9419570  21.2620378  77.7987576
  93.2645798   2.8361651  73.5742092  92.7928448   3.1292570  74.3538237
  93.3912849   1.8971321  73.7098312  47.0978022  91.2945175  75.7756376
  46.9630194  90.6908131  75.0451517  46.4831400  92.0097637  75.6117821
 117.6113510  58.7671947   8.3487487 118.5605812  58.6459494   8.3265537
 117.2723103  57.9407597   8.6926705  28.6345911  12.4356377  40.8725166
  28.6979175  11.5978372  40.4139185  28.3298230  12.2057617  41.7503023
  18.1918156   6.0247868  11.3260436  18.8652623   6.6989547  11.2354934
  18.5455501   5.2684921  10.8579385 111.6939545   7.9502630  59.9538279
 111.6000462   8.2925779  59.0648746 111.7985153   8.7289780  60.5005455
  29.4533825   3.6312038  30.8366680  30.0962567   3.6979660  30.1306319
  29.6853852   4.3376613  31.4394331 100.7696342  89.7117233   9.5077902
 101.6053772  90.0900650   9.7809738 100.2852535  89.5865250  10.3238332
  71.7211246  14.4724357  18.8574719  70.9863901  13.9179325  18.5949385
  71.7960262  15.1189506  18.1555891  91.6005802  19.5758712  91.8630219
  92.0704174  18.9001691  92.3517990  91.0699940  20.0231385  92.5223064
   9.6727931  71.8332767  21.3036728  10.6009114  71.6381550  21.1742282
   9.4079596  72.2814226  20.5003929  31.6066551  11.1478686   0.6966829
  31.6403151  10.1947975   0.6145065  32.0306611  11.3311064   1.5350597
 113.4569836 102.9110432  10.8535302 113.5977364 103.3597660  10.0198233
 113.2087517 103.6074924  11.4614594 104.6290207  66.9375706  32.2983694
 104.3690491  66.7332411  33.1966448 105.3542805  66.3397741  32.1170664
  33.7595344  46.6373253  63.6417294  33.5045218  45.7268333  63.7907362
  32.9361105  47.0898199  63.4588289  93.8904381  40.2261066  92.0156765
  94.3199348  40.8818626  91.4663601  94.1005325  39.3901682  91.5993881
  24.6901417  65.4309225   6.0659438  25.2954125  66.0879517   6.4097375
  24.3275690  65.0085402   6.8446386  67.1395254  59.3733215  94.2637634
  67.6470089  59.0367603  95.0022793  67.7567577  59.9211454  93.7788391
  68.5418367 106.0349846  65.1849079  67.7282858 105.9527016  65.6825018
  69.2002583 106.2684631  65.8392811   4.7194809  15.9663641  62.3907089
   4.6766323  15.2198124  62.9882526   4.0356180  15.7945716  61.7433643
  11.3761044 108.8130951  25.4396892  11.8550396 108.3378315  24.7607350
  11.7972744 109.6720028  25.4732203  37.4905658  72.0563030  34.7223473
  36.9390178  72.8358030  34.7887278  37.1587873  71.5929270  33.9532971
  18.4227288  77.2754335  14.4990563  19.1202593  77.2725248  13.8435614
  18.8400507  76.9444275  15.2943611  87.9046631  19.3029857  84.3664360
  88.3865356  19.3595934  85.1915550  88.2711506  20.0032687  83.8265038
  70.6095791  72.3042631  83.1600285  70.9860706  73.1810331  83.2359505
  70.3074026  72.0959854  84.0440750  13.3720243 107.7782154  23.6236334
  14.1773355 108.2459259  23.8448930  13.0401289 108.2272911  22.8461957
 100.0107384  71.1020422  18.4583104 100.7366657  71.2259388  19.0697896
 100.1387787  70.2196360  18.1101716  91.5507698  24.4593930  84.2222595
  91.3413334  24.3413591  85.1487732  92.0894814  25.2502155  84.1973305
  74.0421867   9.0406048  85.5522728  74.7937822   8.6117983  85.1430511
  73.8950205   8.5472208  86.3592052  27.7458191 108.6844158  31.9811296
  27.4955082 109.1612911  31.1898208  28.4401894 108.0914783  31.6938782
   6.4458382  83.1721210  12.1716201   7.3189199  83.4081078  11.8581367
   6.4799654  83.3280849  13.1154108 110.9249401  97.5289249   5.5301321
 111.2088871  98.4383297   5.6228703 111.6318130  97.1058178   5.0427341
 117.5126934  14.1342020  93.4019470 117.3544312  13.8045979  92.5173283
 118.3986092  13.8391888  93.6125374  98.3112526  87.0804119   5.9422940
  99.2246914  86.9155216   6.1761075  98.0638885  86.3314533   5.3999716
  79.7250128  25.0081015  92.5335121  80.6790352  25.0850224  92.5461864
  79.5603514  24.0655279  92.5594711  92.5831223  31.2590122  84.0295315
  93.0849648  31.9355202  84.4842052  92.7183151  30.4685712  84.5521736
  51.1480427  22.4317074  92.4407101  50.6494761  21.9100571  91.8117809
  50.9094810  23.3374047  92.2431374  88.3909321  69.9699163   6.8344772
  87.9811668  70.0452852   5.9727108  87.8497696  69.3338346   7.3022074
  55.6825066  65.2461338  34.1888738  56.0158396  65.3399897  35.0812364
  56.1880827  64.5222616  33.8192391  64.3669224  93.5427284  94.3300533
  64.5635223  93.6739540  95.2576065  64.6682262  94.3459129  93.9053917
 111.3271236  36.4226270  84.0395641 111.3797569  36.8451428  83.1822777
 110.6330967  35.7705283  83.9429951  77.3527241  19.0789580  87.0120049
  76.6035700  18.7035978  86.5492916  78.0989265  18.9092338  86.4370251
 110.9469795  55.9373474   8.9212739 110.3995609  55.1737785   8.7381691
 111.7568970  55.7727432   8.4383959 109.0326881   6.1611974  87.0655155
 109.5919800   6.8348783  86.6787529 109.6273804   5.4350680  87.2534370
   0.4641997  92.3731899  11.0639954   1.3427340  92.7519989  11.0336924
   0.1543128  92.4143028  10.1592791  75.6219721  18.5298634  81.1324310
  76.3056374  18.3266079  81.7708015  75.5737448  19.4858432  81.1293316
  63.1777859   7.6177371  67.1888828  62.6591206   8.1792939  66.6128016
  63.9165020   8.1650609  67.4552822 102.9263973   4.7817010  86.1799812
 103.5935497   5.1106489  85.5775356 103.3703995   4.0947092  86.6771030
  47.7893162   8.6106104  20.0575829  47.1760607   8.6866003  19.3265712
  47.6770735   7.7135581  20.3721166 107.4838257 104.2818642  14.9674177
 106.7946815 103.7288094  14.5993972 108.2756329 103.7469292  14.9115252
  28.2028484  48.5507774  13.9021921  27.3389840  48.2067442  13.6750090
  28.3899307  49.1970253  13.2213128   9.9511230 101.3235283   6.0916555
  10.0339282 101.4888477   7.0308268  10.8243942 101.4967537   5.7400572
   7.7020925  69.1595411  15.3650522   6.9835103  69.7098112  15.0534832
   7.3043954  68.6024094  16.0341322   5.3753120  96.6090775  25.2272630
   5.5483890  95.7009697  25.4755044   6.1629438  96.8832207  24.7574663
  22.6983309  48.4449434  18.2182395  22.1499562  47.6995468  17.9734886
  22.1931887  48.9037371  18.8894844  77.4397039  33.1893897  94.5423508
  78.3301878  33.1417966  94.1944885  76.8875027  32.8611326  93.8327408
  65.8340597  42.4822760  65.3887558  66.7343760  42.8073072  65.3933430
  65.5259752  42.6176643  66.2848473  35.2065539   5.6498218  27.1587157
  35.5414391   4.7620097  27.2847056  35.9908605   6.1911917  27.0691967
  71.0392761  51.5045929  74.5723152  71.8979931  51.6190004  74.1651869
  71.0389042  52.1181107  75.3070498  33.0879760  86.0715961   7.6365155
  32.3518038  85.4797935   7.4814063  33.7202406  85.8518124   6.9522870
 105.4449749  89.7401810  31.8374252 106.1431599  89.5643234  32.4681687
 104.8802853  90.3763294  32.2763848  93.3068848  83.9796734  40.7238960
  93.9129829  84.4531822  41.2936831  93.2826900  83.0931282  41.0840178
  95.2854633 100.1925755  31.2786365  95.6043816  99.3065453  31.1069536
  94.3481922 100.0828934  31.4390349  78.0018091   4.0435794   1.2745605
  77.8920650   4.7471604   1.9142190  78.8081598   4.2664009   0.8093993
   2.9936889  83.6763763  15.5730796   2.7173805  82.8576851  15.9849393
   3.7479889  83.4320641  15.0368226  94.7046757  37.2089362  90.5222225
  93.8971233  36.7778873  90.8020115  95.3919983  36.7886138  91.0390949
   4.1364315  63.5184431   8.9769763   3.8357839  63.0232096   8.2150155
   3.6377412  63.1568575   9.7096395 104.9672508  87.0309353  17.2658026
 104.5007229  86.3728142  16.7505705 105.5880833  87.4209595  16.6504312
  26.7008233 104.4837856  85.1264668  25.7805681 104.4476223  85.3873444
  26.7469430 105.2161694  84.5118713 115.5572319  96.6159821  23.8409376
 115.8367443  95.9463024  24.4651461 114.6816349  96.8670464  24.1350865
 112.6067257  83.2603931   8.4279531 113.2959366  83.8320637   8.7662131
 113.0623817  82.6578140   7.8401595  28.6116648  92.2108841  16.1704981
  28.2932115  93.1080437  16.0708272  29.0746260  92.0288277  15.3527260
  97.8312302  91.2371635   2.4588956  97.1939087  91.8496418   2.8262120
  97.6969433  90.4275990   2.9516536  75.5510664  53.7443733  88.0521393
  75.6985331  53.7857628  87.1072769  75.8126450  54.6072769  88.3734035
  78.1854534  33.4762931  88.6543846  78.5427284  34.3515086  88.5041142
  78.7106943  32.9039168  88.0951500 107.0457458 105.0557613   6.8752789
 107.8505707 104.6335220   6.5749538 106.5490818 104.3534184   7.2951365
 105.4107666  75.7537746   8.2429707 104.4603729  75.7598019   8.3567619
 105.7486343  75.4065990   9.0685278  72.3937225  11.5603709  74.7569704
  73.1785202  11.1253881  74.4236374  71.8492556  10.8481061  75.0923300
  12.7895069  96.5795422  26.9129968  13.7198555  96.3564777  26.9434667
  12.3398674  95.7347775  26.9335270  92.0322037  87.7429867  30.0406671
  92.4211979  88.3908367  29.4531250  91.3540745  87.3191833  29.5145917
 112.2505379 103.8928509  16.5415788 111.6197586 103.8256931  15.8247530
 112.2548294 103.0221558  16.9392085  17.2990716 110.1869297   2.0794277
  17.9713857 110.2087212   2.7604204  17.6915014 110.6518650   1.3404645
  23.3790684  99.1260147  17.7615595  22.6104379  99.0967178  18.3312809
  23.1132865  98.6480236  16.9759929  20.2482867 110.6368351  74.2357397
  20.1563787 111.3663483  74.8485899  20.2927589 111.0518265  73.3743238
  27.4651980   6.8393505   9.8479199  26.9922996   7.5485319  10.2834189
  28.0980039   6.5377825  10.4997218 108.5042477  61.0849142  11.5707064
 107.9373074  61.4848661  12.2301388 109.2905712  61.6307402  11.5680230
  13.1862772 109.9428654   0.6092335  13.7524569 110.6704330   0.8667296
  12.3164976 110.3338623   0.5265556 108.6281872  48.3938265  18.5464001
 108.2198429  48.3155298  19.4085813 109.5493793  48.1821728  18.6975610
  88.7323666  47.3811817  83.5560608  87.8545094  47.1180153  83.2797527
  89.1346550  47.7405977  82.7653503 116.1236858  72.5596714   7.4431574
 116.1722279  71.6893721   7.8387028 116.6616535  73.1112432   8.0111253
 102.2247505  27.1909976  63.4361696 101.3654995  26.9851875  63.8043594
 102.5319767  27.9388881  63.9485264  87.9786682  35.5281901  83.8944721
  87.6573753  35.3610444  84.7805119  88.1159973  36.4750028  83.8641262
 115.0795364  70.4227591  13.6299527 115.1864243  70.0038624  12.7759457
 114.7965813  71.3141012  13.4257770 103.4298134  82.0249939  37.2553587
 102.7847481  82.5792980  37.6945305 103.8332653  82.5977039  36.6030860
 104.0402794  11.6660440  71.6559172 104.6091557  11.0438514  71.2026024
 103.2170773  11.6370893  71.1683416  78.5747528  33.6330080  91.6274357
  78.2979012  32.7308512  91.7877388  78.6235857  33.7027454  90.6740284
 109.9761677  80.0455952  30.0526571 109.2990685  80.4570675  29.5155811
 110.7073975  79.9062347  29.4508886 113.3701801  64.7409439  14.6042919
 114.1584873  64.4794750  14.1284370 113.5872841  64.5962381  15.5252469
  26.5614581  59.9284267  22.8857470  25.9712052  59.1990280  23.0749822
  26.3461566  60.1842833  21.9888568  95.5927944  27.0218778  75.4803753
  95.9547424  26.3936186  74.8554659  95.2003479  27.7034211  74.9347401
  14.7661901  39.4020486  86.1168385  15.2266896  38.6676049  85.7109261
  15.3924584  39.7587347  86.7467499  11.9281805  13.2250047  10.8381927
  11.2291968  13.6111689  10.3104329  11.7195582  13.4814000  11.7365086
  80.3299713  73.8919163  72.4812984  79.7560835  73.1839466  72.7739811
  80.5459595  74.3713236  73.2811403   9.4699454  83.8136673  33.4941244
   9.7696030  83.4180641  32.6756287   8.6635357  83.3436012  33.7061882
  81.0565090  59.7300959  91.6576767  81.7165089  59.0375900  91.6903496
  80.9333706  59.9869156  92.5715160  95.7350254  31.4817810  92.6021767
  94.8558807  31.8376827  92.4730492  96.2870216  31.9835472  92.0023727
  57.5446033  16.5583897  82.4614716  58.3779764  16.6570795  82.0010662
  57.7292109  15.9290612  83.1586838  59.7780037  72.3196793  84.1215515
  60.5049562  72.1959400  83.5112572  60.1828814  72.2780561  84.9879169
  61.7272139   0.0487965   4.2187867  62.5437880  -0.0029870   3.7220463
  61.0717344   0.3169616   3.5748392 117.2371674 107.1229458   9.8128486
 117.2636223 108.0306721   9.5102543 118.1101704 106.9646931  10.1720929
 116.9421196  71.2878370  15.2521825 117.1212482  70.8935738  16.1058211
 116.2625504  70.7326746  14.8698068  99.9402046  69.9927139  22.2932887
  99.3701077  70.0475931  23.0602384 100.0611782  70.9018278  22.0192337
  95.2636433  51.6542006  93.7066460  94.4543076  51.8975782  94.1560555
  94.9724197  51.2748098  92.8775024   1.3324150  15.5111539  81.2688351
   2.2450572  15.3469944  81.5062523   1.0531226  14.7111344  80.8236408
 100.4526615   8.8375664  80.7353306 101.1805534   8.3677042  81.1423206
 100.0762939   8.2089275  80.1193810  83.7068272  22.2666478  85.1746941
  83.0389500  22.1936369  85.8564854  83.4177589  23.0016923  84.6339703
  90.5327702  22.3696327  96.2557888  90.6022358  22.7169085  95.3665161
  90.0894928  21.5278506  96.1502361  27.3546243 109.7589874  29.5504951
  27.4392104 109.3338394  28.6970758  27.8499889 110.5733013  29.4625616
  76.2503862  55.7316446  83.6255550  76.8900204  56.3674355  83.9462852
  76.6553020  55.3587294  82.8424740  47.5854492   4.3448997  90.9251976
  47.6815557   3.7236893  91.6470623  47.0233107   5.0353581  91.2766266
  15.9862041 105.5376625  79.1663027  15.9436715 106.1579895  78.4385490
  16.5291989 105.9748459  79.8222399  14.0595376  78.7527037   9.1055977
  13.8437676  77.9811764   9.6294463  13.8590765  79.4939470   9.6770918
 108.9435577  20.1864076  93.3376503 108.7169266  19.2952943  93.6037064
 108.7283325  20.2201343  92.4055767   2.9285109   5.0847059   6.7960203
   2.8126618   4.1631839   6.5644854   2.8717279   5.1005870   7.7514023
  88.4699440  24.6182871  92.9825497  88.1019688  23.8350558  93.3916664
  87.7237415  25.2094173  92.8826809  59.8744678  20.9448957  94.1746330
  59.8281574  20.7238245  95.1047993  59.8764753  20.0987339  93.7271500
  18.1360972  59.5634794   3.0817357  17.7417564  58.8722944   2.5497684
  17.4466777  60.2218342   3.1683630 110.9142590 107.1769333  11.5808606
 110.8313751 106.9369888  10.6579351 110.0667000 107.5608158  11.8055856
  74.5685387  83.0691147  79.2782784  73.7861252  83.6157322  79.2057228
  75.2899694  83.6503792  79.0376520 111.0149956  55.7608366  85.4101086
 111.7274475  55.9802628  84.8096943 111.4293671  55.2282715  86.0890102
  69.2501259  35.3106880  72.2273731  68.5194063  35.6438494  71.7065287
  70.0195456  35.7566667  71.8733597  50.3743649  33.8056254  46.6382599
  49.9930859  33.3592772  47.3943186  50.7369375  33.1007147  46.1017227
  86.7627716  62.1069288  75.5716515  86.8668365  62.7017307  74.8289442
  86.5833378  62.6818562  76.3156223  73.4597445   0.7530615  12.5672722
  74.2724943   0.7125258  12.0632637  73.5661268   1.5184632  13.1321383
  74.5766640  32.0271611  64.2199278  75.2378368  32.5624990  64.6586704
  73.8645506  31.9573140  64.8557329  96.8133163  97.3673534   6.5149498
  96.0117149  97.2647095   7.0279104  96.5119171  97.4230289   5.6081498
 117.9129982  94.9925232  24.8209739 118.7886333  94.9575806  25.2060413
 117.5738621  94.1024685  24.9160051   4.2176121   9.2896742  13.1752753
   4.8930928   8.9055449  13.7342060   3.4012902   9.1488951  13.6548913
  41.2715816   5.0525630  56.9268131  41.0643530   5.6841135  56.2380219
  41.9690704   4.5127562  56.5548658  97.9292202  73.3479691  75.6510878
  97.6865005  74.2738819  75.6487751  98.7530231  73.3151054  75.1647615
  55.9450293  32.6178837  69.9097395  55.9538078  32.2869897  69.0115929
  56.8501568  32.8804946  70.0770950  65.3734970  30.9293914  16.0555589
  64.9647713  31.7877007  15.9438407  66.3136005  31.1044669  16.0133326
  98.3570862  45.8738470  76.4557266  97.8529167  46.5102959  76.9626570
  97.7039623  45.4214811  75.9218502  67.0284939  54.1055202  96.1266518
  67.0075703  54.4629383  95.2389336  66.3924646  53.3903408  96.1119556
  43.5281181  99.7695065  30.3865862  43.5843563 100.1734066  31.2525725
  42.8892517  99.0645599  30.4921269  82.1527195  64.0391541  63.0237293
  81.5778637  63.4691143  63.5344505  81.6876507  64.8748446  62.9841185
  21.6868567  95.6676006  10.1100194  22.6153517  95.6149769   9.8833865
  21.4985418  94.8351479  10.5433750  10.3848231  70.6088114   5.7547837
  10.3672314  70.5828810   6.7114705   9.4626319  70.6155729   5.4983687
 114.7408009 107.7483654  12.6858151 115.6351757 107.9702187  12.4267662
 114.8381233 107.3092461  13.5307634 112.8761292  71.3215828  81.6825008
 112.6312447  70.4020214  81.5792370 112.0550346  71.8016434  81.5749073
  20.5590630  93.3339214  46.9023037  20.0835919  93.1549740  46.0910511
  20.0319195  93.9973450  47.3475170 118.0785108  64.6201134  92.5601768
 117.9452532  65.3783274  91.9913292 118.6868995  64.9285030  93.2317352
   7.7639073  89.2727089  29.1639447   8.4749258  89.4998074  29.7632051
   6.9864082  89.2287350  29.7205329 107.5634956  89.8088646  29.5558143
 107.9779148  89.1854000  30.1522827 106.6738319  89.9091625  29.8944211
  66.3160086   2.6639950  10.1737094  65.9368277   2.0433027   9.5514596
  66.8055630   2.1177651  10.7886922   8.3245301  70.1365805  26.3535213
   8.0411798  70.9145260  25.8731651   7.7152991  70.0742197  27.0891714
  22.7283406 101.8850040  11.3709450  23.3279586 102.6233864  11.4780724
  23.2715440 101.1114788  11.5220141 106.1171341  31.8942595  62.7953863
 105.3524971  31.5248013  62.3537302 105.7547283  32.3761034  63.5388374
  47.5346851  48.5170937  90.8776855  47.6468611  47.6470327  91.2606239
  48.2749796  48.6122847  90.2784157 112.1799374  53.4173059  92.1905994
 112.2494507  52.5398445  91.8144798 112.5089550  53.3215427  93.0843639
   2.7702668 102.7524662   5.8062452   3.2698902 102.0503616   6.2229645
   2.1120986 102.9968166   6.4568901  51.9905615   0.6910513   9.9950480
  52.1258926  -0.2288721  10.2223325  52.4148607   0.7921736   9.1430044
  54.3252468  41.0915661  83.9927387  54.4651461  41.9329405  83.5582924
  53.4095478  41.1148024  84.2705727 110.5668926  26.1419964  88.9343834
 110.5329704  26.8373084  88.2774067 111.0638142  25.4398274  88.5145473
   9.0962207  91.1609650   7.8388238   8.2001328  91.4972591   7.8259766
   8.9962655  90.2107143   7.7816993  99.2319870  54.5314169  87.4005032
  99.8562050  54.5332861  86.6748428  98.8453197  53.6559963  87.3815727
  73.1236219  53.1039381  89.4210052  73.3179951  52.4096251  90.0505924
  73.8759565  53.1081343  88.8292217  71.1460257  27.4099064  11.9516087
  70.8294535  26.9678402  12.7393854  70.9009266  26.8255615  11.2341833
  67.9381704   2.7114257  23.5867047  67.6352215   3.3797815  24.2013240
  68.7140512   3.0955413  23.1784225  95.1376152 108.1894588  25.4675269
  95.8567047 107.8402996  25.9940672  94.6537399 108.7559032  26.0685539
  28.3164954  99.2251301  10.5738282  28.2433105  99.9790192   9.9885714
  28.4647799  99.6070099  11.4389324 100.4458332  88.5133076  86.0222626
 101.1456871  89.0795898  86.3474751  99.9950695  88.2124233  86.8112564
 115.0487518  29.6589422  81.0970974 114.3650055  29.5936608  81.7637825
 115.6910610  30.2621412  81.4710331  76.7644501  36.0521626  91.8675613
  77.1579647  35.2599573  92.2333336  76.1062527  36.3121891  92.5120640
 101.5256786   4.8638642  35.3511095 101.9501591   4.0451205  35.6074309
 101.0428810   5.1377118  36.1309481  32.5605464  86.5031624  27.6311183
  31.7693138  86.6501808  27.1128774  33.0012393  87.3528194  27.6416922
 115.2046013  96.5431404  17.4776638 116.1346149  96.4591026  17.2673202
 115.1500130  96.3334656  18.4100199  89.2589378  32.2996330  96.3782787
  88.7139320  31.9362712  95.6803036  90.1571083  32.1367717  96.0902023
  21.7136049   5.4394788   8.5243446  22.4375844   4.8231652   8.4136945
  21.9928217   6.0110480   9.2395920  33.6893034  37.1062231  14.4643235
  34.3226743  36.3934731  14.3802905  32.9814529  36.7366338  14.9921322
  96.2108803  85.3306198   2.5391290  95.6606197  85.0794601   3.2809958
  96.1394691  86.2843513   2.5000113  96.7631245  86.7238426  12.1674132
  96.3338280  87.1791363  12.8917384  96.1279774  86.0639763  11.8892336
 105.6369400 103.2455635  27.2800565 106.5813351 103.3798027  27.2005630
 105.2913189 104.1072369  27.5130916  13.7251079 109.2335606  13.2662129
  12.8846323 109.0064240  12.8684175  13.5126138 109.9180794  13.9006507
  88.7066078  28.5878086  90.4327297  88.3036041  28.6932421  91.2945271
  88.0099869  28.8073778  89.8140717   8.2897067  87.8357697   1.4841743
   9.1219139  88.0251884   1.0508333   7.6687187  87.7116489   0.7664005
  20.0970483 102.7554893   5.6190503  20.4372096 103.1828880   6.4050895
  19.7081900 101.9412231   5.9384060  82.3562908  42.6080847  83.7537479
  82.4055862  41.9180250  83.0922222  83.2657242  42.7573872  84.0123367
  43.6001492  20.0033736   8.4651196  43.2445621  20.1202345   7.5841349
  43.7798262  20.8924890   8.7707704 117.3951912  88.9412308   4.9947375
 117.9578876  88.8652134   5.7653356 116.7103100  89.5559502   5.2579767
  54.2694187   1.4129077  26.3477731  54.7635746   1.6801032  25.5727577
  54.0141010   2.2359210  26.7645383  76.5688419  52.9666090  68.1951666
  75.9909391  53.0703497  68.9511395  77.4515867  53.0550003  68.5545826
  24.8133421  99.9677372   9.8861301  25.6552172  99.6521187   9.5577079
  24.4168377 100.4146767   9.1382885  78.7267065  56.9038582  84.0761471
  79.2594004  57.0600748  84.8559284  79.2150640  57.3191738  83.3653355
 113.5542583 104.3901157  30.5618644 114.2106247 103.9690495  30.0067854
 112.9365253 103.6906719  30.7750034  45.3106356  19.8857450  50.7027292
  44.6665859  19.8309731  49.9967289  45.8623123  19.1125488  50.5841780
  76.2226534  71.5599775  82.3350620  75.6095028  71.1248732  81.7426395
  75.8442736  71.4350939  83.2053852  77.8481722  20.8551097  24.5690846
  77.5875902  20.2167463  23.9051414  77.2065830  21.5607834  24.4877100
  25.6972313  95.8805275  33.8048029  25.2209759  95.4246712  34.4987798
  25.2256417  96.7059612  33.6930132  97.4392796  64.4454908  93.9069080
  96.7312145  64.0915585  94.4450474  98.0805302  64.7709417  94.5386600
  79.7507858  61.1295938  94.7373295  80.0072575  60.2198458  94.5863056
  80.1917648  61.6209698  94.0442848  23.9103270   9.3489683  33.7771940
  23.5063553  10.2149010  33.7206292  23.6738062   8.9201474  32.9547596
  98.7782860  58.3609962  96.1386585  98.0331516  58.1991816  95.5600166
  98.9939404  59.2831135  95.9992981  74.7924757   4.1698584  94.5185661
  75.4411221   3.4783205  94.3871689  73.9501381   3.7158468  94.4945812
  95.6711388  93.8276291   0.9280784  95.1278210  94.5491600   0.6111732
  95.3468704  93.6538410   1.8117532  53.5114193   5.8116883   9.2161191
  53.3609962   5.1596743   9.9005777  52.6713133   6.2612641   9.1248083
  51.2730503  17.5294864  10.4556108  51.0643578  17.3149180  11.3648093
  51.4895582  18.4617138  10.4731524  36.2258410 100.9589767   7.5380391
  35.8927608 101.6561890   6.9730717  36.9772315 100.6041241   7.0629346
   6.1598414  87.3020363  20.8957839   6.3255823  86.3918114  21.1412501
   7.0216888  87.7177238  20.9213161   4.9550849  52.9495907  27.5461340
   4.4768086  52.4070883  26.9190955   5.3055978  52.3269653  28.1830859
  20.4654860  40.8302641  50.4022598  21.2093830  40.9170055  50.9983540
  19.7296572  40.5998850  50.9694624  84.0934467  54.8874950  87.9706383
  83.5715008  54.0913057  88.0700493  84.9985409  54.5778513  87.9366016
   0.2847559  98.5282803  19.0481389   1.1209209  98.0624008  19.0439785
  -0.3700275  97.8439331  19.1865611 106.5752411  88.7341690  11.6305041
 105.8282375  89.1057968  11.1613500 106.9649792  88.1178570  11.0104275
 103.1138229 105.2311993  10.4491663 102.9081345 105.8678913  11.1336696
 102.6871395 104.4240761  10.7367706  96.0419178 106.3324928  62.3406124
  95.7354641 106.2716103  63.2453823  96.6767502 107.0488071  62.3504448
  92.4327374  97.8748035   9.9923170  92.5870323  97.8824711  10.9369671
  91.9523430  98.6849213   9.8215199   8.0738050  75.7621670  95.8143044
   7.5224376  74.9803495  95.7828331   8.1341612  75.9753609  96.7455101
  94.4562328  66.6158196  95.6521105  95.3542412  66.9050810  95.8137932
  93.9107597  67.2927949  96.0526078 105.0890350 105.2533722  55.8106136
 104.3964958 105.2725983  56.4710999 105.7858562 105.7969284  56.1783266
  56.1378384 107.3593807  11.4499474  55.4149675 106.8589783  11.8284798
  56.2409782 108.1105137  12.0342278  91.6309738  64.4159889  78.9353752
  92.2063065  65.1381779  78.6830711  91.3223743  64.6501780  79.8106813
  29.4896507  91.1982155  11.0584331  30.3559542  90.9446526  10.7399154
  29.0404892  90.3680325  11.2174666  49.4599867  44.1774321  80.9688282
  48.9620972  43.7708378  81.6780663  49.0663671  45.0438690  80.8659554
  77.7342510  23.0804324  90.4362679  77.9851818  22.2532511  90.0251293
  76.8732929  23.2793212  90.0682640 112.7044392 106.8003845  19.5698452
 113.0986786 106.1779594  20.1809025 112.4309826 107.5349331  20.1192975
  13.9511156  41.5925312  93.6460209  13.2344544  41.3821411  94.2446518
  13.5209656  41.9832897  92.8854179  57.2044468  41.7760515  76.1596870
  57.9143667  42.0949078  75.6023932  57.6391172  41.2211704  76.8073034
 108.2828331 111.1199856  13.5971916 109.0802479 111.6456795  13.6605549
 108.2741451 110.6001854  14.4009078  11.9613194  89.0501404   4.2122734
  12.1290898  88.3418179   4.8338637  12.7104902  89.0287399   3.6168593
  27.7991724  28.4239507  10.1664448  27.1274590  28.6245894  10.8181930
  28.0693889  29.2784119   9.8301291  13.8045335  61.4286947  22.1280265
  13.9904380  61.1405563  23.0216956  13.7329435  62.3809719  22.1934175
  67.3841226   0.0937698  22.3797894  68.1544674  -0.0330975  21.8259811
  67.4279225   1.0126923  22.6441717  39.3531871  27.8241324  35.9103990
  39.1217327  26.9371986  36.1860967  39.7593045  28.2168341  36.6831112
  89.6310425  83.0501461  33.9846063  88.6799335  83.0750179  33.8797069
  89.9141693  83.9488602  33.8161182 105.2208328   4.7497210  16.9983375
 104.4182968   5.2314699  17.1985376 105.1288319   3.9234328  17.4726951
  57.5525141  -0.3726965  11.6846716  57.9304981   0.2664567  11.0806501
  57.4222946   0.1144888  12.4982595  74.7666502  30.1088667  37.9183650
  74.4704342  30.9891558  37.6868892  75.5357933  30.2522492  38.4698081
 114.2641258  76.6043329  85.6225967 113.8408279  76.1989117  86.3793564
 115.1973820  76.4344645  85.7506657  61.4779854   3.3169609  20.8388925
  61.6448355   4.2431673  20.6641483  62.2531843   2.8665334  20.5036116
 110.0728893  46.0511398  83.5405445 109.4483948  46.7735004  83.4739304
 109.5495129  45.3092384  83.8436604 111.8778610  32.4808335  91.1416435
 111.8690968  31.5410757  90.9599686 112.3595047  32.5611401  91.9649315
  43.9686775  14.7561121  39.2125964  43.0243111  14.6311593  39.1188335
  44.1903782  15.4116130  38.5512328  58.6100388  15.0171375  10.0134301
  59.4152927  15.3568041   9.6230125  58.5813999  15.4118574  10.8849859
  15.8856201  96.7221069   0.7625496  16.7702484  97.0870686   0.7408029
  15.3591669  97.3397732   0.2550285  44.4487619  11.1098218   9.0868568
  44.4906473  11.6018224   8.2668483  45.3206587  10.7261443   9.1807669
 111.5695763  62.9454708   8.5403460 111.2280464  62.1393538   8.9273471
 111.2252235  62.9469967   7.6472312  64.9494314  26.0229468  91.1933804
  64.2118168  25.5516648  91.5807438  64.7815037  25.9979510  90.2513599
  51.6937006  85.4255061   0.3597898  52.0905590  85.6518107  -0.4813510
  50.8071780  85.7830792   0.3102846  84.4393921  45.8377028  93.3633327
  84.0643883  45.6685543  94.2276192  85.3218269  45.4696417  93.4089184
  80.3077888  44.1755629  95.2185154  79.8995256  43.8542747  96.0224628
  79.9450302  43.6212349  94.5275974  50.3052711   3.1390119  14.9436796
  51.1016321   3.2671258  14.4282889  50.4004526   2.2631335  15.3178573
  25.6847095 106.4428711  19.9893677  26.0276222 107.2433949  19.5921206
  26.4602804 105.9853840  20.3140569  93.5113907  23.8331342  90.8197403
  94.1841698  23.3681607  91.3171291  93.9925861  24.2722487  90.1184177
  44.9164152  29.7188735  19.4815469  45.8700323  29.7932148  19.5179617
  44.6458149  30.4049802  18.8714135  31.0866523   0.9707415  41.9514132
  30.1709628   1.2294243  41.8473673  31.1105013   0.5051533  42.7874088
  28.5645390  88.1069469  14.1980612  29.4333029  88.4427929  14.4187105
  28.6643338  87.1551132  14.2149115  12.0838296  66.0820198  80.5744648
  12.2995329  65.3802395  79.9602890  11.7540610  65.6284475  81.3501930
 113.9972687  44.5943880  74.2043257 113.1902504  44.4477701  74.6977377
 113.7080193  44.7001648  73.2980251  69.8306894  30.7510948  80.6821632
  70.7733059  30.6654763  80.8249092  69.4783783  29.8839116  80.8824253
  65.7826281  84.3037510  11.1341989  65.7389498  85.0047302  11.7845428
  64.9315834  84.3294430  10.6968236 114.6113110  99.9897385  13.8140345
 114.5018959 100.1033688  12.8699231 115.2338314  99.2674541  13.8977838
  92.1411228  42.4048471  96.2914085  92.5070667  43.2803011  96.1653328
  92.2154140  41.9882631  95.4328251  93.7917900  73.9828110  58.5694075
  93.0294800  74.5213509  58.3570910  94.5130062  74.6076536  58.6446619
  37.6913595  40.4815674  78.0218363  38.1314278  41.0206842  78.6790466
  38.0865741  40.7463026  77.1912003 114.4323254  72.8138876  12.7878785
 114.3913364  73.7698698  12.8133976 114.4318199  72.5989485  11.8551242
  13.8678169  90.7739544  25.0183105  14.7086501  90.5616760  25.4234862
  13.3482039  89.9756050  25.1125288   2.6084653  73.4237528   2.7797657
   2.3526663  72.5729847   3.1361246   2.4560879  74.0393591   3.4967345
  69.8068237  53.5637140  95.3545570  69.9389935  52.7372313  95.8189774
  68.8788557  53.7626982  95.4791069 106.2648106  43.7781715  82.0916843
 106.2378883  42.8496218  82.3225594 106.6357803  44.2061758  82.8633308
 113.0424690  91.4540958  19.6441162 113.6932278  91.3935089  20.3434515
 113.4449482  92.0269680  18.9913881  97.0652485 102.9198265  14.6264911
  96.2533665 103.1762695  15.0638914  97.7132416 103.5540390  14.9332762
   7.6838702  82.7566051   8.3642513   6.8623745  82.8664780   8.8431096
   7.7074534  81.8264961   8.1393552   5.9272385  80.9716320   6.6090614
   6.0993379  80.0300407   6.6033727   5.1289177  81.0660553   7.1286756
  98.5868073  53.1857538   3.3362061  98.8004494  53.4620667   2.4450053
  98.3286762  52.2683334   3.2471311  94.9352074  29.6206808  84.7435570
  95.0346184  28.7724972  85.1759148  95.3746033  29.5125175  83.9000797
  33.9495111   9.1222090  10.0166762  33.2569766   9.7787660   9.9421024
  33.7344384   8.4703845   9.3495190  30.4992509  80.6784630  84.0074539
  30.2413869  81.2469101  84.7331238  29.6716261  80.3621578  83.6452007
 104.3889046  81.1197948  24.2692208 104.2087936  81.7037010  23.5324454
 103.5707474  80.6406498  24.4006658 112.5881386  15.1656377  78.5637808
 111.6496944  15.1367021  78.7501001 112.6482582  15.0405872  77.6166916
  33.3385944  24.9371839   3.2899919  32.5822139  24.5111513   3.6932489
  33.8676500  25.2360749   4.0295827 109.2628765  60.3159857  85.4356575
 110.1966190  60.5083942  85.5213261 108.8545895  61.1697578  85.2920914
  26.3421679  24.5653963  68.9101648  26.6186070  25.0569034  68.1367064
  25.4199648  24.3652582  68.7497950  28.6296964  13.3204412  37.0649004
  28.5491157  14.2667127  36.9452810  27.8508043  12.9584277  36.6423988
   4.8452231  31.3738894  68.2388210   4.3849254  31.9753575  68.8241339
   5.7581013  31.6599774  68.2710457  36.6325116 104.5048523  30.0915384
  35.9978032 104.1160774  29.4896817  37.0995331 103.7565804  30.4633021
   8.2599646 110.4219246  13.1124604   8.7396866 109.6775341  13.4757531
   7.4567592 110.4654980  13.6312997  76.1663628  27.0647621  37.7596021
  75.9661150  27.9241109  38.1306148  75.4444790  26.5057039  38.0469489
  30.6111288 110.3400803  13.0310476  30.5981159 110.6743431  12.1342039
  31.3384390 109.7179222  13.0442381  44.7289515   5.2104360   8.1088310
  45.6715202   5.2463794   7.9460287  44.5660305   5.9198797   8.7304252
  88.0562395  29.1076417  96.1401830  87.3473871  29.7047753  96.3793179
  88.1067497  28.4911294  96.8706621 104.5769310  59.6451664  94.1422844
 105.3783798  59.7633171  94.6521378 104.8498249  59.1301584  93.3829880
  67.9603386   2.9682818  39.5147634  67.0398998   2.8093749  39.7239876
  68.1682682   2.3203135  38.8416100 111.5570354  12.0496392   3.7490192
 111.5522480  12.9495966   3.4230044 111.1505032  12.1059930   4.6137661
  10.6164110  70.7478333   9.2517215  10.3021872  71.6324425   9.4386977
   9.8725504  70.1812077   9.4562632  56.3479376 103.9998913  13.7200320
  56.7093134 103.9728260  12.8340828  55.6817818 104.6864128  13.6861062
  69.4203043  13.1502151   7.4581754  68.5184097  13.1591797   7.7787018
  69.9512911  13.0041659   8.2410884  26.8556118 105.5318451  16.1057246
  26.3344860 104.8703766  16.5608311  26.2104011 106.0767937  15.6552088
  56.7668056   9.4508684  24.8874617  56.1239815   9.8819768  24.3242931
  56.8715858   8.5786760  24.5072842  30.6261277  79.9815178   7.5514138
  30.4459739  79.0450954   7.4683779  31.2775707  80.1611328   6.8734813
 111.9663239  84.0306377  90.5478764 111.6918755  84.3777657  89.6991062
 112.8002930  83.5956383  90.3704071  80.5329895  10.7180512  37.5318813
  80.4572964  11.6405404  37.2879195  79.9875450  10.2563560  36.8950462
  12.0031750 109.5604229  10.7065177  12.4692965 108.7429142  10.5314565
  11.0790944 109.3111515  10.7196736  19.4629622  67.6366377  41.7311096
  20.0962734  67.5061131  41.0253429  19.9881697  67.9421711  42.4707317
 112.6289463  38.2927322  87.9478645 111.9823360  38.9410496  88.2268047
 113.3961201  38.4700966  88.4921265  83.4286785   0.3382875  25.6816173
  83.6376095   1.0924873  26.2327647  82.6119518   0.5798133  25.2447438
  78.9019585  29.8794413  11.5592003  79.2296410  30.3145337  12.3463166
  78.0536079  29.5205760  11.8194795  21.1521029 110.0954437   1.4141119
  21.0306072 111.0442734   1.4486852  21.1687469 109.8900127   0.4793648
  25.8965659 109.1753006  13.2548773  25.6109047 108.4927845  13.8621652
  26.3525224 108.7014675  12.5593078  63.6237001  29.4337845   5.6290239
  63.7916613  29.5487428   4.6937132  64.4750881  29.5721197   6.0440338
  92.9788494  11.6952205  28.0686545  92.7357292  10.7697761  28.0425596
  93.9224148  11.6996121  27.9077578  16.6427743  28.7078595  30.7786822
  16.3340068  28.9656639  31.6472626  16.8958914  29.5308089  30.3604507
  99.9629498  49.4312096  92.0028019  99.8734951  50.1976442  91.4364052
  99.1124535  48.9950180  91.9516659  83.4997940  11.9050419  17.4390149
  83.5555935  11.0836577  16.9507027  84.2663670  11.8954897  18.0121708
  46.1635303  88.8360405  27.2904134  46.2676764  88.6569023  28.2249165
  45.2420712  88.6483002  27.1117902 109.7821426  77.0689011  81.6399574
 108.9411736  77.3553228  81.2836361 110.2106285  76.6199636  80.9111977
  16.8493962  74.3346843  96.1185027  16.2143635  75.0154707  95.8960284
  17.3004078  74.6716079  96.8926525 112.9622364  66.0410976  59.4383574
 112.8951263  65.2688360  59.9999046 112.0615482  66.2195683  59.1678953
  48.9680576  11.2136710   6.1215490  49.8931694  11.4307535   6.0063487
  48.8752317  10.3452551   5.7297975  64.2371702  25.3194189  17.4566793
  64.2207098  26.2101650  17.8067279  63.7315798  24.8053050  18.0862010
  47.5258446  34.7926402  49.6351242  47.6359129  33.9323974  50.0402164
  46.6468477  35.0688481  49.8945570 109.7711754  43.7101889  93.7189388
 110.3737640  44.3925428  93.4231186 110.3404522  43.0032110  94.0228176
  26.1928725  75.2485132  33.0039811  26.0578752  75.3871775  32.0665503
  26.1725926  76.1278677  33.3815408  62.9182005   6.1996955  26.9170213
  63.8337231   5.9929776  27.1049428  62.8580713   7.1479321  27.0330548
  52.2882032  28.5702181  21.2276101  52.0537996  28.5501575  20.2997732
  51.6669273  27.9732299  21.6445661   6.8148369  84.9386978  21.8274522
   7.5973928  84.3925190  21.9017673   6.0904598  84.3145561  21.7831779
  62.1033764  13.8342273  13.1761885  62.9324436  13.5609341  12.7835238
  61.6913509  13.0176473  13.4584379  97.8004169  62.9256535  77.3520517
  97.8615665  61.9811678  77.4950171  96.8980598  63.1450891  77.5840998
 117.8786082  62.2465992  91.0861111 118.8262464  62.3466969  90.9955883
 117.5958375  63.0417395  91.5377998  81.1589432   8.7169343  21.4054823
  81.7260647   8.6269414  20.6396461  81.7010021   9.1671371  22.0533442
  72.9552364  23.9434004  84.3427944  72.3591185  23.1984639  84.4198799
  72.4139881  24.6472812  83.9852619  77.1807146  25.1627541  31.3321757
  76.9864798  25.1147723  30.3961182  76.4671040  25.6851268  31.6983962
  43.5778522  23.8138390  32.3648000  42.8737879  23.2579947  32.0307970
  43.7528038  23.4767318  33.2434273 116.4090633  92.7330685  25.4377770
 115.8853340  92.3423958  24.7382665 115.9716320  93.5625458  25.6297636
   5.7026196 101.7131329   6.9411755   6.1464423 101.3171101   7.6911241
   5.2092111 102.4440289   7.3134303  49.1878366  21.1721182   0.8546919
  48.7636614  21.5073991   0.0648233  48.5666180  20.5355215   1.2083308
  74.3612623  21.4089894  72.5420427  73.6590147  21.8501234  73.0200338
  74.9938154  22.1018815  72.3522711  90.6992817  78.5146046  85.1365280
  89.7666836  78.3602810  84.9859047  90.7460690  78.8400364  86.0354900
 107.3572826  42.6970673  68.4041595 107.7637768  41.9408417  68.8273764
 107.9616165  42.9307890  67.6996136  55.8142281  35.3219318  38.6357570
  55.9553480  34.4192648  38.9212584  56.6953850  35.6729078  38.5068774
  33.1161880  15.2052951   7.3997492  32.2255182  15.5416024   7.3005831
  33.6732364  15.8893156   7.0282030  35.6140399 101.7877865  11.3390136
  35.2141619 102.6511478  11.2344038  36.0332918 101.8206120  12.1988869
  73.8390303   1.9303200  17.7142322  73.2620239   1.7370497  16.9753540
  73.2444525   2.1523654  18.4307539  51.1476517  10.6025720  29.6582603
  50.7797670  11.4862311  29.6645522  52.0223761  10.7046235  30.0333238
  16.4532411  66.4560604  95.2220440  17.1871591  67.0659876  95.1472950
  16.5398443  65.8826399  94.4605160  43.1166649  97.8346252  16.0025716
  43.2243013  98.4332561  15.2634573  42.9537439  98.4067917  16.7524433
  71.0566902   7.7905941  40.2357769  71.5334034   8.5784745  40.4969692
  70.8430815   7.3552620  41.0610580 105.8365345  23.4059286  91.9504166
 105.8526611  23.0545211  91.0601997 105.8818436  22.6333690  92.5137329
  11.3851655  70.2267647  60.2430391  12.1192622  70.8121395  60.0568390
  10.6095910  70.7269096  59.9889326   3.2978132  28.5596776  84.2454815
   3.7945011  27.7491760  84.3578243   2.3996729  28.3244252  84.4783592
   1.9983412  92.4300289  47.8812170   2.0874739  92.2866058  48.8234043
   2.1704161  93.3642864  47.7638245  18.8615453 101.8396568  28.5613823
  18.2713675 101.1733055  28.2093954  18.9281690 101.6323376  29.4934845
  90.7673931  24.8141336   6.4523327  91.0215855  25.6112123   5.9872735
  90.0814152  25.0978518   7.0566303  42.0947981  21.1587024  22.2103286
  42.2014332  20.2074718  22.2056961  42.2693396  21.4236832  21.3072491
 111.8961525 109.7982788   2.3138593 112.4703789 110.4330826   2.7422413
 111.7888546 110.1345921   1.4241341  41.2613058  83.3474731  14.6603227
  41.3032341  84.3036652  14.6732676  41.8404388  83.0920315  13.9422774
  84.8457718  60.5760765  91.4260292  85.7602882  60.4465151  91.6772461
  84.3868256  59.8214293  91.7949486  96.5120029  43.7120771  53.1292868
  96.0786533  44.5504951  53.2889986  96.5065956  43.2737494  53.9802122
  10.0656211  98.0998135   7.2339439  10.3337836  98.8425350   6.6929388
   9.9270129  97.3869610   6.6103601  68.5729074  11.6573799  44.1054249
  68.1678104  11.9370234  43.2844925  69.4744349  11.9738293  44.0476227
  93.6429691  72.9383421  77.5041437  93.9060783  72.5823784  76.6554403
  94.4621277  73.2247114  77.9081202  10.1405680 105.1707745   3.9160624
   9.4497401 105.2129936   4.5772770   9.6891761 105.3316593   3.0874532
   1.1613660  78.4363937  22.7882838   1.2613210  78.3245277  21.8429112
   1.9155511  78.9655733  23.0479145  21.0045266  34.3283391  24.7476912
  20.5998659  34.1318417  25.5926013  21.4992499  33.5384583  24.5295906
   3.3159795 110.7223988   4.2753795   3.2918212 110.6429482   5.2289712
   4.2328659 110.9092045   4.0737534  30.5023217 108.4408855  10.8147955
  31.1850262 108.1525993  11.4206338  30.9776378 108.7094307  10.0285447
  31.3769913 107.7824497  24.8280454  31.2745929 108.0120182  25.7516503
  30.8506298 108.4308338  24.3603063  48.5602522 104.5904446   6.0693920
  47.7496195 104.1142941   5.8894545  49.2293835 104.1209984   5.5712801
 117.2899342  44.6975136  78.2289886 116.3389015  44.5890379  78.2313108
 117.4377346  45.5046272  77.7360868   2.1149495  30.1015282  92.6253128
   1.4454652  29.4175673  92.6104736   2.5018051  30.0391054  93.4986210
  45.7796717 101.5244961  10.0054634  45.2190351 102.1098900   9.4963235
  45.7449436 101.8740273  10.8958852  46.1860609  19.1455984  53.2811975
  45.7388926  19.7485900  52.6873302  46.9608974  19.6264803  53.5720825
 112.2790051  49.1133213  84.0552902 112.1555233  48.9030218  83.1296730
 111.5718460  49.7256947  84.2581749  26.9849324  97.3797894  18.5311103
  27.8733468  97.1419907  18.7964523  26.5123725  97.4978447  19.3551135
  81.3359070  52.9863691  94.6556854  80.7498169  53.5964680  95.1034641
  82.2127819  53.3347511  94.8167515  50.1460981  15.3712010  25.8824277
  49.5373058  14.6885920  26.1646438  50.9765005  15.1380730  26.2975359
  18.6804700  97.5972080  13.7808681  19.3034673  97.8273773  13.0915713
  18.9037585  96.6961956  14.0144217  93.2093430  34.7569442  14.2322028
  93.5254002  35.5891323  14.5840514  92.3087597  34.6893716  14.5494151
  68.5109425  19.2058468   8.4307408  68.8157463  19.0969622   7.5299239
  68.6147070  18.3398223   8.8250333  60.4304552 106.0763836  28.7825084
  60.9019566 105.7869720  28.0013800  61.1184025 106.3406563  29.3933439
  17.9793704  71.2866068  41.6716576  17.2733033  70.6511784  41.7896748
  18.3956599  71.0319042  40.8482170  84.3544197   0.8889894  21.4946795
  83.4313011   0.6733742  21.6273427  84.6308613   1.2789719  22.3239684
  78.1080723  69.4696236  94.2561913  78.5876369  68.7742662  93.8059425
  78.1309319  69.2173815  95.1792812   4.3972349  38.1649351  89.5710659
   3.9658329  38.3807778  90.3978252   5.3118646  38.4126997  89.7063351
  46.0085630  18.2583928  65.8968067  46.1110353  18.3631229  64.9508905
  45.6596899  17.3734307  66.0033989  49.1703367  75.1963997   5.7335216
  48.4686279  75.8407974   5.6408423  49.7987652  75.4265165   5.0491583
  54.0510464  29.0061116   3.1989077  54.3322992  28.7803388   2.3122540
  54.7474098  29.5705533   3.5346401  11.3228821  84.5604226  95.7713267
  12.2705578  84.6067783  95.8977787  10.9855961  84.2342850  96.6056528
  79.0495777  40.6571054  68.5572290  79.9291372  40.5912924  68.1853628
  78.8870001  39.7957063  68.9416647  72.2195864  31.6753507  31.5572977
  71.2839603  31.8564510  31.4676380  72.2945309  31.2086987  32.3896742
 102.7847576  42.5198555  92.1660805 102.4259567  42.3069859  91.3045788
 102.0851517  43.0048943  92.6037216  41.5580940   8.7097025  10.6811154
  40.6146097   8.6502951  10.8312333  41.8678141   9.3263131  11.3445127
 117.4828243  44.9344492   9.9320304 117.3304367  44.0043736  10.0992751
 116.6170216  45.2852726   9.7233450 109.8718262  52.8715563  18.8331771
 109.0563393  53.1255531  19.2652786 110.5500221  53.3690739  19.2900789
 103.1157017  61.2895060  11.4061058 102.6632118  61.6904831  12.1481991
 104.0296745  61.2331676  11.6848993   6.6855925  44.3777943   2.4088113
   6.8927079  43.4458351   2.3395868   7.4157518  44.7492886   2.9038775
  11.1090457  50.9153223  22.1555591  11.7924833  50.3101635  21.8675900
  10.6283653  51.1315250  21.3565373 112.7989483  79.8828554   4.9278361
 111.9837093  79.4388008   5.1611555 113.4878635  79.3200731   5.2812570
  75.8545828  15.5810952  94.1886425  75.6323147  16.4020860  93.7495518
  76.2491369  15.0420201  93.5031128 114.5124340  70.0847769   7.8851980
 114.5739460  69.6525192   7.0333767 115.1576996  69.6338606   8.4297538
  75.3293800  29.2799902  67.8009892  74.8979044  28.4261632  67.7687263
  74.6139622  29.9057484  67.9143047  34.1701579 106.3085556  94.5386982
  34.1541314 105.5411148  93.9668465  34.9665165 106.7770386  94.2885780
 115.0162983  10.5189943  94.7307396 115.0757504  11.4434445  94.4897270
 115.8594513  10.3233218  95.1394367  76.1946058  27.3392916  91.9918060
  76.7181396  27.8115892  91.3444424  75.6044674  26.7944098  91.4711666
  79.3485355   5.8004272  75.9749603  78.9180183   5.3631222  75.2403498
  79.4291162   6.7127460  75.6967258 112.2353172   4.2319581  92.6858044
 112.2933102   3.7751883  93.5249805 113.1453896   4.3475071  92.4126053
  56.0574150 109.5069218  91.4868450  56.6414881 109.9609470  90.8794308
  55.2483988 109.3797684  90.9913063  82.6893616  97.5485611  74.7123384
  83.3708286  98.2049274  74.5673323  82.1614552  97.9051971  75.4267311
 103.9047337  86.6813183  10.0765371 103.2663345  86.0076904   9.8422474
 104.6570492  86.1925983  10.4103136  33.3261824  45.5780458  26.4882684
  33.0432916  45.6662750  27.3984456  33.0253458  44.7076416  26.2272549
  14.7446990  73.9463329  26.9536805  15.5454230  74.4237947  27.1707153
  14.1450429  74.1449118  27.6728535  27.1479535  72.3594666  32.9589367
  27.1292400  73.2444572  33.3231807  26.4486217  72.3546171  32.3053741
 114.1044521  22.4965215  71.4014196 114.7294331  22.6240635  70.6877232
 114.6135044  22.0733261  72.0928001 103.5875320  70.9861994   3.9549348
 103.1845856  71.0322762   4.8219669 103.6485672  70.0492811   3.7686735
 108.1983566  60.3345776  92.1145153 108.4488678  59.5208502  92.5519180
 108.0842876  60.9639740  92.8266144 102.1652317  14.1605067  66.3581228
 101.3514805  14.4712985  65.9613132 102.8555775  14.6198571  65.8799505
  16.2182426  80.5295658  29.5233393  16.1497378  81.4533806  29.2822838
  15.8053029  80.0614262  28.7976933  72.4858427   2.4805069  93.3328915
  73.0211210   1.9103737  92.7809334  71.9008875   2.9264390  92.7203560
  51.0520601  83.0510712  89.2051411  51.1575890  83.9815140  89.4035721
  51.4304876  82.9479599  88.3319950  77.5224733  22.5259089  53.1623602
  76.9612646  23.1202936  53.6603403  77.7449799  21.8311214  53.7820292
   3.4607369  98.7008381  76.2011766   4.3898535  98.9119720  76.1095381
   3.4462178  97.9176235  76.7512560  22.5253129  30.8857751   1.1025134
  23.0635285  30.0946045   1.0779075  22.8306031  31.4063382   0.3595156
 110.2499962  44.5727348  20.7309365 110.7680321  45.2205276  21.2086797
 110.4563618  44.7329235  19.8100770  50.4545689  66.4332008  13.9062011
  51.2706470  66.3024187  13.4233570  50.7218599  66.8716049  14.7140324
  10.7680559  85.1633644   2.6418608  11.3713324  85.4382420   1.9514051
  11.1443639  85.5221462   3.4455371  92.9395962  32.6396108  93.8412571
  92.5029755  32.5585818  92.9932976  93.3264446  33.5150695  93.8287735
  28.5774398  65.2548170   5.5449522  28.8367724  65.3757143   4.6315175
  29.0569448  64.4766283   5.8290768  55.6486797  17.4281120  67.4587536
  55.4196978  17.1120143  66.5847540  55.3336906  18.3318210  67.4767494
  78.9369202 105.4224586  87.1119213  78.4666538 104.8824310  87.7471066
  78.2584238 105.7321453  86.5119457  60.3068447   9.7048849  70.1931000
  59.7753096   9.8718393  70.9714508  60.1800489  10.4798377  69.6457386
  78.6999941  98.9063358  64.5321703  79.4727659  98.7440491  63.9911366
  79.0525627  99.2137337  65.3672934  84.4604492  25.0423121  95.4025745
  83.9957809  24.3045330  95.7975388  84.9576473  25.4264808  96.1246872
 115.4544353  91.9934559  38.1152201 114.6398544  91.5225887  37.9392672
 116.0010910  91.8211269  37.3485994 114.9951935   4.9632400  91.6533947
 114.8830223   5.8682680  91.9442081 115.0796127   4.4601277  92.4633217
  74.6301174   3.8757178  64.7561979  74.9772501   4.1206351  63.8984394
  74.1064453   3.0923474  64.5878696  68.4423256 104.0499401  59.2863512
  68.6628485 103.2237625  59.7164917  67.6347923 104.3346500  59.7142076
  52.6542997  82.9582882  56.5027809  52.2864008  83.6320591  57.0745468
  52.9551744  82.2744846  57.1012115  20.3878760  61.0811663   5.9866303
  19.7316623  61.1254883   6.6820806  21.1047935  61.6335821   6.2982339
  90.6027985  24.1236162  86.7482281  90.6023979  23.3726072  87.3417091
  90.2635860  24.8463488  87.2762680  96.6588497  41.0141087  88.1683064
  96.4660931  41.0744858  89.1039467  95.9970093  41.5657759  87.7513313
  26.3204956  54.8618317  11.4477563  27.1510053  55.0970364  11.0340321
  25.7381678  55.5953074  11.2499118  67.9470539 101.6693783  93.7040997
  68.7683439 101.2313938  93.4807491  68.0320883 101.8778515  94.6344471
  84.1365242 103.8283443  20.7113934  84.9868107 104.0977573  20.3640294
  83.8399601 103.1422997  20.1133776   3.6895627 102.1698093  27.0615554
   3.6213177 101.9779682  27.9968476   4.6273899 102.2850895  26.9085073
  75.6674910  33.2371879  80.6032562  76.3457632  33.8451457  80.3090382
  75.1540661  33.0523062  79.8168468  23.8271642  77.6426649   5.5784512
  23.2073736  77.7062082   4.8517776  23.3057666  77.3115110   6.3096929
  25.8678627 111.2286663  71.5433598  24.9229789 111.0756588  71.5396833
  26.1930752 110.7011795  72.2728968 115.4285908  75.2990007   1.5693045
 115.5111027  75.3145313   0.6157941 116.3136959  75.1140308   1.8833230
  78.3577156   2.0654134   2.9661983  78.0769444   2.6988328   2.3057579
  78.4969330   2.5883862   3.7557232 115.8627415  36.4443159  92.6217175
 116.7744255  36.6666842  92.4329948 115.8816910  36.0901785  93.5107899
 115.9846592  66.9789648   9.1988915 115.4158211  66.2447071   8.9675522
 116.8701649  66.6176414   9.1593409  90.7845592  45.7463264  93.4450245
  90.5122471  46.6630268  93.4033298  90.6770611  45.5061579  94.3653488
 113.6206055  45.2295637  33.2866764 113.8623810  44.3579817  33.5999250
 112.6972580  45.1503801  33.0471277  73.0097818  13.9520109  73.4594250
  73.0715084  13.0903387  73.8716650  73.9187717  14.2099953  73.3064222
  13.8127327  70.1752281  24.5090604  14.3071759  69.3623495  24.4042397
  13.9338386  70.4123688  25.4284763  30.9783387  43.0366898  93.1614113
  30.3130007  43.4981108  92.6508808  31.7578101  43.5880232  93.0929470
  83.3533859  23.7629795  66.5170813  82.4710655  23.7281775  66.1475658
  83.7250805  24.5753884  66.1734819  83.5342407  10.9904504  92.3613071
  83.8221836  11.0447133  91.4500618  84.2438602  11.3939631  92.8611565
  78.3235598  11.5923238  80.8550072  77.4093103  11.7294765  80.6068802
  78.8266039  11.9538498  80.1252937  22.4236608  70.1718283   1.0507812
  23.0741453  70.1628733   0.3486273  22.3328209  69.2534447   1.3048492
  58.8112736  89.5712852  81.3676071  58.3175516  90.3845501  81.2624168
  58.7637520  89.1495609  80.5096245 106.0566044  96.6411400   4.9623588
 106.0895538  97.5549030   5.2455413 105.5606651  96.6617680   4.1439164
  87.0096016  73.1369829  20.1537967  87.4591541  73.5161352  20.9090281
  86.2336063  73.6850882  20.0369716  15.7427048  61.8682753   0.2739114
  14.7960018  61.8121271   0.1441545  16.0172104  62.6000541  -0.2786952
 109.1568089  47.7003479  85.8688164 108.7698841  47.1389627  86.5406513
 108.5652447  48.4508705  85.8140087 102.3684216  20.0483847  89.6500015
 102.6885796  20.9481597  89.7143173 101.6421318  20.0964475  89.0283775
  95.3604603  32.5294828  88.0908203  94.6638680  31.9121480  88.3141708
  95.3520775  33.1682277  88.8036823  96.8752193  82.9831219  22.0973587
  96.5263939  83.8549900  21.9119072  97.2600842  83.0598450  22.9704142
   0.1752123  49.1540432  21.7060208   0.9016126  49.1701603  21.0828733
  -0.0701642  48.2306480  21.7640138  78.4418631  13.1575823  90.2877235
  79.2169333  12.9833233  90.8216953  78.0784559  12.2914839  90.1032162
   2.5138971  68.5360670  23.4455872   3.4072763  68.6057281  23.7821174
   2.2282457  69.4429255  23.3349347  95.3519726  41.9369125  90.5183029
  95.8574486  42.5417471  91.0613441  95.0476265  42.4709940  89.7845650
  30.4274464  86.0373878  19.7949088  30.9635210  86.8098450  19.6155691
  30.8742642  85.3245163  19.3383932  68.5645199  51.8316793  93.2708168
  69.4397736  51.4474487  93.3211040  68.6534548  52.5487804  92.6430607
  28.0446410 100.0598621  77.9278708  27.3151493  99.7681808  78.4746790
  28.7865281  99.5270538  78.2141304  77.1787119  22.8847504  93.0830383
  76.5246534  22.1879745  93.1373024  77.3083830  23.0189466  92.1442127
  53.3640146  42.6881599  79.9203444  54.1994715  42.4618244  79.5116663
  53.1125879  41.9009161  80.4033184   4.1544357  74.9489069  44.0634012
   4.1059014  75.2627373  43.1604099   3.3996341  74.3675613  44.1558170
  95.5955982  10.7316589  76.7644548  95.3651237  10.2464497  77.5567245
  94.7811985  11.1597192  76.5003347  31.0832500 105.3701973  89.4913101
  30.2499104 105.8118248  89.6548271  31.7460179 105.9857178  89.8045158
 112.6240540  62.8005123   1.1408448 112.0855331  63.4668636   1.5676914
 111.9938660  62.1671247   0.7974556  75.6575537   4.1091162  62.3026133
  75.3808689   3.6692140  61.4987707  75.4204321   5.0265658  62.1673632
  12.9581082  13.2144773  78.6032534  13.3336639  12.9240942  77.7720690
  12.2507811  12.5932670  78.7765074  88.3396053  50.0584984   3.3703241
  88.6112404  50.5144262   4.1669264  87.8278065  49.3128300   3.6838198
  97.0669174 102.6214695  23.0594921  96.6623211 103.1103992  22.3429132
  96.8442440 101.7076778  22.8816700 105.9564018  10.6965780  79.3841028
 105.8022594  11.4211833  78.7779522 106.5728474  10.1266706  78.9242840
   5.0279099 102.1294594  10.1394200   5.0745332 102.9999447   9.7440666
   5.9412825 101.8844891  10.2876580 115.4167652  51.8438387   5.5000228
 114.6272755  51.9792652   6.0240501 115.7481766  50.9913111   5.7821459
  91.9891834  30.0235939  13.8148677  91.1251640  30.4303026  13.7493920
  92.0944118  29.5505571  12.9894006  85.8140755  11.0744548  95.6070614
  85.8030796  11.6999996  94.8826218  86.2595177  10.3050327  95.2523708
 115.0048733 102.0802212  15.3455341 114.7084713 101.4336395  14.7049725
 114.4265175 101.9546127  16.0978389  84.5419312  26.5856290  73.6124659
  84.7692394  25.6600833  73.7015152  85.2430916  26.9538045  73.0748272
  86.5132999   9.9945658  76.7404318  86.8916035  10.7781291  77.1393681
  87.2669888   9.4381875  76.5438652 106.7562103  53.6707592  57.3901463
 106.6669941  52.8636503  57.8969526 106.9806862  53.3758307  56.5076160
  36.1244726  88.2981777  16.8885255  37.0363593  88.1338215  16.6483533
  35.6239986  88.0540276  16.1099696  11.8760407  59.9157953  17.1050763
  11.0528970  59.5341873  16.8000495  12.0730186  59.4445848  17.9146385
  28.3369899  68.3912706  41.0148811  27.7005506  69.0889168  40.8584595
  28.0963087  68.0348158  41.8700075  69.1795444   5.2242124  92.0453072
  68.7306595   5.9273058  91.5758514  69.2845201   4.5304361  91.3942432
  53.8692856  84.9509430  86.5642262  53.4769583  84.9224281  87.4368572
  53.1696892  84.6634769  85.9775734  19.1384757 107.4162579  89.7836304
  18.7680805 108.0923176  89.2161942  18.5077739 106.6973782  89.7428608
  39.0194535  86.0912704  11.3887084  38.8256454  85.1670456  11.5451360
  39.8222184  86.0827637  10.8674335  87.8614902  28.8889146  93.2021141
  88.5119820  28.1914353  93.2834625  87.8392410  29.2977667  94.0673256
 111.2653255 108.8279152   7.0305508 111.8223381 109.5185566   6.6714001
 110.9574699 108.3453083   6.2633860 114.1951370   3.8735732  85.2972412
 113.8150883   4.2294320  86.1004543 114.5147133   3.0065918  85.5471325
  91.3223076  23.9720058  57.8452301  91.1492634  24.6505475  58.4978199
  91.2391663  24.4216681  57.0043278  14.6510756  95.6141090   2.9118258
  13.7491250  95.4863548   2.6178932  15.1118040  95.9373188   2.1375516
 104.9470997   8.9403164  87.7380180 104.5955467   8.3416510  88.3969975
 105.8938885   8.9207727  87.8774548  61.5145063   7.2413915  17.3403728
  60.5964375   7.1767497  17.0772946  61.8563414   7.9805160  16.8373084
  84.2414093  49.5784330  70.1857185  85.0003147  49.1847754  69.7552252
  83.8971996  50.1993561  69.5436859  18.2910585  15.8714962  70.9599972
  18.4705925  15.2271163  70.2753258  17.8524709  16.5897131  70.5038834
  27.9378557  51.6799927   4.0381336  27.9955721  51.9216204   4.9625343
  28.0164456  50.7260323   4.0345713  85.5935860  22.9435515  91.6991425
  85.7168198  23.8546610  91.9654560  85.2291012  22.9994178  90.8158112
 109.6079922   8.8845110  41.0050058 110.4565144   9.0363097  40.5888367
 109.2562675   9.7613961  41.1586142  39.8350048 100.4791069  67.8073549
  40.7570744 100.7025146  67.6804447  39.3579555 101.1279011  67.2899437
 109.7963142  71.2628460  89.1516399 109.7239494  71.3689661  90.1001835
 110.5825520  70.7307386  89.0294552  24.2108727  82.3834419  -0.3105005
  24.3847942  82.7490616   0.5568574  23.3479023  81.9771004  -0.2304941
  26.0730886  65.8850670  12.0007491  25.6163263  65.8079433  11.1631024
  27.0017362  65.8762026  11.7688763  79.4868946  14.9663377  51.6058874
  79.3571043  15.8462656  51.9596052  79.6442080  14.4195676  52.3756456
  71.0566807 106.1670303  87.6699066  71.1811686 105.8743191  88.5727119
  70.2755499 105.7005787  87.3724365  68.5630083 100.8095074  77.4680471
  67.9375935 101.1323833  78.1167650  69.3393183 101.3557816  77.5911713
  71.2735415  16.4224935  57.5289583  70.6169796  17.1089196  57.6471853
  71.5345478  16.1849070  58.4187126  99.6486568  87.6485920   3.0866382
  99.9996185  86.8060112   3.3749241  99.7174644  87.6228142   2.1322627
  74.3084574  11.3070154  92.6699257  73.8516235  10.4679251  92.6110840
  75.2371311  11.0763359  92.6456642  40.7589817 107.4781036  81.0595894
  40.5340338 107.2783756  81.9682884  41.7153692 107.5169659  81.0525799
  10.1255012  54.2701721  86.5037823  10.4897976  54.3595505  87.3844242
   9.4284773  54.9250841  86.4653206  82.3085785   8.2647091  78.4870100
  82.3063660   8.3309108  77.5321054  81.6793346   7.5698042  78.6803770
  42.3411369  68.4068155   4.5821670  41.3864422  68.4673643   4.6156538
  42.6453304  69.2800856   4.8293540  99.2482567  29.3980908  90.1907253
  98.8746834  29.3782353  91.0717869 100.1127052  29.7926521  90.3059387
  25.2993774  82.9362392   2.3172130  26.2560105  82.9375172   2.3501304
  25.0535727  83.8501453   2.4607208  32.9971576  84.8361969   0.9363323
  32.5506902  84.0312862   1.1990650  32.3016834  85.4924011   0.8922404
  10.4244947  91.0154438  44.4325876  10.6987762  91.6189957  43.7421322
   9.5646393  91.3367748  44.7039366  67.6106691  28.4897017  86.5956306
  67.3121691  29.2983079  87.0119095  66.8738317  27.8859401  86.6893196
 102.5448513  88.8247871   6.5027303 102.2111034  89.5513058   7.0290613
 102.4778461  89.1331387   5.5990356 115.0334358  72.3863649   2.8004646
 114.7721386  73.2150793   3.2019401 115.0453949  72.5686789   1.8608642
  55.2383089 100.6247234  72.1392345  55.6921816 100.9888554  72.8992605
  54.3947077 101.0767841  72.1247816 108.4186840  20.7896161  76.4371872
 108.9707756  21.1981058  77.1039438 107.7936649  20.2618384  76.9342184
 107.7441692  11.4409995  91.1910057 107.7049065  11.5714073  92.1384716
 106.8856430  11.0846877  90.9624958  15.7041132  84.1007805   4.8167273
  15.5574751  84.1844273   5.7589233  15.4527295  83.1996441   4.6142787
   3.0362582  36.7055464  87.5380325   3.5090709  37.0375633  88.3012199
   2.1652451  37.0964217  87.6072025   5.5462909 108.8922501  21.3993382
   5.6078809 108.3471012  22.1837139   5.3996193 108.2705307  20.6864667
  68.7065744  20.8167386  90.5266571  69.3573046  20.2523994  90.9441566
  68.9176559  21.6968608  90.8382034  73.8100529   5.2226347  86.9723797
  73.4471846   4.7406179  86.2292671  73.3138227   4.9073166  87.7277374
   1.2750752  25.0398374  76.8422079   0.5062249  25.4930544  76.4962387
   1.7561634  24.7565770  76.0646820  97.7859592  42.7225113  95.0955677
  97.8960705  41.8669415  95.5104256  98.6384678  43.1469536  95.1919937
 117.8708172  34.8225784  72.3813868 117.3204994  35.1728415  71.6808939
 118.1078434  33.9443851  72.0833445  38.4839082  90.9472370  82.3631573
  39.1528082  91.1622906  83.0132008  38.4100819  89.9936676  82.4019146
 107.1190357  20.6170797  80.6086540 106.5970993  20.6659365  81.4095497
 107.0681286  21.4970946  80.2355385 110.0868034  63.9355421  81.0922241
 109.9941921  63.1225395  81.5888882 110.6084824  64.5041227  81.6586208
   9.4184434  77.1539116   8.6489242   9.8166788  76.3928270   8.2265633
   9.9222881  77.2719002   9.4541895  26.9205117  23.8984561  79.9490356
  27.4163389  24.5021296  79.3958950  26.0306430  24.2511082  79.9507141
  41.2973118  56.2200308  22.4691796  41.6996050  56.9963408  22.0796466
  42.0194530  55.7709885  22.9086161  14.4265103  66.3425779  21.9608974
  13.9385247  65.5191231  21.9654918  13.9798260  66.8893051  22.6072669
  16.4546025  98.9679527  15.2196991  16.6705096  98.0589104  15.0117064
  17.0464325  99.4856167  14.6738148  80.4607391  35.9376860  92.4229145
  79.9647522  35.1578355  92.1737957  79.8567820  36.6644812  92.2704887
 102.7300453   2.9964989  71.6379595 102.2264099   3.4372792  72.3222780
 103.6353397   3.2635796  71.7971706  53.7739086  32.3751235  67.2107267
  53.0771637  32.2262812  66.5714931  53.8531637  33.3277011  67.2611856
  40.0169086  96.2880421  18.5524368  39.6512604  96.3317204  17.6689065
  39.5719671  96.9877338  19.0306509  12.2929716  75.9891081   6.7851192
  11.4019072  75.6474829   6.7107588  12.6609397  75.8915854   5.9068710
 104.0901756  43.8728857  95.0706577 103.4619236  44.2907858  94.4816780
 104.9202538  44.3124819  94.8863888  79.2784691  49.7287416  66.9473505
  78.7553740  49.5635653  66.1629295  79.4907618  50.6609869  66.9017410
  57.2153139 105.5450153  89.0344429  56.6950703 104.7612572  88.8575077
  56.5684605 106.2416649  89.1461945  26.7006230  43.7992954  76.9948387
  25.7532096  43.6952925  77.0832872  27.0557356  43.4713984  77.8210402
   7.6589328  43.3195019  21.7545414   7.7293444  44.1280222  22.2620487
   6.8027472  42.9624128  21.9904780  89.3714237  18.5419536  86.8732357
  90.0508690  18.1161070  86.3505173  89.5256424  18.2312906  87.7653790
  74.7198915  32.9456282  83.2009602  74.8304892  33.7904501  83.6371613
  75.0754070  33.0812192  82.3226357  82.4082661  15.2254295  68.7615728
  83.3281803  15.1984751  68.4983826  82.4310875  15.1776874  69.7173071
  36.2569332  88.8014698   1.3599831  35.3940988  88.4253597   1.5340339
  36.8559027  88.0559635   1.4011513   5.7297665  26.9889522  89.1178036
   5.8975965  26.7210221  88.2143211   4.8492384  26.6633368  89.3045521
  94.7502899  18.7431431  72.6688433  95.0924301  18.6476970  71.7799902
  95.0581074  17.9623449  73.1291008  45.1689053  48.6187744  25.0699401
  44.8941612  48.7608385  24.1640902  45.5199003  47.7282763  25.0769138
  54.3147516   4.2059836  59.5605278  54.2826796   5.1614279  59.6087933
  53.5008097   3.9609441  59.1204214  27.6130700 111.0277271  37.0457578
  27.6047611 110.9153748  36.0952091  28.4119201 111.5250111  37.2211885
  16.7458642  54.5201206  19.3308878  16.9820201  54.1226673  18.4927392
  16.9285512  53.8394928  19.9786520 108.9081287  23.6602330  83.9277840
 108.9235783  22.7049899  83.8686085 109.8271370  23.9089680  84.0267277
  64.1423893  24.7961378  72.5229645  63.4333277  24.8076487  73.1658697
  63.7219286  24.5231557  71.7075300  70.7341480  44.5343399  87.1479797
  70.6917334  44.2914200  88.0728722  70.0421333  45.1867390  87.0397186
  65.7367611  96.4630508  80.9133625  65.5042410  95.5405807  80.8074760
  65.2444935  96.9143677  80.2276421   2.2039251  52.5582981   4.7813743
   1.8646161  51.7878056   4.3259165   2.6681405  53.0513191   4.1048646
 114.4598866  84.2189789   0.3298448 115.3649521  83.9188671   0.4136917
 114.1539955  83.8313103  -0.4901364  79.8479462  37.7669787  87.1360493
  80.6638432  38.2040668  87.3799515  79.6660089  38.0771041  86.2489414
   5.6576723  23.1248760  34.9657035   5.1776820  23.8104868  35.4302239
   5.0669122  22.8526926  34.2634559 107.1088696  40.1380205  72.9569101
 107.3722363  39.8184490  73.8198948 107.8408623  40.6840467  72.6700640
  42.5859451  81.6376591   1.2506814  43.4349298  81.2197399   1.3949101
  42.0661497  80.9738827   0.7974248  65.0222397  43.4784126  74.9634504
  65.5131626  42.7271318  74.6305799  64.9569845  43.3234215  75.9057617
  97.4246120  42.7104330  92.2416210  97.7248573  43.6102343  92.1134281
  97.3809910  42.6056004  93.1920624  90.2306652  14.3443584  74.0921640
  90.5332375  14.8034739  74.8756790  90.1369381  13.4330916  74.3697262
  93.2119942  30.6081557  88.3136272  92.6885796  30.3690457  89.0785503
  92.5841713  31.0006571  87.7069950 114.4497871  68.8310909   5.3816450
 114.6109962  69.4642496   4.6821094 113.5298824  68.5879374   5.2773011
  27.0731497 103.1102848  38.1795573  26.4544678 103.5373116  38.7721062
  26.7971468 102.1938610  38.1649065 116.8645191 103.7028503   9.5672774
 117.5198650 103.7791252  10.2607727 116.1097431 104.1910362   9.8962486
  33.7103105  78.7867355  92.6257229  34.3883300  79.4355917  92.4372864
  33.8837957  78.5137510  93.5266209  74.2424297  13.5950184  90.8325291
  74.4790363  14.2675602  91.4712238  74.2139673  12.7832365  91.3389111
  18.5499609  78.4751749   3.5378683  19.3489873  78.7181377   3.0701524
  18.0729604  77.9173851   2.9233989 115.3001881  32.1992826  76.7699432
 114.5449638  31.9254375  77.2904110 115.9402084  32.4986506  77.4156809
  25.7564187  82.3794937  83.8986206  26.3661265  82.8905487  84.4308949
  25.8382869  82.7489376  83.0193996  72.2468042  23.7375998  61.8817091
  71.6116810  24.4169641  62.1082354  71.7294550  23.0633020  61.4413691
  22.7370811  41.8432093  18.7485349  23.6542058  41.7688847  19.0123308
  22.7595639  42.3701572  17.9497516  87.4363804  24.6966720  87.3394489
  87.3027897  24.6759892  86.3918400  88.3554554  24.9417877  87.4464607
  12.0293474  94.4394588   1.4847416  11.4677954  94.6519852   2.2302100
  11.4558458  94.5190144   0.7225091  86.2610817   9.6708608  88.6647511
  86.2365246   9.3057311  89.5492268  86.5754986   8.9513886  88.1172657
 100.5397511  28.3368301  95.3380299 100.2364349  28.0517912  94.4760609
 101.1063671  29.0866804  95.1566601 103.5334301  17.7599883  95.2755547
 104.2649937  17.3710477  94.7962189 103.3693981  18.5908008  94.8293781
  37.6027036 110.9900665  15.0404608  37.4918604 111.8864918  15.3572690
  37.4655771 110.4438210  15.8144438  49.2962170 107.9341412  84.8787880
  49.4762325 107.1041203  84.4373226  48.4896183 108.2514381  84.4726372
  51.9125116  91.0328433  96.3201851  51.2054706  91.6318175  96.0802844
  52.5353575  91.0952708  95.5960325 103.3456612  10.3706527  78.2308340
 103.2056332   9.4657767  78.5098076 103.9308643  10.7377326  78.8934231
  89.0425396  49.7015285  86.8854141  88.8861084  50.5954695  86.5810680
  89.0730476  49.7751617  87.8392887 101.0426235   5.0979644  96.4145660
 101.7317486   4.4705281  96.6329098 100.4052258   4.5889857  95.9136772
  20.7130647  72.7519178   6.3637590  20.7486176  72.2497988   5.5496079
  20.8765364  72.1059084   7.0509136  31.5038419  93.7983322  12.7428603
  31.6068029  94.2357349  11.8976939  32.2854519  93.2521725  12.8266788
  94.9205685  19.2271328  84.3334866  94.2180443  19.4553053  83.7246895
  94.4693756  18.8551378  85.0912952  43.4618473  88.2638550  26.6194272
  42.5578117  88.3284473  26.3115621  43.4707499  87.4839592  27.1743298
  40.3604794 111.0958385  96.0270691  39.9098587 110.8932590  96.8469048
  39.6909618 110.9849453  95.3520203   9.2311352  98.5453987  14.1165614
   9.5892340  98.9501572  13.3265197   8.6353242  99.2037868  14.4740009
  10.6552720  83.8131142  19.2887473  10.8328724  82.9006481  19.0604782
   9.9427044  83.7662125  19.9261487  42.4430799   1.5351915  30.3765965
  41.7815065   2.0049180  29.8687530  41.9789982   0.7767924  30.7311273
 100.0764084  33.2169700  96.1471081  99.3567562  33.7492347  96.4862823
 100.7746029  33.3179736  96.7940712  82.2949791  19.7152495  95.4363251
  82.4610424  18.9738131  94.8541451  83.1650734  20.0544405  95.6463337
 111.5214252  11.5223837  65.5882883 111.9798851  12.0285797  64.9176025
 112.0419693  11.6490221  66.3815260  49.4424021 110.8320900  88.6251259
  48.7479555 111.1153240  88.0303574  50.0377142 110.3243611  88.0737209
  65.2288246  35.9380913  81.2971020  64.6466780  35.8094478  80.5482388
  65.2217579  36.8835616  81.4463234   1.0643951  26.9279981  71.8864918
   1.9238552  27.3491502  71.8727255   1.2572864  25.9906435  71.9063377
  70.8067942   9.1634697  76.1338902  70.8581352   9.2282909  77.0875120
  71.6256857   8.7388569  75.8782578  81.8317318   3.4388909  34.0934563
  82.3462772   2.6840907  34.3793893  82.4793816   4.1279307  33.9451170
  96.2049007  13.0520415  88.3984852  96.9164562  13.6920381  88.3802795
  96.6355324  12.2207081  88.5976696  55.9839964  40.4315901   2.8906271
  55.0630093  40.1723671   2.8619912  56.3254452  40.1982450   2.0273811
 117.3351669  83.6091232  11.8491113 117.6827049  84.0598488  11.0795021
 118.0612087  83.6057472  12.4728847  69.2451000 106.5705967  50.6568575
  68.8935423 107.4217987  50.3959179  68.5044146 106.1195564  51.0620546
  20.6788325 108.9209843  12.5377154  21.2976265 109.3554592  13.1246984
  20.9090590 109.2428875  11.6661632  96.5833187  14.6463597  84.4194984
  96.9158077  14.2750156  83.6023235  97.2296238  14.3925500  85.0783539
  88.3407593  45.2203703  74.4588184  87.7052879  45.8073330  74.0490961
  88.2222176  45.3575134  75.3986979  69.8162127 102.4261951  83.4113407
  69.1579723 103.1210613  83.4006691  69.3116713 101.6170311  83.3281612
 100.6358719  87.2160149  22.2089601 101.3540745  87.7258682  22.5837421
 101.0097027  86.3469982  22.0630646  41.7417049  84.1527367   0.7062187
  40.8474827  84.1830921   1.0463339  42.0804691  83.3064938   0.9983596
   3.8473615  28.5018420  57.5799370   3.3618513  27.6930141  57.4177313
   4.2268068  28.3829117  58.4506321  45.7587719  30.0997496  65.4464579
  46.0306215  30.8005214  64.8537922  46.4624834  30.0465083  66.0931253
  67.7931070 105.0725174  77.3506737  67.7143145 105.3860474  78.2516289
  67.1482134 104.3682289  77.2849035  37.4877667  25.9027648  15.5493259
  37.1368074  25.6907010  16.4142466  36.9680285  26.6515088  15.2569449
   5.6083494 101.2957859  55.8173704   6.4485466 101.4181232  55.3754044
   5.3689909 102.1706486  56.1232376  59.0859747  93.5583115   5.4303318
  58.5715437  92.7897835   5.1834220  59.0564585  93.5690117   6.3870168
 101.9405270  35.8963466  75.0080347 102.5765610  36.0910177  74.3197155
 102.0372200  34.9570346  75.1648045  26.6625094  72.4220800  10.8046305
  26.9750881  73.3184290  10.9274733  26.1846590  72.4465656   9.9755996
  18.3297348  70.1228666   2.6184979  18.5943997  69.7270823   1.7881118
  19.0731442  70.6706810   2.8704280  80.4187202   8.8017613   2.9065350
  80.9800434   9.2907178   2.3048115  80.4623985   9.2926055   3.7271419
  61.8346596   8.4370798   3.9504921  62.5360489   8.5690975   3.3126411
  62.2823524   8.4071296   4.7960120 106.7207432  66.2112236  78.9158678
 106.3370895  66.0865164  78.0478287 107.6653004  66.1582804  78.7701130
   5.4268235  96.8096256   2.2662638   5.9005421  97.4866199   2.7494898
   6.1038005  96.1877728   1.9993766  81.1133671  77.7079296  93.7862587
  80.4307556  78.2550764  94.1747093  81.4604759  77.2008944  94.5201969
  35.1879311   9.5201504  96.1342812  35.1287746  10.4490614  95.9109974
  35.6081176   9.1174334  95.3743553  80.6335926   5.7456982  78.6044931
  80.1288319   5.8444625  77.7972126  80.9677410   4.8493835  78.5699034
 113.4875107  30.4737210  73.6296749 114.3065453  30.1359701  73.9920855
 113.0093193  29.6930432  73.3502007  83.0397606  29.2231846  75.3904438
  82.3199368  29.8425674  75.2702379  82.8653622  28.5273576  74.7566938
  78.4591675  63.2765102  85.9572506  78.6329269  64.1952896  85.7525921
  78.8862562  63.1343794  86.8020153  29.0257764  17.7537191  85.6912518
  29.0230632  17.5598502  86.6286182  29.3285179  18.6600375  85.6349945
  77.9213715  57.0894527  76.2524748  77.1521187  56.5315485  76.1374664
  78.4256601  56.9709921  75.4475546   1.0054153 108.8186455  27.0823073
   1.0471924 109.3364716  26.2783551   1.7459616 108.2156277  27.0175505
  85.6092358  32.9874611  90.8100414  85.3231239  32.6482964  89.9619007
  85.3838730  33.9174008  90.7845020  11.8222463   3.6096045  63.6334753
  11.3911855   3.0741534  62.9673576  11.2626398   4.3814164  63.7193727
  58.2231903   5.8431995  17.9723155  58.7277126   5.3053087  17.3621035
  58.2982111   6.7324650  17.6261795  64.2133284   5.9732360   4.5918986
  64.6088743   6.7506105   4.1976082  64.3530607   5.2800196   3.9467952
  65.9102488  51.9441366  69.7268057  65.9631109  51.4897966  70.5676460
  66.0716677  52.8630972  69.9405527  99.8596954  39.0478826  33.9506721
  99.4377995  39.7376895  33.4384203 100.0450706  38.3567667  33.3148813
  67.1353292 106.0702705  46.3538694  67.1214533 105.4281235  47.0635748
  66.2126493 106.2173557  46.1458731   7.9976654  39.1220903  70.4616261
   8.3768517  38.6098051  71.1757755   8.6068296  39.8502660  70.3395033
  83.9123726  10.6098092  85.3727913  84.4740105  10.3448927  84.6443558
  84.1112995  11.5369105  85.5037212  24.3692327 100.4003048   5.1711529
  25.2866149 100.5225182   4.9268109  23.9387369 101.2105560   4.8984033
   8.7396395  59.4284105  86.5642738   8.6757112  60.3287697  86.2456894
   9.6798760  59.2709875  86.6503334  99.0021420  51.1779737  77.4117517
  98.0989456  51.0095692  77.1432161  98.9823341  51.1221218  78.3671188
  61.5437365  45.3123903  94.8488617  61.0039806  46.0319710  95.1761246
  61.3202524  44.5705223  95.4109287  87.6198101  24.1999650  84.3358803
  87.0510578  24.1149211  83.5706997  87.4634743  23.4016991  84.8404217
  17.0215893  92.2338676  16.5690815  17.8493202  92.4589825  16.9938350
  17.2050786  91.4173222  16.1045206   2.7254248  60.5122185  93.5437870
   2.7045721  59.6132231  93.8718128   2.1616590  60.4981089  92.7703476
  25.2093172  98.4909916   3.1344044  25.9805918  98.8767624   3.5497892
  25.5126166  97.6449680   2.8050393  96.3450813  24.1672063  74.6534824
  96.6161251  23.5974598  73.9336538  95.6706238  24.7297120  74.2727900
  31.6356206 106.3886452   7.0124274  30.9119272 105.9148121   6.6025752
  31.2408423 107.2007656   7.3299885  75.4132748  29.0700579  79.9873686
  75.2346373  28.1299448  79.9648762  75.3953075  29.2950797  80.9175682
  75.0925779  77.1741486  70.8196020  75.1292562  77.3041487  71.7672253
  76.0090923  77.1629906  70.5437279  94.0392113  35.0321937  93.7343693
  94.7069550  35.6947231  93.5571480  93.2984734  35.5265832  94.0852356
 118.1357098  52.5260401  76.0141373 117.1906567  52.3742104  76.0071135
 118.2277298  53.4694433  75.8809090  65.9158611   5.7822359  27.3250437
  65.8506346   5.2638179  28.1270528  66.2544107   6.6295189  27.6144028
   1.1426503 109.9126911  -0.1053305   0.2224274 109.6577835  -0.0386530
   1.5311849 109.6256065   0.7210201  35.1294899  77.7041817  17.2086418
  34.3913174  78.1399202  16.7826533  35.8287692  77.7239513  16.5553045
  77.2693920  27.8923726  61.7830753  77.1507692  27.3535967  61.0008478
  76.3857746  28.0026722  62.1341896  94.6911240  24.7443128  23.1705546
  93.8319206  25.0595570  23.4509468  94.7190666  23.8332582  23.4628391
 105.4697514  50.4509068  83.7178135 105.9960651  51.2496471  83.6825466
 104.7107887  50.6396055  83.1659126 106.3694286  94.5909691   6.9611102
 105.9470463  94.2755699   6.1621451 106.7960262  95.4071999   6.7003161
  12.3604000  84.1187286   6.7343032  11.5365267  83.8920021   7.1656477
  12.3736751  83.5785294   5.9442133  33.9020920  87.7941799   2.0785515
  33.6456180  87.5504494   1.1891425  33.6472273  87.0438290   2.6154372
 116.1371994  35.8311558  65.0835276 116.1264706  36.5667868  64.4711828
 115.2389145  35.5005932  65.0765514  37.0804715 108.5363007   3.5508755
  36.8935466 109.4314289   3.8337964  37.2337747 108.6099243   2.6089042
  16.3825333  49.9395561  95.9434700  15.6563377  49.5169735  95.4848862
  16.4555943  50.8014250  95.5334854  23.6879873  92.9990864   8.2497346
  23.6171317  93.8659573   8.6494136  24.6299124  92.8464413   8.1741697
   4.7648808  68.5023212  86.5894985   5.6966591  68.4092999  86.3910866
   4.7228265  69.2350674  87.2039509   4.2541739   8.1345338  92.2586250
   3.9810812   7.6787287  91.4624500   5.1198369   7.7762282  92.4547768
   1.1184835 108.2174969  20.2999067   1.7044163 108.8267803  20.7489920
   1.7040716 107.5859451  19.8822188 114.8380470  33.3941865  93.1159592
 114.9267769  32.4455929  93.2083225 114.7640133  33.7164164  94.0142441
  72.9021835  18.6963832   0.1575849  72.1496391  19.1505933   0.5365321
  72.5193644  17.9806077  -0.3497083  69.6456480  11.8158114  10.9208977
  69.7067022  11.0770595  10.3152990  69.8460960  11.4400017  11.7781138
 102.1270084  18.5842991  70.0022984 102.8974628  18.0383492  70.1590395
 101.5702915  18.4381568  70.7671118  98.9663410 100.2663136  56.3960028
  98.0707836 100.5510426  56.2139416  99.5116615 100.8172894  55.8344984
  18.5994875 103.3442783   9.7141486  18.4017062 102.4099636   9.6496534
  19.3468428 103.3902931  10.3104484  49.0782404  83.6812210  14.9579954
  48.7714338  83.4098434  15.8231294  49.7485209  84.3405533  15.1375234
  37.1470022  50.2794266  89.3732834  36.4255762  49.6817064  89.5695019
  37.8605843  49.7083473  89.0888500  87.2782230  76.5256119  82.4524689
  86.3527870  76.5024567  82.6958847  87.6739216  75.8077335  82.9467297
  10.7498014  32.2091937  74.9071169   9.9653721  32.7289176  74.7316504
  10.7220972  31.5068793  74.2573357  85.0747395  18.4209490   5.1555306
  85.4284573  18.9094913   5.8987951  85.7672787  18.4542620   4.4956028
  97.4092579  53.3975029  78.3177853  96.6574669  53.6938190  77.8047228
  98.1628132  53.5469866  77.7467871  16.3136923  53.1139755  77.1889305
  16.8906605  52.7109241  76.5401697  16.6732526  52.8396082  78.0325365
 102.0438766  42.9583025  89.5571327 102.0348167  43.7353086  88.9981937
 101.1358166  42.6555729  89.5611858 109.5204830  49.2822361  81.6899490
 110.0893021  49.3072176  80.9205055 108.8463688  48.6396933  81.4687061
 115.9435844  49.2727661  81.5176773 115.3337288  48.7194538  82.0057011
 115.9639263  50.0956249  82.0062733  76.1023438   0.3582237  21.8389416
  75.9802115   0.3795002  20.8898020  76.8570245   0.9256695  21.9960952
  34.5935392  87.6036072  14.4104397  33.9248300  87.0675945  13.9841247
  34.1677332  87.9330826  15.2018762  43.5147142  90.6748486  24.3587613
  42.8540277  90.7067966  25.0506449  44.2773724  91.1138535  24.7354007
  59.8684549   8.1351936  12.3206031  59.8986387   8.6538863  11.5166891
  60.6714249   7.6145679  12.3000181  24.1583753  23.8636780  67.8304672
  24.0572095  23.5211825  66.9423819  23.6336541  24.6641898  67.8396702
  30.2185416  88.5001850  25.6286240  29.4677234  88.0170250  25.2835727
  29.9306846  89.4129848  25.6412554   2.3234768  72.7578735  44.3925095
   1.6408399  72.1264744  44.1654110   2.9835922  72.2411203  44.8545122
  92.6748180  75.6583023  92.1161366  93.3575439  75.2972269  92.6815891
  93.0732536  76.4366007  91.7266083  72.2359753  31.7327237  65.6808043
  72.6471090  31.4458179  66.4962101  71.3212776  31.4639044  65.7662535
 115.0923538  32.9725718  84.2555046 114.7176933  33.4671903  83.5266590
 115.6297684  32.2998786  83.8372898  75.1729631  47.5435829  81.6340923
  74.7107267  46.9191599  81.0749245  74.7219419  47.4900866  82.4766731
 115.8507824  27.2707844  80.5810070 115.1082516  26.7284298  80.8469772
 115.5704403  28.1673861  80.7647133  21.8824983 103.6650753   7.5664842
  22.0328474 104.5853138   7.3502105  21.8844080 103.6405182   8.5233676
  72.1248913   8.6083549  14.6068704  71.8672848   8.3729219  13.7155557
  73.0416107   8.3402640  14.6699488 103.4205341  59.0418339  59.4235325
 102.7088070  58.4145308  59.2963934 103.0613518  59.6925974  60.0266266
 112.6180267  26.7005372  94.9244976 113.4237289  26.1929679  94.8273182
 112.1463966  26.5607715  94.1033554  12.5117922  46.4899731  69.8269844
  12.1557438  46.8498898  70.6393385  12.6756811  47.2561598  69.2771387
  12.5298238  54.9382544  95.9107113  13.2155037  55.3098106  96.4657116
  12.7435577  55.2436876  95.0290871 105.3187180   1.7754063  60.6204033
 105.9959602   1.8964797  61.2859201 104.5026016   1.7166299  61.1171150
  90.1142406  29.7504711  67.7293110  90.7923031  29.1369128  68.0121613
  89.5096302  29.7973633  68.4699011  87.1392345  36.7613649  86.2961292
  87.5409698  37.5202155  86.7191982  87.1946621  36.0650468  86.9505787
  44.9305344 104.7439671   5.2893895  45.2681494 105.6307602   5.4152095
  44.5621967 104.7510147   4.4059250  77.0989943  25.4961538  14.4876838
  76.1754656  25.3144550  14.6617758  77.3982620  25.9764886  15.2596629
 115.9082985 102.7538872   6.6602379 116.1785030 103.5520172   7.1143389
 115.9591866 102.0696640   7.3276860 100.2358341  19.2788112  60.7361794
 100.4243374  19.0196049  61.6381264 100.8651447  18.7865829  60.2090073
  37.2331643  61.0644293  21.5748906  37.8970981  61.7399311  21.4366150
  37.7065754  60.3453875  21.9933319  40.5867529  18.8011885  11.3990569
  40.7380247  19.6822166  11.7413092  40.2919245  18.2969952  12.1574104
  19.4065893  76.1915064  41.0336208  18.6970305  76.2447739  40.3933716
  19.3908536  75.2826357  41.3335228  19.0823197  51.0459280   4.5795146
  18.1373107  51.1964798   4.6023712  19.4270611  51.7670012   4.0527898
   9.1050774  69.4525576  94.1269112   8.4881616  70.1730537  94.2554855
   8.5936409  68.7755060  93.6838913  70.1144266 111.1379337  87.4088097
  70.2710199 111.9214821  86.8817711  70.7720804 110.5111504  87.1073723
  99.8781967  67.8412533  43.3710575  99.1101456  67.2976542  43.1954622
  99.7219372  68.2018280  44.2438698  62.3486948  72.8421068  17.4360585
  62.5082684  71.9853592  17.0401466  62.8066254  73.4588861  16.8649924
   3.8846755  45.9250307  92.3816872   3.5533866  46.0129213  93.2754135
   4.0714896  44.9911022  92.2862530 101.8855476  31.5050721  72.7442360
 101.2427044  31.4024329  73.4459829 102.1669960  32.4176764  72.8088427
  66.1297846  11.4761078  27.3953605  65.3502798  12.0268750  27.3228550
  66.4867926  11.4482629  26.5076661 103.7423038  29.5761538  62.3160553
 103.5538578  28.6404276  62.2443676 103.2965279  29.8495126  63.1177998
  71.0431051  71.4191580   1.3957493  70.7692337  70.5136442   1.5415731
  70.9849501  71.5372467   0.4476433  67.5128555   8.8328528   3.1199634
  68.4636450   8.9433455   3.1152812  67.2348404   9.1133547   2.2480364
  90.6716347  31.0362625  61.2447643  90.7760334  31.2948680  62.1604347
  89.9560547  31.5836287  60.9213877  74.6466541  25.0943851  15.9725356
  74.7788095  25.9196997  16.4390361  74.3076754  25.3549528  15.1161301
  34.5896935  80.5908394  21.4752650  35.2870607  80.0781441  21.0665464
  34.9857330  81.4469242  21.6380501 110.8072758  29.6592069  69.7160721
 110.7580566  28.8405800  69.2224503 111.1587143  30.2943611  69.0921307
  94.7401619  29.4022679  93.9612675  95.0347137  30.1481318  93.4386253
  95.3740215  29.3456006  94.6762848 102.2356701  38.1357241  66.1132765
 103.1230259  38.3383203  65.8169746 102.3196316  38.0207276  67.0598269
 109.6323204  50.9806442  61.3983679 108.7360764  50.7682991  61.1378002
 109.7350502  50.5720520  62.2578621  96.2428570  19.4911313  88.5106468
  96.0313129  19.3033385  87.5961971  95.4106045  19.7619641  88.8982582
  97.1939182   1.5885891  53.7948561  96.3822746   1.7623205  54.2715979
  97.8819561   1.6714314  54.4551420  99.0927601  65.3696680  96.0108948
  99.9808884  65.5901718  95.7301044  99.1718769  65.2086353  96.9511318
 107.7070808  63.5674381  67.2494364 107.0023918  64.2089748  67.1595669
 108.4598446  64.0785694  67.5466156 102.1557236  33.0216002  43.4808302
 102.9909992  32.8408623  43.0496979 101.7961979  32.1568084  43.6785889
  90.0020027  37.3130107  93.3998394  89.7491741  36.4265919  93.6578560
  89.5050240  37.4803066  92.5990582   0.4858133  42.8678417  64.9343681
   1.2060428  42.9092407  64.3052483   0.7387973  42.1734762  65.5427170
 117.7095222  96.4039516  16.3928151 118.6057091  96.5858555  16.6756558
 117.7299404  95.4914856  16.1043477  43.6298180   2.8151399   3.8760293
  43.4934235   3.7576142   3.9728263  42.7549362   2.4618258   3.7148449
  83.8315868  14.9557972  93.4736347  83.3661270  15.5280066  94.0836811
  83.5923004  15.2843976  92.6070309  80.6889248  25.1137400  77.2469044
  81.3376713  24.7853541  76.6243839  81.1417770  25.8130431  77.7182150
 117.4524784  51.4523125  18.9795184 116.5040588  51.3793516  19.0863419
 117.7188683  52.0947266  19.6372235  34.2454827 110.5808805   7.7613550
  34.4871866 111.0636591   6.9709527  34.1333735 111.2566788   8.4299058
  55.5023861  81.2670517   8.1809676  55.1065779  81.8611908   7.5433439
  56.0327864  81.8346596   8.7401801   5.5142951  53.2583761  60.2228212
   5.1338089  53.1503391  61.0944796   5.7384378  54.1876221  60.1728249
  41.6718578  69.4217777  16.4633322  41.0063982  69.2642450  15.7935750
  41.1879969  69.4100761  17.2891486   2.1144775  46.0308695  86.6990376
   1.4649941  45.5482197  86.1877155   1.9492158  45.7687950  87.6047039
  51.6024303  51.0558987  35.7045126  51.6157055  51.9326878  35.3207231
  52.4196672  50.9987497  36.1995769  17.6519871  24.3505096  76.5313053
  17.0297217  23.9805436  77.1575212  17.1963274  24.3131685  75.6903505
  20.1794624  73.9677095   2.9452336  19.8805797  74.4412899   2.1689454
  19.7342563  74.3986177   3.6748517  29.0694594 111.0741234   7.2157687
  28.3543229 110.7868290   7.7834606  28.8195205 110.7701206   6.3432181
  23.1291986  87.5783062   2.9213974  23.6812019  87.4584293   3.6941537
  22.3818278  88.0860901   3.2373589 104.3949413  47.8969145  95.0561714
 104.1560841  47.7746201  94.1373539 103.6458969  47.5569439  95.5456543
  12.9184425  99.9054623   2.9035670  12.2426188  99.3974400   2.4547747
  13.3365202 100.4142570   2.2088966  23.9009809  66.6981316   9.3563658
  23.7191844  66.9085741  10.2722788  23.2452369  67.1906424   8.8627416
  82.1187210  32.8155899  89.0860653  81.7641544  33.4056282  89.7511673
  81.6664219  33.0639935  88.2798672  21.1196256  93.1261921  10.9900320
  20.9756064  92.2827339  10.5610085  21.6056585  92.9102135  11.7858684
  25.5125523  23.0315995  91.5947437  25.3724742  22.2162199  91.1133289
  24.6554184  23.4576702  91.5987301 109.8382282   8.2078350  65.8618689
 109.1890526   8.9112496  65.8590317 110.3057861   8.3167559  66.6899729
  70.6589031 106.4443684  92.8702164  71.5198755 106.7757511  92.6149654
  70.0421476 107.0916653  92.5283813  17.4890339  91.9807911   6.5223193
  17.5872481  91.2948513   5.8619618  16.5601015  91.9605827   6.7523348
  61.0820866 102.9283619  29.3999171  60.9284878 102.2253418  30.0311041
  60.2082300 103.2599068  29.1933179 117.5566483  29.0537024  77.9978085
 117.1875858  28.2206750  78.2912207 117.4711418  29.6333957  78.7546921
 112.1058750  32.4181223  52.0915174 111.5167809  32.0451331  52.7473259
 112.9547691  32.0160842  52.2758198   7.1523988  60.6134892   0.3488973
   6.2005943  60.5713034   0.2565928   7.4383569  61.1741734  -0.3722793
  67.0994806   3.2102913  14.4573426  66.1947060   2.9204625  14.5740116
  67.6128960   2.4024928  14.4671416   1.4314018  25.0237393  92.3650360
   2.1114022  25.4532480  91.8460369   1.7149310  25.1372552  93.2721996
  10.3532946  81.5494251  23.4661436  10.2797413  81.9148827  24.3477678
  11.2333369  81.1742020  23.4350634  78.9460087  16.0013628   7.6313573
  78.9950037  15.6156933   8.5060519  79.8456669  15.9717655   7.3058140
  83.5447407  50.0248957  86.1374855  84.1278934  50.0596714  86.8957520
  83.2159996  50.9192991  86.0469437  91.5811253  43.6790419  84.7151852
  92.4715710  43.5144997  85.0254536  91.6402435  43.5974026  83.7633133
  83.8605881  27.6284480  20.7932043  84.3605804  28.2793617  20.3007030
  83.6289406  26.9635439  20.1447654  22.1443868  93.1328773  13.5915446
  22.2871852  92.4400997  14.2364383  22.9232192  93.6854553  13.6571968
  15.0960708  90.8661270   5.7689875  14.5941615  91.0157681   6.5701902
  15.2904522  89.9289322   5.7796544  48.6920118  90.7796097   7.0995367
  49.0658760  91.6245365   6.8494415  49.0719080  90.5943871   7.9583752
   1.8507916  66.0642862  48.2025957   1.7174529  66.9373703  47.8335714
   0.9664755  65.7300282  48.3525562  75.8415031  86.6132355   6.2595004
  75.7925272  87.4119568   5.7342494  75.4657364  85.9344769   5.6988674
  27.4850059 108.8723373  11.1020720  28.3842134 109.1497231  11.2773347
  27.3600769 109.0409088  10.1681507  46.1212444 100.8381367  21.6249228
  46.1775446 100.2138901  20.9014726  46.6722250 100.4605198  22.3105335
 100.5508900 100.5944061  82.6961708 101.4794922 100.8086681  82.7857208
 100.4164886  99.8577213  83.2923794 107.1179485  54.0789986  93.6561298
 106.2735844  54.0804911  93.2052708 107.7617359  54.2065859  92.9593563
  73.2468081  19.3410230  14.3401504  73.9462996  18.7662935  14.0292990
  73.5129833  20.2162504  14.0584397   6.3028168  57.1699123  95.9161675
   5.4186844  57.1671772  96.2829713   6.8658280  56.9126861  96.6462911
   3.2401800  55.8243799  84.3212509   4.0483600  55.4577732  84.6799660
   3.0106497  56.5325212  84.9229813  -0.0347330  91.9628811  45.7656956
   0.4074797  92.6761913  45.3053999   0.3853832  91.9357586  46.6253471
  58.5526419  99.9283981  22.3578095  57.9383898  99.2722702  22.6870847
  59.3352365  99.4285870  22.1255064  89.6990108  28.8993597  28.9374399
  90.1167870  29.1047716  28.1010795  88.9316177  29.4706511  28.9685392
  44.9955559  15.0387836   9.5574570  44.1370773  14.6159756   9.5355284
  45.2695370  15.0722575   8.6409169  62.8664637  15.4447627   7.3971742
  63.6167097  14.9434590   7.0777035  63.2381725  16.2826133   7.6729858
   8.7058139  44.8957300  68.9456129   9.4156414  44.9591637  68.3065891
   9.0420812  45.3428698  69.7222900  11.9473290  39.2699194  48.8961315
  11.7129183  38.7448096  49.6613407  11.3925457  40.0473261  48.9600563
  89.2461586  28.2587481  85.6796360  88.3919048  28.6875415  85.7308388
  89.0484715  27.3628449  85.4066753 111.5757084  44.3380404  90.0496578
 111.4936829  45.0363874  90.6991196 111.6795635  43.5399914  90.5678844
  30.1266956  63.6851072  29.8222637  29.5943594  64.4547272  29.6209264
  29.8732638  63.0393744  29.1626930  31.7680216 102.3375320  24.4501734
  30.9137535 101.9307137  24.5949483  31.5827894 103.2757759  24.4100928
   8.3850765  22.3471332  58.6679649   8.1481111  23.2741046  58.6395788
   7.5677836  21.8851662  58.4812784  83.7177277   8.7156826  66.0780764
  83.4750462   8.7262982  65.1522112  83.0134296   9.1938055  66.5157890
 117.8718732  57.4125814  82.7870655 117.9112895  56.5658569  83.2317352
 118.7879612  57.6605463  82.6624489   0.6270741  71.9058800  62.7421951
   0.7218523  71.4119387  63.5566092   1.3191214  72.5660515  62.7805471
  42.0723486 103.4656620   5.7335180  42.3422956 102.8309441   6.3972193
  42.1332979 104.3133259   6.1739475  44.6327543  65.5431843   8.0112535
  44.1573524  64.7491980   7.7666956  45.5240774  65.3956604   7.6950079
   5.8356386  45.6538248  88.9275837   5.8286357  45.7580376  87.9761028
   5.1861942  46.2826920  89.2422009 105.2428722  52.7150869  12.8183174
 105.2214241  53.3598614  13.5254526 104.8414421  53.1628847  12.0736253
   7.0185226  67.0946121  95.7554913   6.2564790  67.2759104  95.2053547
   6.9118524  67.6730919  96.5106201  89.9519825  66.1427927  75.7037830
  90.7973194  65.8162642  75.3955173  90.0248814  67.0949936  75.6387711
  79.0724754  18.3061922  22.9612899  79.9460316  18.1446874  23.3177304
  78.4877539  17.7922571  23.5182500  96.7378616  73.3986855  89.5468044
  97.0064449  72.5175476  89.8069763  97.4853325  73.7422037  89.0573978
  66.3795519   9.2221087  11.8697155  67.0067215   8.6638415  11.4101219
  65.5288887   8.8179725  11.6986191  36.2685156  90.9380817  23.5152340
  35.5527568  90.7571030  24.1244698  36.4325476  90.1000786  23.0827045
   8.8501102  80.7651806  94.3641186   9.1400146  80.2632904  93.6023521
   9.3775010  81.5636158  94.3397427  69.8386526 110.8009720  30.8097363
  70.6250477 110.4673004  30.3779006  69.6567249 111.6305923  30.3683019
 100.6922817  44.9676704  60.8343029 100.5613422  45.1431704  59.9024820
 100.3946400  45.7650185  61.2723351  77.8429174   1.2133043  12.7075076
  77.0302534   1.0253999  12.2379327  77.9060030   0.5196781  13.3641160
   7.3472023  99.8691463   8.1122708   8.1500876  99.4756317   7.7705824
   7.1736932  99.3927670   8.9241743 108.6881733  52.6244307  74.0364790
 108.5226250  52.6738119  74.9779606 107.9050922  52.2074127  73.6771488
  17.4661565 111.0568142  23.0631256  17.1326339 111.6875267  22.4250102
  18.0459297 111.5696335  23.6262488  10.5691516  60.5498886  76.3354874
  10.9314871  61.4031410  76.0969400   9.6325552  60.7109165  76.4498997
  56.2992954  34.3568087  21.8108010  56.8906498  33.6607885  22.0973039
  55.4228354  34.0108919  21.9792938  56.5484190 111.0170460  22.7128673
  57.4041414 111.3034248  23.0321717  55.9498453 111.1966991  23.4378982
  55.6568718  13.3394504   4.6700987  55.4792309  12.4194908   4.4742680
  54.8008490  13.7072170   4.8896569  45.8319283   6.9591820  32.2722650
  46.6422081   6.4817876  32.4505210  45.3788996   6.9851929  33.1150723
  56.5674400   1.6583750  20.9643865  55.7397985   1.9565569  20.5871224
  57.2374105   2.1559583  20.4955769  58.5047340  96.0588932  44.3090487
  58.6490536  96.9303989  44.6776819  59.2043686  95.9526062  43.6644983
  82.9944324  21.0052514   8.2969689  83.0474567  21.4546824   7.4535036
  82.0707512  20.7703161   8.3855307  44.7545004 101.6029072   5.7806164
  44.0206766 101.1202908   6.1611652  44.6231270 102.5058270   6.0699153
 110.7370853   7.6539546  19.4690716 110.2347660   7.5103945  20.2711272
 110.0817776   7.9033345  18.8174486  19.4627547  90.4612541  36.9979453
  20.2373886  91.0182285  37.0750546  19.3238962  90.3733063  36.0549641
  90.3961849  13.7786603  10.6661057  90.8143997  14.4727707  11.1755502
  89.9423122  13.2438171  11.3173950  94.6158600  61.6022110  56.5853930
  93.9536285  61.8316269  57.2373581  94.5531940  62.2939062  55.9267044
  46.1794090   2.5087234  59.5113230  45.3739882   3.0106044  59.6364164
  45.9803820   1.9124445  58.7894726 106.8221474  89.0962219  55.0589371
 107.1541119  88.2004642  54.9985027 106.7262840  89.2532635  55.9982872
  78.8198185  43.1733704  87.8534031  79.2532921  43.3574820  87.0200729
  79.5372629  43.0639553  88.4775352  13.8168120 100.6416988  18.4475803
  14.5124698 101.2922287  18.3521938  14.2774677  99.8042107  18.4990525
  24.0050912  51.4910984  56.8609762  23.7176204  52.1731663  56.2540388
  24.2497063  50.7568455  56.2977076 106.1167908  52.1509933  73.1133461
 105.8924675  51.3373899  72.6617241 105.4056835  52.7520609  72.8913593
  86.5532970  17.7899373  17.8970158  85.7618618  17.5639284  17.4083662
  86.8334961  16.9651628  18.2938361 109.4925117  33.4135175  88.7967110
 108.9866161  33.7503672  89.5361900 110.3357410  33.8621759  88.8591766
  59.8556805 106.8719196   0.6960404  59.2402840 107.4757004   0.2801485
  59.9762869 107.2228909   1.5783682  45.2747107  21.8583155  11.9193017
  45.6942272  21.0292339  11.6893899  44.6081018  21.6189814  12.5631845
  57.3204660 109.7843552  35.2382898  57.4271536 110.7162094  35.4293680
  56.6995144 109.4742584  35.8974481   8.2479274  55.0423145  79.5795536
   8.1633627  55.9047365  79.1729736   8.3296490  54.4370365  78.8425398
  75.9735775  63.9862776  92.3420334  76.3984966  64.3656301  91.5727711
  76.5829992  63.3130503  92.6446915  59.8522186   8.5587502   1.9871022
  60.3738213   8.1968153   2.7034569  59.0534592   8.0313057   1.9821784
 113.1791973  45.3836679  71.8217707 113.8825035  45.1981068  71.1995459
 113.1025410  46.3377905  71.8190336   9.6898091  53.5337496  77.7034187
   9.3535376  52.6478195  77.5681877   9.4018877  54.0197659  76.9306850
  52.8511763 101.6806221  31.3687992  52.2552013 101.0856819  30.9137273
  53.6157990 101.1427498  31.5744066  52.0221091  -0.0842812  25.7505989
  52.8790319   0.1046989  26.1329579  51.9417417   0.5349014  25.0250793
  52.6275873  79.8308229  13.3350503  52.2035170  80.1829910  14.1175914
  52.2707605  80.3505802  12.6148009 100.5303383  25.1216650  80.3893280
 100.0307465  25.8233905  80.8067226 100.0563240  24.9402118  79.5777702
  22.4462032  51.4809513  70.0477839  23.2650709  51.9516373  70.2031565
  21.8578625  51.7900324  70.7366657  37.0106649  18.9210141  12.2757494
  37.6837134  18.2405496  12.2900712  37.4524570  19.7019291  12.6092517
 101.5366650  95.3542805  79.4330835 101.0024166  96.1222553  79.6356201
 101.6897011  94.9384499  80.2815533  89.9391651  32.5253367  69.6093273
  89.5870590  32.0122838  70.3366661  89.8149300  33.4360862  69.8764038
  69.7288418  29.8402882  14.5050991  69.8710585  30.2594137  13.6563694
  70.2263498  29.0240407  14.4555020  45.1227236 105.4300117  32.4504709
  44.8177052 104.7574997  31.8414426  46.0509586 105.2342892  32.5781536
 114.7435856  74.7046566  74.8592758 114.0715981  75.3604794  75.0451946
 115.5716801  75.1641035  74.9985552  81.8308163  26.4406013  74.6002388
  82.7187824  26.4088655  74.2442274  81.5350723  25.5303192  74.5877218
  74.0652752  15.4158640  15.5946898  74.8590136  15.7478631  15.1751769
  74.1556787  14.4636250  15.5586314  93.8807583  47.0536947  92.9848480
  93.4527588  47.4494267  92.2256088  94.3014431  47.7878761  93.4323311
  54.9109840   9.2503738  37.9718161  55.7170773   9.4580716  37.4992633
  54.8290491   8.2994521  37.8992462  73.2385206 101.4755058   1.5943915
  72.6949310 101.6514683   0.8264229  73.2755756 100.5205154   1.6478817
  65.9900570  23.2517028  32.8797674  66.7334700  22.6489973  32.8976560
  65.7759762  23.3404613  31.9510460  25.7814479  71.7001677   5.0740194
  25.6076193  70.9463215   5.6376946  25.1867628  72.3793650   5.3922468
 102.7674770  65.0559855  61.3448048 103.3486176  65.7657623  61.6181564
 103.1683826  64.2655182  61.7062807  54.0446806  23.9390421  18.0020785
  53.9121819  23.0790257  17.6032686  53.1617498  24.2944026  18.1039619
 117.1038723  42.1478415  85.6537819 116.3021374  41.9933891  86.1533737
 117.4447346  41.2722206  85.4711819 104.2948818  42.6702499  79.8485041
 105.1122761  43.0476093  80.1736069 104.1413116  41.9109631  80.4107666
  54.1526413  94.7731018  16.5696073  54.9214220  94.2207813  16.4276457
  54.1837454  94.9921131  17.5008965  35.8499646 108.2455635  27.8864217
  36.7419839 108.3507252  28.2172918  35.4788136 107.5413322  28.4179711
  66.5041637  14.2116070   0.6814398  66.8360567  14.2875934   1.5760361
  65.7039928  14.7369075   0.6774127  24.5445204 101.9591331  23.8610482
  24.1796327 101.3189602  24.4720030  23.7792993 102.3901463  23.4803987
  72.8287601  89.3521786  18.5554242  72.1231365  89.3342209  19.2019558
  73.1703901  88.4580421  18.5488474  85.4682827  93.8177776  92.3757362
  86.3430691  94.0412045  92.6936436  85.6107712  93.0833149  91.7786598
  53.5541201 109.1603947  90.4083633  52.6943970 108.8448620  90.6868362
  53.4330416 109.4078350  89.4916534  61.2067080  74.0316153  46.1248732
  62.1290541  73.9953804  45.8715010  60.8512306  74.7698879  45.6300735
  60.9350252  13.1595290  71.7343569  59.9944210  13.3338881  71.7012930
  61.1597729  13.2329893  72.6618958  89.2120457  15.3789473  90.5852890
  88.7303162  16.1485898  90.8883190  89.6345615  15.0355625  91.3725662
  39.6047878 105.5135441  72.6607895  38.9268231 105.9487438  73.1777048
  39.6730447 106.0395145  71.8639708  52.9023409 110.6347942  57.2655058
  53.8309336 110.6986427  57.0421982  52.4731445 111.2659550  56.6878748
  34.2408776  90.1181984  25.2678871  33.6364269  89.5045757  24.8503423
  34.3842721  89.7556877  26.1421061  80.3723526  15.3597629  81.1620617
  80.0311852  15.3819275  80.2680016  80.9642029  14.6075606  81.1740017
   2.3022042  30.7908249  66.6187572   2.7326176  31.1958003  67.3717308
   1.5075701  31.3087082  66.4899731  95.7191849  27.0938039  91.1804676
  95.7745743  27.1881461  92.1313953  96.6235065  26.9515586  90.9008217
  49.0826845  99.6113205  88.8856506  49.5443487  99.7582626  89.7111797
  49.4029379  98.7626839  88.5798931  66.8400002 107.2573090  80.1631069
  66.0627222 107.0542431  79.6426868  67.2519159 107.9886723  79.7030497
  38.3930969  40.8011484  16.7130840  38.0219960  40.2193546  16.0497355
  39.1644096  40.3351879  17.0358670  56.6564751 101.7347813  85.6203079
  55.7474279 101.5560246  85.8609581  56.6982841 102.6870632  85.5329418
 117.9848576  36.4566112  83.0236626 117.3883533  36.2192011  82.3136997
 118.4269238  37.2460198  82.7111912  71.9584370 107.7049446  57.8032351
  72.6301908 107.0869732  57.5149822  71.2486267 107.1520138  58.1298351
  97.4178982  11.7852318  55.3946924  97.7590561  12.2972512  56.1279583
  96.8317986  12.3863733  54.9349594  97.2153282  20.4250693  84.9705887
  97.3259258  20.2720070  85.9089756  96.3850021  20.0004888  84.7548866
  15.9520245  59.0579367  54.8963165  16.4106584  58.2326698  54.7387600
  16.4616179  59.7106123  54.4161510 107.7667999  26.5511060  60.3276920
 107.4818897  26.6319299  61.2379265 108.5685730  26.0302091  60.3730392
  90.9221745  24.1216779  76.8481970  90.9507847  24.9819279  76.4294100
  90.0256538  23.8168693  76.7082644  58.8492155 106.2504387  91.1500549
  58.3602142 106.0056686  90.3644371  58.1979561 106.2370396  91.8514252
  85.7584667  15.7055700  61.6555309  85.0714779  15.3908515  62.2431040
  85.4875469  16.5940893  61.4245129  13.7070823  17.8486705  63.0879688
  13.6960280  17.0148563  62.6180077  12.7837932  18.0498064  63.2406569
  99.0164948  10.6556511  66.9277000  99.2527676  11.4675045  67.3763657
  98.3095360  10.2864921  67.4570084  99.6112823  26.2668777  52.0104456
  98.9915466  26.6634703  51.3981676  99.0855026  26.0601020  52.7831268
 113.5605717   4.0092924  95.9788513 114.4322586   3.9253944  96.3653278
 112.9609585   3.9290690  96.7206383  80.4278183  22.8206539  49.4055223
  79.9726534  22.0314670  49.6991920  81.0425472  22.5093699  48.7411165
  50.2422333  90.8250141  60.8151722  50.2135420  89.8690987  60.8554935
  49.6429825  91.0528564  60.1043844  89.7880459  18.8700593  77.4954510
  90.5052757  19.4919705  77.6180887  89.5791721  18.5679984  78.3793974
  22.3610044  23.6480403  88.6637306  23.3046579  23.7790108  88.5710335
  22.2320843  22.7131605  88.5036945  30.7543969  73.5089254  15.4596210
  30.6662035  74.2902231  16.0055363  29.9275613  73.0408955  15.5759192
  85.1899505 109.8907945  80.0380325  86.0884274 109.6207172  79.8482180
  85.0182880 110.6022049  79.4210577  82.7400970  30.7535172  52.1430779
  82.4052715  31.3874722  52.7772903  83.5680485  31.1289382  51.8434334
   2.9405767  28.0938721  74.5496655   3.0206668  28.3320284  73.6260319
   2.0111129  28.2094336  74.7470856  82.0091248  25.0369883  88.9019299
  81.1250687  24.9975038  89.2667770  81.9359684  25.6391668  88.1614780
 114.6952534 101.7858887   2.0034796 114.4509220 102.1763515   2.8425750
 115.6518936 101.7586040   2.0215048  49.9213076  68.0281496  11.1303830
  49.9412537  68.9845419  11.1641514  49.4355106  67.7708960  11.9139981
 117.5684834  37.8519082  50.7261658 117.4518585  37.4616599  49.8599434
 118.4276485  38.2719636  50.6859159  79.2325974  24.5989728  66.9769478
  78.3462048  24.2628527  67.1094704  79.1858816  25.0780439  66.1495829
  90.0459862   9.9510318  14.3515480  90.6250381   9.2095709  14.5280862
  90.2691841  10.5946481  15.0239849  70.8545065 104.7578812  80.8324718
  70.4945898 105.6423855  80.7666111  70.2481604 104.2950058  81.4106846
  36.7619133  80.8514309  15.6472898  37.5567150  81.3848305  15.6466174
  37.0706034  79.9618721  15.8194435 106.0246563  83.5974026  79.7206163
 106.2699413  84.4382477  79.3345642 105.2340126  83.7872696  80.2256680
  95.9560680  22.2089338  91.2519264  96.3197422  22.8089190  91.9030762
  95.8121872  22.7537632  90.4781723  76.9231844 107.4255943  80.1930046
  77.7582264 107.1442699  79.8191071  76.3850975 107.6516724  79.4343376
  39.6251035  68.3260965   5.0972837  39.2540836  69.2082119   5.1183844
  38.9007115  67.7682972   4.8138300  41.6160154  57.8420925   1.9930628
  41.1629200  57.0007229   2.0481597  42.4933147  57.6643324   2.3321413
 115.8245182  98.4899616  27.3608017 116.6434002  98.8822079  27.6638055
 115.1467705  98.9134216  27.8876543   2.1358576   3.6435720  66.3916969
   2.9239550   3.6921695  66.9327831   1.9280891   4.5556319  66.1886930
   2.9249805  13.7320876  69.4804192   2.7105606  13.8657856  70.4036617
   3.3923057  12.8969324  69.4615746  92.7593994  17.5513220  93.2318974
  93.6409569  17.8399479  93.4680748  92.8996944  16.7992711  92.6565933
 111.0967445  19.7277749  61.7414379 110.3443623  20.0034666  61.2178516
 110.9584999  20.1391888  62.5945854   3.0985895  18.6402142  93.5420704
   2.9935199  19.5864451  93.4428883   3.3450073  18.3338082  92.6693630
  64.3793201  30.3006577  73.8432455  64.3133163  29.3458557  73.8280773
  65.2976894  30.4804802  73.6420107  96.5241718  46.4322424  61.3909054
  96.2491894  46.7147636  62.2631454  95.8654690  45.7891273  61.1287117
  70.1832676  76.3513613  83.7714100  70.5978394  77.0741129  83.3002472
  69.2603683  76.5993071  83.8262939  68.4941578  94.9154758  93.7469101
  68.1320190  94.9297142  92.8609753  68.4937382  93.9899158  93.9909840
  18.8502777  25.6339407  57.6666641  19.1097879  24.7133636  57.7043819
  19.2782032  25.9713721  56.8797398  98.1346989   6.0350913  75.5612087
  97.1962643   5.9711093  75.7386208  98.2620811   5.5275595  74.7597027
  21.3663983  77.1500015  31.4024878  20.4516554  77.2997189  31.1636138
  21.3318872  76.4527607  32.0573878 115.8198547  68.9983892  76.4559841
 115.1396751  68.4338617  76.0887051 115.3820419  69.4717646  77.1634150
 114.9827003  59.2065477  93.1296635 114.4704628  58.6383915  92.5543022
 114.7325325  60.0944233  92.8740883 105.4025745 103.5071182  71.1815500
 105.4041958 103.9055729  72.0518684 104.4877625 103.5451698  70.9024143
  11.5584755  99.5803452  82.4549103  11.5636718  98.6384773  82.2843361
  12.4111605  99.7564411  82.8525925  97.5228214   2.5309986  69.3592691
  98.0721474   1.7583707  69.2268944  96.8186951   2.2288157  69.9329567
  99.4571877  35.2383161   7.5087142 100.1456833  35.7944155   7.1440732
  99.6854782  34.3545055   7.2206277  58.9562082   6.5536672   7.5104654
  58.0728865   6.6995060   7.8491426  59.4240999   6.1361718   8.2336557
  50.9433317 100.9922981  25.9682012  50.9896803 101.8770027  25.6057358
  51.6504908 100.5172825  25.5317211 104.1176033   5.1619172  60.1987123
 103.2003403   4.8896876  60.2260542 104.5621014   4.4587994  59.7251320
  18.1098616  99.0156364  33.8851881  17.7223992  99.7883606  33.4740996
  17.5881755  98.8779831  34.6758389  69.1720533 102.5971794  86.4446831
  69.2139435 103.4794426  86.8135738  70.0834894 102.3721218  86.2579632
  58.0442190 102.1974182  66.0733986  57.1915340 102.6317787  66.0956240
  58.3361053 102.2890186  65.1664019  74.8174810  73.1634331  35.4981446
  74.1878700  72.5222445  35.1684427  75.2002096  73.5501289  34.7106051
  38.4873891  69.7307539  24.3065238  39.3935251  69.4259405  24.2592144
  38.5586262  70.6623697  24.5144892 103.0235863  60.8034754  80.4190254
 102.4717617  60.4975700  79.6992064 103.4821224  61.5643787  80.0626469
  91.7028236  19.0007198  64.1604900  91.0833073  18.4316254  63.7037897
  92.5353432  18.5301137  64.1195965  35.3424215  40.1011848  71.5054226
  34.7028756  40.6125307  71.0096979  35.9276485  40.7552099  71.8875122
   3.9636064  75.8728075  12.9106915   4.3492404  75.9667349  13.7817228
   4.6505716  75.4592323  12.3879433  19.7519624  50.6833267   1.2473256
  19.5533192  51.1350012   2.0675462  20.7082319  50.6669331   1.2084330
  76.1664486  11.2950742  83.7359238  76.1254072  11.9636428  83.0521393
  75.3621817  10.7882690  83.6239529 107.0648956  49.5197248  67.7523708
 106.3598919  48.8741064  67.8010082 106.8327999  50.1776457  68.4077358
  86.3735199  23.5762644  45.6733942  85.4262066  23.7132764  45.6810093
  86.6515827  23.8737059  44.8071194  72.7932453  65.9468222  47.1443748
  72.7082443  66.7473602  47.6621962  72.2394657  65.3097248  47.5956726
  89.8646069  14.4253194  78.8552809  89.5570850  15.1845193  79.3505430
  89.9547386  14.7453892  77.9576969 112.5758266  23.7137127  78.8817692
 112.6868153  22.7638936  78.9236879 112.6315689  23.9204288  77.9488230
  22.3048186  13.1565607  82.9602718  21.6861033  12.7704358  82.3403263
  22.2050214  12.6333261  83.7555695  10.8068252  49.2416906  64.3963671
  10.9221721  49.5937347  63.5137606  10.3961825  48.3875847  64.2617798
   1.0942813  20.9789777  69.3118811   1.8420750  20.7481503  68.7607431
   1.4838997  21.3826609  70.0874281   5.6210244   2.3735771  79.8126650
   5.7726634   1.6596256  79.1933823   4.6682978   2.4559264  79.8546457
 108.9317131  35.5617046  96.2050819 108.7086391  35.0554252  95.4239559
 108.1660175  36.1152649  96.3584518  29.9454594  87.3087788   9.4769287
  29.8856878  87.4256420  10.4250860  29.4918036  86.4829540   9.3083167
  16.6873181  71.8816280  17.7272356  16.7269945  71.9041204  16.7711222
  17.2185874  72.6272440  18.0066049 118.0343246  95.7159519   1.2133516
 118.9248753  95.5089092   0.9300190 117.6725864  94.8769093   1.4986375
  13.8658655  19.1526949  69.3526316  13.1973076  18.6386383  69.8054123
  14.0218139  19.9020863  69.9273729  53.5054016  42.1096945   0.6225550
  53.9539099  42.0872927  -0.2227691  53.0080843  41.2923431   0.6515624
  96.5815067  36.9370294  88.3218765  97.1908474  36.6613102  89.0066528
  95.7188511  36.6905022  88.6554527  66.0289288  23.3339214  56.6552544
  65.6709909  22.6194572  56.1283255  66.9743490  23.2856822  56.5135288
  71.8020535 108.4717846  89.2632866  71.4620781 107.7889919  88.6849785
  71.3454866 109.2671394  88.9890766  99.5349979  10.7035768  86.4438725
 100.3889847  10.3729641  86.1652184  99.4778347  10.4687536  87.3700523
  72.4774504  84.0356827  44.2091513  71.8080044  83.4034443  43.9477062
  72.9677868  84.2112160  43.4060383  96.8310738  16.8934369  79.0539122
  97.0091629  17.6913857  79.5517015  97.5941181  16.3374531  79.2115974
  67.5942230  39.4115734  65.0479889  68.1472492  39.1162658  65.7713079
  66.9628620  38.7028170  64.9243832  86.4367008  21.8933773  85.0381565
  85.4967022  22.0611238  84.9710369  86.5251637  20.9551954  84.8701763
 117.8915332 103.6810398  82.2431755 118.8051999 103.4645653  82.4291515
 117.5738081 104.0904617  83.0479431  50.1573896  95.4876995  33.2251430
  50.0742579  96.4399624  33.2753253  50.5324078  95.2352142  34.0688539
 105.7934570  21.2114096  83.1917858 105.4030609  22.0669293  83.0131435
 106.0216427  21.2415600  84.1208935 113.4631443  29.5486498  88.4094524
 113.7461567  30.4439545  88.2235336 114.1070175  29.2192483  89.0364647
  31.7825484  47.8903532  76.2099791  31.4312124  48.5901499  75.6594467
  31.2239623  47.8938103  76.9872808  28.8224578  28.5150862   2.1073717
  28.5380125  28.6643863   3.0090550  29.6339273  28.0145001   2.1919861
  10.4688370  24.6835566  92.8766823  10.4143691  24.9430585  93.7964249
  10.8278751  25.4514146  92.4320221   7.6612318  42.0746946  71.8800020
   7.5307852  43.0138874  71.7491102   8.5851938  41.9304514  71.6757441
  81.3631058  47.3404217  84.1848278  81.5215588  47.1819687  85.1154232
  80.8022499  46.6149044  83.9104271  51.1172485  51.6844273  22.0456791
  50.5241203  51.7440557  22.7945971  51.1057377  52.5607109  21.6606760
  11.7633212  83.5904408  15.6444538  11.3347197  82.8275394  15.2564979
  11.0477531  84.0988255  16.0262108  88.0151081 105.8376598   3.5447347
  87.5210094 106.6561031   3.4973505  88.3016300 105.7833004   4.4564256
  30.1882148  13.3215117  81.7884636  30.8652735  13.4265995  81.1200523
  29.3757439  13.5698998  81.3475227  45.8156824  69.4644213   8.5839266
  46.4010572  69.6448421   7.8483891  45.8226395  68.5108805   8.6672580
  21.7103171  54.6889019  80.0931072  21.7902279  54.5847750  81.0412693
  20.7672286  54.6786785  79.9296713  47.0527792  94.9593735   3.5915172
  46.4113951  94.3526554   3.9613098  46.5292311  95.5872154   3.0935821
 102.5156116  44.9703074  87.7909946 102.5489807  45.8081818  87.3293877
 102.8358078  44.3324995  87.1531010  27.7750134  95.0164890   5.2562523
  27.2366214  95.6496811   5.7310426  27.1680546  94.5940685   4.6484706
  92.6615238  31.6453505  96.4831066  92.8080845  31.9462252  95.5863190
  91.9675350  30.9906602  96.4056969  66.7421103  92.8361511  12.2343123
  67.3078585  93.6029720  12.1440613  66.3201523  92.7479076  11.3796806
  70.4758739  28.8249612  88.8247013  70.5004358  29.7760272  88.7193394
  69.8239374  28.5302949  88.1887913 101.2182713   7.5030679  14.6894228
 102.1641159   7.6500714  14.6855438 101.0867691   6.7736602  14.0836978
  30.2825809  97.3339939  21.5255094  30.0426888  98.2500553  21.6652179
  29.6862197  96.8415451  22.0894885  78.8944864  51.0703135  87.8465271
  78.2472992  51.3356829  88.4999466  78.8881779  50.1136494  87.8779411
 112.7869129  19.1544032  68.9897585 112.2221470  19.9258149  68.9428663
 112.6949596  18.8446534  69.8907757  71.1218786  80.0979137   5.0919628
  70.7816648  79.4520140   4.4728500  71.6951036  79.5957470   5.6711650
  27.0446181  13.1930971  76.3537502  27.3812485  14.0060985  75.9770012
  27.6509094  12.5184107  76.0480738  45.4051495   8.9914817  47.9134560
  44.5206451   9.0309948  47.5497007  45.4304790   8.1629533  48.3921337
  49.7445011  77.2284079  22.5956464  50.3308821  76.4718533  22.5999451
  49.6510553  77.4642563  23.5186172  32.4133825  97.8668404  14.6266866
  32.7909136  97.6263714  13.7805939  31.5414286  98.1995583  14.4140160
  57.0098543  95.9191608  64.0655231  56.6669226  96.1406326  64.9313068
  56.3767290  96.2949371  63.4538221  24.8220563  29.2679071  87.5405025
  24.4388628  28.7006688  88.2095623  25.4952240  28.7282968  87.1258926
 106.6085339  52.2469234  89.3620300 105.7672119  52.7026176  89.3346786
 106.8343639  52.2165537  90.2917099  99.9797535  32.9680133  80.1130867
 100.5678082  33.2455468  80.8155060  99.6905231  33.7847066  79.7061539
 109.2325974  41.2978029  71.6421986 108.7716293  41.1317778  70.8198977
 109.2601204  42.2519875  71.7129230  81.6486835  25.3201938  64.8779297
  82.3545361  25.1398039  64.2570734  81.7644691  26.2412810  65.1112127
 115.7077503  29.4680595  74.6304226 116.0957813  28.8918495  73.9719105
 116.4120388  30.0724888  74.8646927 116.2452602  22.4977851  96.5060234
 115.7593155  23.2030606  96.0786152 115.5915642  22.0454669  97.0392418
  12.5480354  33.6242485  88.2200909  13.0084062  32.8606629  87.8719139
  12.8250933  34.3478179  87.6580238 110.5371475  90.5398273   4.6762505
 109.8702049  90.7694721   5.3233045 111.2695694  90.2070808   5.1949686
  90.9384537  58.0791759  81.0583115  91.7141438  58.2699776  81.5856934
  90.4962444  57.3730087  81.5294933  15.6462514  12.9778111  94.7577000
  16.4117265  12.7199197  95.2712917  15.6627452  13.9348209  94.7672844
  99.8221016  31.0373116  55.5235624 100.7168293  30.7591558  55.3277826
  99.5166874  31.4483213  54.7148514  22.5170946  99.7461224  14.8021269
  23.1834149  99.4806004  14.1682911  23.0119658 100.1509857  15.5144644
  93.9441109  26.1392784  77.3739195  94.5367336  26.2405801  76.6290951
  93.1904507  26.6879511  77.1566963  30.6046510 110.3916550  33.7571406
  30.9548903 109.6730900  34.2836714  29.6607018 110.3653049  33.9136672
  54.6363735  86.1112595  12.2108948  53.9361191  86.5752411  11.7519820
  54.6133661  86.4627457  13.1009316   4.8668516  34.5224643  66.8274879
   3.9215365  34.5869970  66.6916656   5.0950718  35.3195810  67.3057699
  91.1980915  29.5612216  90.4268932  91.9582176  28.9829445  90.4903698
  90.4450130  28.9711928  90.4580593  23.7825489  35.0063872  90.5579472
  23.7923932  34.4932532  91.3659191  24.5663142  34.7250175  90.0859547
  39.8329020  62.4268579   6.7668450  39.1678333  62.4364948   6.0784978
  40.4881191  61.8010902   6.4580828  58.2722044   5.8301497  59.5004034
  57.8299761   6.4383107  58.9081192  58.3535337   6.3132077  60.3227615
 106.2207031  45.8871794  94.8325062 107.0909691  46.2422991  95.0135326
 105.6210804  46.6019297  95.0465584 117.4392128  31.2336349  86.2059498
 116.4978600  31.3430166  86.3405800 117.7367210  32.0868397  85.8901024
  96.4036274  22.3412204   1.3108206  96.7981720  22.3969555   2.1811435
  96.9163322  21.6717553   0.8578491  63.9508438   4.9338052  13.6277127
  64.3999434   4.0899003  13.6763692  63.3212566   4.9119782  14.3483889
  84.5990276  51.1088991  76.1380816  85.2977562  51.7518234  76.0170603
  84.1274166  51.4109755  76.9143343  93.7579441  23.0293751  96.2898731
  93.2272243  23.1294489  97.0801544  93.2129192  22.5089478  95.6996632
  23.9079094  91.4380360  18.1243169  24.7623944  91.0086155  18.1652749
  24.0320396  92.2635841  18.5926104 105.8385658  37.7682352  72.9495668
 106.3399410  38.5785556  72.8588057 106.4162827  37.1826887  73.4390688
  32.0894289  98.1623173   6.3875765  32.4596334  97.7526569   7.1694750
  32.8124309  98.6687183   6.0173643   7.6308900  10.1038516  85.0438309
   7.7509075  10.9224629  85.5251884   8.5083532   9.8756164  84.7369099
  50.1404953 109.3834114  61.8089485  50.5998850 109.6730900  61.0207367
  50.3083372 108.4420109  61.8516636  11.6008389  48.2805014  95.7938004
  11.3123488  47.3916006  95.5867672  11.5295780  48.3396530  96.7465115
 114.4648361  26.2005138  76.2119389 114.2507839  27.1157384  76.3929796
 113.6152649  25.7715058  76.1098814   3.1880468  31.3068318  83.4907246
   3.1698576  31.7794561  84.3229008   3.3537853  30.3965163  83.7358475
  23.9794397  12.9345524  80.3480339  24.0634489  12.4333453  81.1591911
  24.4543958  12.4179900  79.6970272   6.5479261  99.7937012   0.5140992
   6.0136855 100.5452251   0.7710815   6.7727196  99.9613953  -0.4010947
  99.9710560  17.5442255  68.1637907  99.5694923  18.3127975  67.7584791
 100.7827187  17.8735566  68.5497665   6.8373811  81.7962360   3.6776841
   7.5721633  81.4099979   4.1542852   6.1100727  81.1925411   3.8287252
  96.6855717   9.7825217  57.1897459  96.6571903  10.6229079  56.7323875
  97.3774624   9.8884130  57.8426647  71.9581032 104.2587566  63.8469648
  71.2989378 104.6573353  63.2787514  72.4710226 104.9978733  64.1738701
   7.3063684  48.4979057  80.0665951   7.0547980  47.7947235  79.4678640
   7.2150606  48.1140566  80.9386921  27.8123212  58.3515263  79.6515703
  27.6115990  57.5728226  80.1707649  28.2936954  58.9216280  80.2511501
  34.8655081  50.3679419  92.1892357  35.3778696  51.1310101  91.9219589
  34.8297501  50.4259348  93.1440067 101.7338646  74.4716880  95.8185516
 100.9082783  73.9874038  95.8082969 101.9321812  74.6265671  94.8950172
  94.7854137  44.2807102  77.2350025  94.0252590  44.6561050  76.7906141
  95.4629707  44.2428780  76.5599346  87.7033043  13.1625080  70.2161264
  87.3843098  12.3392808  70.5859518  87.5465107  13.8103676  70.9030914
   8.8599974  20.8658028  80.1184368   9.6083140  21.2555718  79.6664000
   8.4252650  20.3366518  79.4496775 101.7499828  10.8352339  70.0553989
 101.4136505  11.4506125  69.4039202 101.0504246  10.7683814  70.7053137
  47.4069452  69.8877239  11.6091835  46.8075848  69.9599075  10.8663571
  47.5023031  68.9456511  11.7493284 103.8841629   9.0947604  94.5049095
 103.2154179   9.6825552  94.1534710 104.3799973   9.6361101  95.1191807
  92.4429321  29.3451571  64.3041325  93.2575321  29.4278932  63.8083410
  92.1862984  28.4298253  64.1921425   9.6013564  44.1692543  93.4371090
   9.6368343  44.3052959  92.4902916   9.1760284  43.3180618  93.5410118
  80.8945370  36.4354658  95.3716564  80.7994556  36.3170862  94.4265747
  81.6485596  37.0176101  95.4654598  26.8379855  35.3688216  88.1268215
  26.3926554  35.6934357  87.3441696  26.6653585  36.0334778  88.7936497
  95.4857540 108.5376835  85.1393318  96.2794685 109.0368080  85.3320217
  95.1738453 108.8952923  84.3080330   2.4204101 104.1797256   1.6100144
   1.4661178 104.2340279   1.6610999   2.6471111 104.6795654   0.8257973
 105.2262211  55.7509899  77.9510307 105.0266266  56.1932945  78.7761116
 104.6407318  56.1587477  77.3129368  32.4559999  47.1382713  46.7956114
  32.9241610  46.6352129  47.4619341  32.6463175  48.0520678  47.0077229
  50.1993895  90.2060986  13.3744621  50.8814716  90.8302307  13.6223686
  49.7396564  90.6292248  12.6493132 100.5160332  41.0199308  82.2097874
 100.3568935  41.6507483  81.5076637  99.9878883  40.2580166  81.9714737
  39.5995808 106.3973904  35.3034902  40.0119829 106.2456036  34.4531274
  39.7849345 107.3158836  35.4990435  28.5916853  72.5894690   4.2245805
  27.7644968  72.1568918   4.4364059  28.6186624  72.5993586   3.2678121
  61.0666561  91.8681431   0.3712667  61.3949347  91.5583420  -0.4728219
  60.1142311  91.8573952   0.2764072  99.8358154  39.3181372  78.7547827
 100.7524872  39.3062353  78.4794712  99.4692039  40.0954008  78.3332491
  73.8141251  34.7030950  64.7028446  73.7723398  35.1795363  63.8736963
  74.6981096  34.8692203  65.0302553  15.5912673  84.6621132  79.0863132
  16.0494471  85.3319645  78.5787582  16.2424219  83.9725780  79.2157984
  92.1096992  85.5228233  64.0548658  91.7073631  85.5245209  63.1863308
  91.7808533  84.7252750  64.4696045 103.0725765  64.6659279  93.2358837
 103.2656574  65.3315210  92.5756264 103.4554863  63.8620186  92.8846741
 115.4498291  62.5343132  70.5543041 115.8957958  61.9845867  71.1986208
 114.5837784  62.1377993  70.4596233  31.0518599 106.8176842  29.2855453
  30.9595227 107.0675564  30.2049303  31.8517423 106.2925816  29.2592287
  97.3702717 100.4304314  52.6707315  97.3524952 101.3873577  52.6558781
  98.2163525 100.2006054  52.2866011 117.2805500  27.6921344  65.3601503
 116.4595604  28.1178093  65.6071568 117.7893353  28.3820081  64.9341917
  75.9079266 108.9917374  56.5785503  75.3079891 108.6527252  55.9141874
  75.3363752 109.3106556  57.2770166 107.3859596  23.5810471  73.2246828
 107.1574306  23.1744361  74.0605497 107.6304150  24.4777822  73.4534550
  11.1822748   8.1225306  89.9740887  12.0359421   8.0400306  90.3991508
  11.3372874   7.8483337  89.0701962  16.1238301  11.7986226  90.0754547
  16.7476392  11.3353610  90.6344604  15.5104947  12.2058070  90.6872177
  99.8391247 109.0440941  89.9898624 100.7542133 108.7743950  90.0679874
  99.6183109 108.8793850  89.0731525  43.6739349  28.6276937  87.8305626
  44.5032644  28.4032536  88.2525444  43.5761023  27.9783201  87.1341610
 106.7841053  27.3982882  53.7465477 107.0058823  27.6126909  54.6526814
 107.3532772  27.9606509  53.2211685   9.5093691  49.2686892  53.6698771
   8.6859238  49.4689465  53.2248306  10.1879108  49.5424509  53.0527306
   5.4278624  23.0036712  85.9495831   6.2226492  23.0009413  85.4161549
   5.7052183  22.6493931  86.7944431   1.4414108  20.9289861  84.4620419
   1.1386194  20.5522132  83.6358452   1.9886670  20.2463365  84.8502827
  97.1651745 102.0583725  42.4785471  96.7051125 101.8157578  43.2821131
  98.0708313 102.1995449  42.7543783 109.0876102  10.9469688  22.1346807
 108.9990711  11.6722560  22.7530265 110.0312138  10.7984936  22.0731735
 114.5056438   2.2407629  24.9565148 114.9705791   2.4249697  25.7726884
 113.8770103   2.9576230  24.8719311  75.0589180 108.9620590  45.3430176
  75.2216530 109.9015427  45.2586794  75.9265661 108.5623264  45.2827120
 117.1212482   1.2521292  45.7133389 117.9352093   1.6183154  45.3674936
 117.4033833   0.6453104  46.3977385  90.2006054  86.4242840  28.6012554
  90.6565189  86.4292049  27.7596140  89.3079662  86.6990852  28.3917260
  23.8769960  36.4660454  19.1341782  23.7557125  36.1517501  18.2382190
  22.9921317  36.5012050  19.4975090   9.5351386   8.8123858  69.1936636
   9.3050981   7.9383016  69.5087671   8.7096399   9.1768020  68.8743162
   4.9267060  41.9430542  15.4861164   4.6536219  42.7954865  15.8252501
   5.1756597  41.4442873  16.2642455  11.6585004  99.5866013  48.5510683
  10.7958651  99.1743946  48.5978079  12.2617018  98.9169979  48.8735867
 107.1131516 102.9452801  38.8431287 107.1505642 103.8863468  38.6721706
 106.2369633 102.8014469  39.2006660  98.1724453  88.3338261  22.4765372
  98.4537888  89.1708946  22.1072197  98.9856720  87.9020119  22.7381158
  16.9155395  18.3604836  10.4304516  17.0176876  19.2080629   9.9975461
  17.0657706  17.7178001   9.7371835  51.7106628  95.4467201  10.3364635
  51.9547081  94.6866417   9.8083025  51.4233923  96.0996342   9.6981812
  58.0251598  36.7940187  88.1396294  57.5641584  37.0058823  87.3279476
  57.3981714  37.0017934  88.8324165  52.2250462  42.4497032  90.7281113
  52.4071836  41.9184256  89.9529934  52.2735977  41.8326283  91.4582443
  86.9754124  76.0170412  12.5509000  87.9255962  76.1157513  12.4906552
  86.6629696  76.1563969  11.6569221  88.1415462  89.8937321  29.6230006
  87.3968410  89.8576450  30.2232838  87.7493954  89.8410797  28.7514091
 105.8133221  95.1481152  11.7416906 106.5282631  95.7761955  11.6386127
 105.1367664  95.6311131  12.2162569  68.8782406  87.0164490  28.6242390
  68.9371157  87.5537014  29.4142556  68.0635357  87.2944832  28.2056808
  75.6160593 110.3085995  21.6634369  75.7118940 111.2408638  21.8582296
  75.6766081 109.8782539  22.5162959  93.2816505  75.3888035  30.8271670
  92.6822662  76.1334133  30.7768321  93.7927818  75.5460167  31.6210556
 101.1790562  39.7966266  88.4466457 100.7756710  39.1928196  87.8230000
 102.0245075  39.3981576  88.6532116  29.3057132  12.5875926   6.5315825
  30.0137210  12.9366863   7.0729619  28.5078764  12.7936125   7.0186585
 114.1505432   7.1961999  20.2130175 113.6093140   6.4753079  19.8911107
 114.7667885   6.7818618  20.8169985 104.9960899  91.8070412  26.4857793
 104.6210384  91.3778114  27.2547603 104.2642593  91.8838596  25.8735991
 110.7463646  34.0546799  42.2677279 110.8401299  34.4352055  41.3944340
 111.5289402  34.3406892  42.7389002  79.3418407  97.8158951  32.6337838
  79.4257402  98.2687950  31.7946935  80.1014519  97.2345352  32.6691675
  84.1712189  68.2314825  13.7899375  83.9033222  69.1381216  13.9398396
  85.1258659  68.2495308  13.8574517  80.6795025 111.0617161  53.1363773
  81.2145519 110.9116936  52.3569822  80.1226616 110.2855682  53.1976604
  49.2553902 105.2438164  34.1475749  50.2034187 105.2780437  34.0198994
  49.0404415 106.0753632  34.5701408  80.6902981 106.9827938  44.3562174
  79.9362993 107.1371651  43.7871075  80.3768635 106.3503456  45.0027561
  90.9575462 108.1729412  60.0676441  91.0522175 109.1239262  60.0137138
  90.0584412 108.0383587  60.3671885  66.4804232  47.6680131  96.0448629
  66.8941080  48.2106538  95.3735728  67.2122538  47.2586865  96.5064994
  24.6754193  27.3041654  24.8251510  25.3507257  27.2264218  24.1512442
  24.9485421  26.6932011  25.5095196  89.9320316 102.7984619  89.8894787
  90.6457138 102.4973297  89.3271542  89.6028042 103.5865402  89.4573021
   6.3626659  24.7045374  52.3649549   5.8378404  25.1599574  51.7066383
   6.2025219  25.1880646  53.1753826 102.6930237 104.1351032  46.9748926
 103.5923958 103.9466476  46.7068338 102.4635601 104.9333477  46.4990997
 118.3806540   1.5182470  19.9948621 118.3238466   1.7811675  19.0762341
 117.9814629   0.6486291  20.0202227  28.2605863   0.8019377  44.7470093
  28.4931731   0.9112033  43.8249493  27.3065114   0.8773544  44.7639275
 109.5300007  92.7990437  81.3417912 109.3772030  92.2738266  82.1273041
 108.9578152  93.5591698  81.4468765 101.9316864 104.1883087  34.5191360
 101.1721992 103.7013721  34.1992760 102.6058769 104.0437031  33.8552213
   4.3360746  10.5525124  37.6226115   5.0857353   9.9715441  37.7519035
   4.2047563  10.9674144  38.4751630  30.8291197   8.4314620  27.2057128
  30.2383852   7.7332771  26.9232202  31.6785502   8.1907535  26.8359017
  81.2960052  14.7642088  32.0726395  80.3695297  14.6951962  31.8421626
  81.6345692  13.8744688  31.9728088   7.8263897   7.6331210  31.8821788
   7.8015780   6.7338300  31.5552378   8.7544173   7.8672600  31.8689537
  94.9827099 104.0352440  17.9807651  94.3266010 104.7296238  18.0406678
  94.8933697 103.6975384  17.0895827   6.5046322   2.4811347   8.3604908
   6.9767284   2.2201332   9.1512090   5.5805683   2.3810029   8.5892093
 116.0268688  13.3861673  13.7433743 115.6017590  14.0941882  14.2273343
 116.2137222  13.7624478  12.8832984  22.1496224   1.6685436  12.0237792
  22.8686070   1.4423988  12.6138282  21.5230297   2.1345566  12.5773489
 116.5196705 109.0889454  39.5150685 116.3366795 108.1514835  39.4525862
 117.2490215 109.1500187  40.1319504  17.6251721  79.8074245  32.8585720
  18.4160852  79.5904732  32.3649931  17.7806818  80.6947136  33.1822395
  18.6235654   5.6702822  41.1374760  17.8234255   5.6763828  41.6628075
  18.3843887   5.1941371  40.3422976 116.8280125  40.9731674  40.6844187
 116.0714245  40.8938122  41.2653780 117.5220203  41.3253355  41.2417030
  90.8279133  18.2929552  49.5808172  91.2743568  18.3215308  48.7345886
  91.5244102  18.4264743  50.2236938 104.1551685 104.0259361  29.8167753
 104.0415573 104.1261387  28.8716388 104.9091625 103.4431744  29.9069238
  14.1389656  89.0135956   2.4222915  13.8973808  89.6257496   1.7272165
  14.3479526  88.2001495   1.9630852 114.3308258 103.2076359   4.6494791
 115.0189400 103.0533886   5.2967334 114.2222881 104.1585827   4.6372819
  29.2282605  52.8265095  91.7976379  28.9764714  53.7410021  91.6690540
  29.5985627  52.5594711  90.9563255  92.7408981 106.3970375  14.7785962
  92.6394653 105.5747700  14.2992103  92.6130676 106.1566257  15.6962526
  30.9536195  52.5792456  89.5202923  30.5344152  53.2412100  88.9704800
  31.6898680  52.2638416  88.9961910  80.2192974  54.2729330  12.0571411
  81.0121059  54.1949511  12.5877976  80.0929070  53.3998728  11.6856337
  27.4945140   3.6396584  10.7720864  26.7520928   3.5075814  11.3616610
  27.4759889   4.5749763  10.5694318   0.9542359  13.0500638   5.0879461
   1.5893345  13.5025942   4.5328802   1.2671848  13.1987178   5.9802449
  23.0607224  31.8993425  28.1836247  22.5798392  31.7526603  28.9981604
  22.8519177  31.1383486  27.6418495  14.9254262   6.5942663   6.1989182
  15.6063795   7.1725762   5.8552742  14.8194718   6.8645853   7.1110219
  83.0575371 106.2083435  21.5935493  83.2445526 105.3652096  21.1807704
  82.2683334 106.0513973  22.1119738   7.8436691   4.9355748  61.9629812
   7.8898728   5.5396271  62.7040768   8.3786845   5.3474969  61.2845230
  88.3798790  98.3642101  11.6866934  87.7306080  97.6939774  11.8998837
  89.1783714  98.0727482  12.1268046   7.9655135  18.1692934  43.2544184
   8.4941334  17.4061704  43.4877348   8.2620072  18.4064567  42.3757410
  43.5145247  40.1309056  96.1362026  43.6607706  39.8324628  97.0338518
  44.3505251  40.5152554  95.8723790 112.2436714   7.6516086   8.2834595
 112.9757118   8.2681590   8.2685959 112.2406197   7.3049021   9.1756576
  29.0611601  44.7007656  44.4063997  29.2581129  43.7830448  44.2186928
  29.4927859  44.8720074  45.2434206  27.5708532  47.0447969  91.6742134
  26.8897796  46.8351650  92.3132896  27.5275540  47.9965115  91.5815163
   4.5001745 110.2605057  54.1870165   3.8692224 109.8710537  54.7923756
   5.1017040 109.5464802  53.9759016 109.2593479   5.4698616   0.3028936
 109.4429016   5.8764672   1.1497764 110.0814819   5.0452697   0.0578432
 105.9449100 106.7934322   0.9401312 105.9320068 105.9256268   1.3438284
 106.8642807 106.9406605   0.7180889  14.3270755   5.7897651  32.9144311
  14.1087198   6.0363746  33.8131738  14.7360837   4.9281213  32.9951429
 105.2547073  67.6395082  45.8406019 106.0678005  67.2535229  45.5148363
 104.8426247  68.0200338  45.0649595   7.9318398  99.3879795  66.7651558
   7.1109802  99.8063755  67.0247078   8.5598719  99.6560574  67.4359322
 113.0200672  27.7114820  33.2196903 113.1092644  27.1623540  33.9986229
 113.9081383  27.7745700  32.8681445  35.5907965  55.9805584  91.1296940
  36.0689998  56.4016151  90.4153728  36.0456562  56.2645960  91.9225788
 110.2042675  27.6770067  67.7407885 110.7737541  26.9713688  68.0473661
 110.5780315  27.9378533  66.8990707  64.1131973 100.4840374  36.3619661
  64.9138403 100.9051323  36.6748261  64.3146229  99.5483303  36.3731050
  11.5518379  11.5297377   6.7335021  12.2933090  11.3762343   7.3190683
  11.5616894  10.7836533   6.1339253  25.6876445  47.3829269  13.9091241
  25.6227517  46.5725994  14.4144869  24.8730707  47.8488255  14.0979147
  65.0333738  56.0471582  94.6541500  64.8505116  56.7687750  94.0524387
  65.1372719  56.4675808  95.5077839  76.0513973  89.7560692  21.8617320
  75.1218414  89.8128986  22.0829296  76.0633564  89.5776558  20.9213805
  15.3845847   9.3241113  52.8427219  15.8736563   9.5117366  53.6438704
  15.6471837   8.4350044  52.6044750  13.1850898  21.1758184  58.7546730
  13.6100316  20.6357050  58.0883884  13.6292589  20.9437132  59.5701933
   3.6955020   4.3565565   0.8479393   3.2231790   5.1424950   0.5732697
   4.3535623   4.6760708   1.4652717 100.7953739  88.2768440  17.9997623
 100.2201843  88.1849480  17.2401953 100.4862785  87.6128101  18.6160028
  51.4594173  14.3630552  15.1968968  51.2348986  14.8105431  16.0127258
  50.7305813  14.5586443  14.6080220 114.8927402  94.8726463  25.8988547
 115.1533985  95.0463772  26.8033504 113.9648247  94.6448898  25.9565353
  17.5454068 109.8768520  95.2956104  18.0418158 110.6360531  94.9899578
  17.8208804 109.1631413  94.7203159  69.1526794   8.6899674  35.6806540
  69.3209362   8.4189498  36.5831351  68.2796717   9.0816277  35.7069969
  55.3981400  58.3292341  78.5804272  55.9298372  57.6169538  78.2251978
  56.0022831  58.8276291  79.1307402  18.6369443  44.8393393  80.3127003
  17.6976657  44.9056149  80.1406670  18.7084222  44.8696089  81.2667465
  87.0291233  14.4052005  95.6613827  86.6664600  15.2552927  95.9104824
  86.3194466  13.9716303  95.1874542  13.0131042  19.4066608  26.7096567
  12.9474831  19.4202590  27.6645088  12.9666519  20.3277063  26.4532471
  74.7647047  67.5548124  60.7665396  75.4601192  68.2056713  60.8615255
  75.2103853  66.7744970  60.4368305 107.9506111   0.9865424   8.7401617
 107.6728821   0.3548046   9.4034922 108.4494495   1.6420612   9.2276937
 111.6775227  35.8054662  33.9873409 111.8906975  35.9550977  33.0662537
 110.7251453  35.7103968  34.0003872  44.2942667  11.1586404  14.8798192
  45.1756096  10.7855165  14.8642039  44.4033623  12.0451725  14.5357394
  50.4843760  35.8633447  95.6039810  51.0700035  35.1239514  95.4409695
  51.0163116  36.4852619  96.1004734  71.5592432 104.6382713  25.6994724
  72.4687958 104.6090984  25.4026651  71.3612127 103.7369251  25.9536123
   3.1950766  12.0127380  12.0424259   2.7167147  11.5415001  11.3602698
   3.7498060  11.3471723  12.4492800  59.4529867  51.1706591  92.3729801
  59.4331741  51.0446405  91.4243126  60.2860308  51.6120577  92.5386143
  87.2580910  93.3006859  94.5693111  88.0924511  93.2007790  95.0276661
  86.8816280  94.1036797  94.9294472 111.6490459 106.8498802  16.9396639
 111.9918537 106.0551453  16.5308547 112.0744228 106.8810368  17.7965844
   1.6865717   5.1757908  14.5242929   1.3589369   4.5834303  13.8475394
   0.9130370   5.3992999  15.0419092   9.6371114   5.6202930  38.2704401
  10.5545545   5.6698245  38.5389113   9.1438645   5.8318299  39.0630245
  25.6413817  92.9952908  25.0189018  25.9354925  93.7813854  24.5586896
  25.3850675  92.3914528  24.3218327  69.1390133  61.4858913  93.2095718
  69.1067028  62.3800182  93.5497570  69.7316504  61.5362406  92.4595928
  67.1157408  24.8073435  80.8600044  66.9557095  25.7510018  80.8714867
  67.6289225  24.6610904  80.0653458   8.2488853  12.5325608  15.2832508
   8.1165689  12.2449791  14.3799114   7.6593870  11.9820309  15.7986534
  36.5382004   0.8730879  12.4708271  35.9487200   0.9408537  13.2219279
  36.1089253   1.3816044  11.7828107  86.0620403  96.4229870  37.6706767
  86.8444252  96.4864349  38.2184625  86.0150814  97.2669411  37.2214794
  10.0347328  52.9700518   1.4543279  10.1167774  52.3819160   0.7035976
   9.3053788  52.6120949   1.9604328  58.2255077 100.2887917  18.1490636
  58.3834696 101.2261677  18.2613444  57.7959394 100.0193501  18.9609182
  99.9796200  28.1291175  17.6479006  99.4223213  28.4667063  18.3491039
 100.1374340  27.2155833  17.8861904   1.4878355   7.9191941  33.2338786
   1.5658645   7.0064944  33.5115886   2.3465192   8.1327003  32.8687620
  80.6112671  82.4238110   2.2239570  80.1328373  83.2527637   2.2368789
  80.2282238  81.9150352   2.9385599  98.7753963  48.3919525  85.5981922
  99.0332127  47.7897453  84.9002647  99.1275311  49.2392731  85.3256512
  50.2606583   5.0386310  34.2333484  49.9845791   4.4073710  34.8978209
  49.4444132   5.4258215  33.9170218  60.9028482 100.2552319  33.3498073
  61.2745762  99.5387745  33.8643336  61.5470934 100.9597111  33.4197378
  25.0381184  39.9525166  24.7761655  24.6205783  39.9303079  25.6372118
  24.3277335  40.1652431  24.1709113  98.7458324 100.7252693  25.2856159
  99.0438461 101.5285301  25.7124591  98.2425308 101.0281849  24.5298600
  91.8646336 103.7024593  13.9276731  92.1761322 102.8800488  13.5497260
  90.9154987 103.5940647  13.9878476 101.1258555 111.3533290   7.9579639
 100.8183504 111.3376854   7.0516372 102.0026041 111.7340283   7.9068804
  34.5706129  42.8011513  48.7781286  35.3611398  43.3171844  48.9362574
  33.9654016  43.0725288  49.4682789  22.0855474   9.1340578  25.5721593
  22.6336908   9.8230952  25.1966619  21.2923622   9.5877057  25.8572817
  30.8141279  21.7646694  31.3807297  30.0417733  21.2829494  31.0846782
  30.4607606  22.5477052  31.8028903  83.4190273 108.9627266  16.7982101
  83.5808277 109.1673756  15.8772480  83.7194347 109.7381496  17.2722352
  71.6450560 111.5861165  10.3054368  71.0432017 111.4783352   9.5689684
  71.1402094 111.3087049  11.0699010  32.9026198   5.1407844  12.7948213
  32.7358818   5.2750015  11.8618596  33.3042979   5.9592021  13.0865049
  27.7099705  29.4861269  29.4587898  27.8602481  30.1967287  30.0822401
  28.1050825  29.7951841  28.6435604  82.2191429  47.8060818  88.9526081
  82.7216244  47.5806999  89.7355175  82.7041626  48.5302687  88.5569668
   9.5890361  33.5466337  25.2686214   8.8731414  33.0868435  24.8300767
   9.8206073  34.2562342  24.6693969  29.4803405  27.4923229  38.6722493
  29.3962693  27.0651150  37.8198075  28.7860370  27.1037555  39.2044044
   1.4516573  95.0981140  30.6302166   1.5004118  94.9629307  29.6838641
   2.2298893  94.6603489  30.9751010  28.7048292   8.1142378  14.9049425
  28.8932252   7.2811365  14.4728756  28.2300901   7.8700280  15.6994331
  98.5591316 100.2973080  17.3867440  98.7225151 101.0325241  17.9774964
  99.3456078 100.2472591  16.8434334  29.3202043  10.8366358   4.3821609
  28.5250688  11.1403608   3.9442766  29.3825912  11.3788342   5.1685196
 106.6671753  32.2863460  45.8856201 106.3360691  32.5513268  46.7437506
 106.4285564  31.3623166  45.8117199  20.7181621  32.3538733  85.3406811
  19.9054444  32.8536844  85.4175663  21.2239337  32.8199935  84.6749783
  15.3139019  23.5070753  54.8376417  14.8209894  22.9681849  54.2188787
  16.1277378  23.0239058  54.9806499  38.1225204  16.7994654  19.7542512
  38.6118770  17.6087308  19.6064222  37.5570560  16.9946063  20.5015159
  31.1425400   5.5388182  62.2132111  30.8955908   5.3200948  61.3146544
  30.5580854   5.0111169  62.7574301  26.5914917  11.7086375  16.6356587
  27.3671675  11.1516571  16.5698290  26.6945028  12.3471129  15.9299898
   5.7489079  26.8290114  25.6961131   5.5023509  26.6478658  26.6031027
   6.2158722  27.6635814  25.7369637  25.7178116  41.3528442  51.4352226
  25.7391143  40.4036760  51.5571022  25.5510283  41.4705563  50.5000448
  12.3475921  40.1154041  38.9729190  13.1160259  40.2161407  38.4111404
  12.1171987  41.0092831  39.2261600  30.7099032  16.2438297   6.7166191
  30.3590798  16.6660523   7.5007647  29.9670696  16.2020898   6.1143839
  86.5644360  90.1224422  42.2507477  85.6693554  89.8089409  42.1211815
  86.8189621  90.4787922  41.3995934  90.9240723   7.6723677  45.2975988
  90.7961750   8.5732388  45.5947590  90.2415371   7.5378472  44.6401262
  68.7773943  75.1337290  71.3774490  68.3471060  75.3180218  72.2123861
  68.0749416  74.8135376  70.8115292  69.5080948  40.5339193  75.3824520
  69.0872526  39.7088385  75.6240416  70.2660131  40.5954313  75.9638357
   0.0839088   1.3852458  54.1830921   0.5348064   1.0040805  53.4296751
  -0.2577331   0.6315696  54.6642208 108.1833076  29.3814754  58.6031342
 107.5382710  29.3986726  59.3101454 108.7534237  30.1295614  58.7808132
 113.5428619 108.3245564  51.3460970 112.9346275 107.6565266  51.0298300
 113.1668472 108.6170387  52.1763372  38.4285212   0.2790412   2.9962885
  38.0146837  -0.5368156   3.2779735  38.6011577   0.7532926   3.8096237
  13.6099267   4.2895302  22.9161263  14.3949163   4.5031506  23.4204960
  13.4066260   3.3866298  23.1604028  81.3937759  99.1757774  46.3024664
  81.7559814  98.9101219  47.1477270  82.0186806  98.8422871  45.6586456
  70.1798439 111.0449505  66.1481380  70.9708214 111.5787888  66.0733414
  69.5399952 111.4851475  65.5886364   1.4617090   8.9142120  26.2891030
   0.7035927   8.9710361  26.8707061   2.2104743   8.8288397  26.8792653
  65.2383518 110.2154732  77.6364374  65.5882072 109.9833202  76.7762423
  64.8404312 109.4069958  77.9593182   3.4194008  35.2358651   5.5892110
   2.8165334  34.5028710   5.4647064   3.3245215  35.7615852   4.7949508
 111.0286331 108.4316158  45.1142788 111.3918972 107.5466251  45.0815678
 110.4504395 108.4251404  45.8770895 100.6704426 106.4251995  50.8281279
 101.1481380 106.6806221  51.6172981 101.2264919 105.7647610  50.4147863
  36.2139797   5.7417178  11.8609130  35.4900360   6.3553494  11.9857764
  36.3538742   5.7258022  10.9141243  18.3397269  17.0210481  26.9097185
  18.5316873  17.7567446  27.4912119  18.3701611  17.3968780  26.0299134
  81.9010258  99.7833633  22.4015069  81.7166519 100.3414822  21.6460323
  82.5625801  99.1667080  22.0879507  41.4209127  12.2222733  27.7172780
  41.7233706  11.4013505  28.1056571  40.6569433  11.9738483  27.1968246
  21.6453147  25.5709004  46.3345146  22.1979547  25.5438209  47.1155977
  22.1228027  26.1310601  45.7225847  38.2748961   6.4495587  51.3771343
  37.5894260   7.0999581  51.5299177  37.7999806   5.6335557  51.2195683
  95.0527191 100.1163483  38.6437750  94.6699142  99.5437622  39.3084860
  95.8779144 100.4117203  39.0285277  26.3380051  11.3835943  48.2526779
  26.1021757  11.5684998  47.3435974  26.3819170  12.2445893  48.6685991
  17.5687099   1.3741657  72.0150328  17.3384500   0.9348616  72.8337049
  17.3099267   0.7567383  71.3308954  37.2475290  34.3775177  34.0107250
  36.8598628  34.0167141  34.8080754  38.0462670  33.8664103  33.8802624
 108.5468483   7.3750985  17.5082517 108.5674095   6.4464796  17.2770011
 107.6636505   7.5176650  17.8486407 100.1609421 101.2465668   3.6102945
  99.7504807 100.3849220   3.5374287 100.4481792 101.2987232   4.5218891
  40.8881140  20.0916076   6.8979347  41.4182615  19.3652773   6.5698820
  39.9956775  19.8793256   6.6245747  23.1776500  20.8144951  37.1329975
  22.3337913  20.7215595  36.6908455  23.4245181  19.9201238  37.3683453
  67.2451782 110.4737377  21.9453335  67.7440119 109.8253250  22.4422860
  67.5806665 110.4006195  21.0518384  62.8644037  71.4774942  51.0097599
  63.5682058  70.8324623  50.9402466  62.8127718  71.6758204  51.9447613
  24.0919971  41.8708134  11.8952668  25.0366449  41.7419815  11.8099666
  23.7877607  42.0130253  10.9989142 100.1740074  94.1441631  64.2898464
 100.3238106  93.3396149  64.7863293  99.2459393  94.1129971  64.0576077
 109.3218220 111.2183957   0.6922693 108.9021051 110.6513648   1.3392229
 109.3595207 110.6872659  -0.1031619  52.0799875  12.5650525  23.1060481
  51.2566423  12.3944497  23.5634565  52.7583361  12.3619747  23.7501287
  58.1352663  36.2274718  77.9376268  57.9540873  35.4387093  77.4264908
  58.6118269  36.7988825  77.3354578 110.6516171  79.0973091  47.5098801
 110.0878048  79.8708344  47.5125742 111.5284729  79.4394445  47.6839209
   5.0383633  96.2600994  22.1518135   4.7132510  97.0625877  21.7437005
   5.8733422  96.5129757  22.5456381  97.9107475 105.0650597  23.6985302
  97.6378536 105.3298092  24.5769763  97.5198555 104.1998196  23.5768819
  30.2761698  22.2231936   6.7260015  31.0726738  22.0672584   7.2334462
  29.9835539  21.3499427   6.4651614  29.7977042   5.9114122  28.0249929
  30.3633094   6.4073700  28.6168957  30.1712298   5.0301200  28.0191708
  32.7375150  10.2389872  24.5815587  33.3845925   9.7135979  25.0521803
  33.2580829  10.8148301  24.0215182   8.3161598   8.6750984  17.8376675
   8.9143652   7.9328620  17.7512550   7.7962494   8.4743536  18.6158884
 110.4235172  37.0286608  21.9108891 110.8799553  36.9514704  21.0730743
 109.8472786  37.7850246  21.8009114  27.2665358  30.0836992  18.0055106
  26.5455341  29.4951963  18.2292414  27.3031187  30.0648808  17.0491946
  79.2166615  55.4617310  90.8213997  80.0925732  55.8466959  90.8498764
  79.2286253  54.8960924  90.0492954  49.1833687  42.0455170  92.8040886
  49.0041637  42.5377226  92.0029354  49.9528646  41.5166950  92.5932407
  96.1186218 107.8377438  56.8006611  96.8725395 107.3632622  56.4503622
  95.6660175 107.1969032  57.3490334 103.8038635 110.1410294  65.8429193
 104.5191479 109.6550751  65.4324961 103.1713486 110.2775192  65.1375628
  41.3534212   4.4204131  45.1657295  40.5169392   4.8631108  45.0223923
  41.1752319   3.7925717  45.8659410 103.8803387 101.1722755  32.4711156
 103.7404919 100.8051777  31.5982389 104.7753239 100.9188366  32.6969624
  95.3394699 108.0598831  67.4185181  94.7954178 108.8407326  67.3159409
  96.2378025 108.3899403  67.4013948 116.4128399   2.6767704  27.0450759
 117.0420551   3.2753223  26.6425109 116.7668056   1.8046126  26.8710637
  89.1341591 103.4537220  12.5202310  89.1539097 102.4968910  12.5022638
  89.7062874 103.7186623  11.8000162 105.0573444  25.5320096  38.9488125
 104.1258717  25.3315568  39.0405321 105.1151943  26.0352707  38.1366467
  13.4308541 111.4386889  18.4317720  13.1034434 110.7368555  17.8692222
  13.6198342 112.1591174  17.8305209  49.3103266  32.5044036  36.5460896
  49.9776220  31.8735623  36.8162537  49.6088600  33.3386731  36.9081712
  96.0494423 107.9397678   2.3212156  95.9264755 108.4575653   1.5256076
  96.4060116 108.5595131   2.9576129  96.8290615  24.4056487  38.0674815
  97.1655464  23.6830163  37.5375652  96.0559940  24.0447044  38.5014486
   2.7253893 100.7031631  20.9195542   3.6252263 100.8604145  20.6335545
   2.6758596 101.1056137  21.7866230   4.9635839  42.7336311  37.0049143
   4.1879216  43.2375050  37.2512722   5.4981267  42.7134085  37.7986932
  71.0399782 111.0639528  20.3931880  70.7092058 111.5295071  19.6250224
  71.8854677 110.7122697  20.1144290   4.0845931  32.2837710  43.9081764
   4.7480300  32.2659612  43.2184172   3.8417095  33.2066059  43.9831114
 109.2862988 108.8249397  18.8217759 109.5237446 108.5492229  17.9364300
 109.4023228 108.0395031  19.3564379 113.2815361  96.9245243  57.9259109
 112.9358864  97.8169918  57.9414940 112.8223324  96.5024662  57.1998072
  70.9366894  87.7889729  82.4913406  70.2436352  87.2731876  82.9034996
  70.4718590  88.4093475  81.9298267   9.9460274  28.5720205  13.1585777
   9.5010537  29.2402482  13.6798286   9.7654837  28.8166976  12.2509599
 116.4194679   6.2515068  21.5060544 117.0752716   6.9476616  21.4669418
 116.9147015   5.4469997  21.3519669  86.1403179 102.5771618  26.6562295
  85.9684181 101.8903923  26.0120082  87.0924473 102.6755524  26.6531539
  21.9318986  22.7564883   7.7435309  21.2394238  23.4150648   7.6888597
  21.8092823  22.3506904   8.6017418 117.2488499 110.7435894  17.9739416
 117.0098782 109.9650574  18.4769499 116.6711044 110.7225037  17.2110522
  14.0675056  18.2139385  33.1820607  14.9550664  17.8685057  33.0864358
  13.5668850  17.4881673  33.5547090  14.6148372  22.3486662  37.4354982
  14.4099712  21.7380953  38.1436396  15.3949535  22.8134561  37.7381849
 117.1724272 111.0866724   7.0999289 117.9693199 111.6068522   6.9969487
 116.5002156 111.7236648   7.3420101 102.9211903  20.0929856  31.2132072
 102.9637146  21.0292649  31.0187674 102.0756149  19.9764895  31.6464090
  48.0580807   8.3926708  11.1232841  48.9055109   8.8201112  11.2473357
  48.2189417   7.4743968  11.3403761 104.0040016  81.9489098  46.7447376
 104.7029114  81.4682865  47.1883059 103.3955097  81.2706089  46.4516926
  14.1286242   7.0377511  37.7870178  13.6171281   6.2286931  37.7816248
  13.5676539   7.6728022  38.2322741  58.1698513 111.4299202  16.1549878
  58.5194445 110.6374264  16.5623736  57.9420376 111.9973087  16.8914700
  51.1597109   3.6094633  52.6254416  50.3085518   3.7108073  53.0514479
  51.0037422   2.9739702  51.9268322  37.3428917  18.8488853  16.4112818
  37.4005675  19.3856215  15.6208265  37.7976656  18.0379128  16.1838341
  25.1588464  45.1478958  61.1609364  24.6689272  45.0867128  60.3408957
  25.4922509  46.0450506  61.1743879  98.9984608  98.6468220   7.0307910
  98.1873226  98.1386185   7.0277762  99.5715046  98.1869507   6.4173001
   9.7939175  24.0600610  48.7518787  10.5415964  23.7927461  48.2173252
   9.7665840  25.0130081  48.6659908   4.0560520  29.2800879  19.2500699
   4.8982647  28.8254118  19.2634439   3.5891643  28.8976312  18.5071194
   5.6759894  94.5069027  12.2444201   5.3940535  95.4007149  12.4389768
   5.8412957  94.1158104  13.1022966  35.4911423   7.2885954  72.9903555
  34.7150993   6.7379612  72.8864765  35.4872704   7.5359678  73.9150286
  92.0825958  95.4318619  46.9913054  91.5975189  95.3319073  47.8104162
  91.8553066  94.6539974  46.4818954  15.5973196  34.4406748  29.3413091
  15.9449041  35.0983357  29.9437213  16.0660088  34.5955706  28.5212064
  54.8955822  39.6364713  16.7199373  55.4419708  40.3861380  16.9559216
  55.3233767  39.2611265  15.9503007  27.8480744  32.8939962  38.0878377
  27.3259974  32.1695304  37.7431393  28.6276793  32.9127359  37.5327730
  43.9539003  22.0523047  14.2545450  43.4853315  22.4388766  14.9942982
  44.3479633  21.2558746  14.6104240  17.0642591  24.6302342  61.0305357
  16.2733531  24.3015146  60.6031752  17.5853610  23.8465810  61.2053823
 106.0404491  99.2799854  24.8208475 106.3894176  98.8668728  24.0310454
 105.3278255  98.7039375  25.0975633  70.3864956  57.1099329  11.9548380
  70.4978466  58.0137587  12.2496831  71.1035824  56.6320086  12.3715031
  62.2468662   2.6446977  86.2694740  62.8740501   2.1142569  85.7780361
  61.6208124   2.0114209  86.6205406  75.1529694 104.5868206  15.3617191
  74.2374897 104.8658276  15.3784502  75.1129913 103.6433506  15.2052152
  49.7359562  20.3694296  80.4057884  50.5954075  20.0824666  80.0971889
  49.1248322  20.0540066  79.7400045  70.7283545  88.1574821   0.0367009
  71.4189291  88.5833645  -0.4712075  71.1932230  87.7040291   0.7399108
  35.0354981 106.6615677  46.0673809  34.7447014 107.4782181  45.6614876
  34.7920227 106.7520332  46.9886637  30.7849050  14.4402575  61.0291481
  31.2403584  14.5477629  61.8641567  30.9029770  13.5161936  60.8091545
  72.9589558  39.7759461  81.1518764  73.6195326  40.0136232  81.8025494
  72.2990370  40.4661989  81.2173557  67.3567915   8.8933879  44.8603344
  66.4623785   9.0795028  44.5746374  67.3556519   9.0930998  45.7964659
  85.1807022  79.5052862  22.7186370  84.5248604  80.0018883  22.2292590
  85.5691051  78.9177847  22.0704031  95.1666927  89.2035389   2.4446590
  95.8260155  88.8827038   3.0599535  95.0825214  90.1350975   2.6479930
  75.9239531  20.4760218  92.4461174  76.8356419  20.2622914  92.6445675
  75.7041121  19.9181592  91.7000008  68.8987112   4.9591309  13.7337887
  68.1671667   4.3459234  13.8048470  69.6774864   4.4198912  13.8714802
  99.5172596  85.4344749  25.9498072 100.0639153  86.0291672  26.4633727
  98.7280083  85.3177357  26.4786649  26.2181139  98.5024357  79.5783806
  26.0563540  97.5639629  79.6749830  25.6212902  98.7779808  78.8825989
  41.3570786  53.7178612  90.5753613  40.8241701  54.4833088  90.7906151
  40.7455254  52.9823875  90.6116104  68.8617992  30.0188231  91.4463997
  69.3145466  29.4123673  92.0324516  68.3205652  29.4568968  90.8918381
  12.8891718  83.1665134   1.9226749  12.8703594  82.2650909   1.6012432
  13.5545516  83.5980701   1.3867120  29.0652990  37.2475195  82.4906254
  28.8733983  37.5905371  83.3634090  29.5176983  36.4197040  82.6527691
  90.2077103 111.0734081   4.1945004  90.3712368 112.0053291   4.3395010
  89.9677658 111.0133839   3.2698089   4.7366071  47.0870876   4.7123280
   3.7835222  47.0851564   4.8009691   4.9126667  47.7381945   4.0331441
  84.5862865  96.9630718   7.6622391  85.1778412  97.0163918   6.9116086
  84.5759869  96.0342979   7.8935671 115.2037048  74.6063948  44.8496675
 114.2612362  74.5132971  44.9886465 115.5802536  74.5695877  45.7289219
 117.5174999  85.8854580   7.5025553 117.1679020  85.1476383   7.0029241
 117.8697777  85.4895020   8.2996452  68.0283976  92.9033470   5.1951957
  67.4096680  93.0012035   5.9189582  67.4801445  92.8971577   4.4105840
   5.7793564   9.7676039   6.3122296   5.2978146  10.2430344   5.6352395
   6.3170040   9.1407686   5.8282423  98.3863449 105.6665516  47.9406452
  97.8392029 106.0880566  47.2779179  98.3208656 106.2392044  48.7048531
  92.2950268  73.3888817   4.6842334  91.3663197  73.2046938   4.5434472
  92.4196625  73.2841730   5.6274909  40.5453825   4.7530398  37.2903419
  39.7662449   5.2737558  37.0953274  40.2205896   4.0253964  37.8206944
   1.4842899  28.7326527  69.1199636   0.9349989  28.9749885  68.3744574
   0.8955532  28.2584548  69.7071266  26.8582344   1.9266969  14.2793846
  27.2968674   1.3914295  13.6180806  27.5589705   2.1949448  14.8737288
  46.4267635  16.0496008  80.1834679  46.7952156  15.2142525  80.4709911
  46.9807100  16.7110634  80.5980110  75.6254578  65.3204966  24.0432239
  75.9796238  64.6442509  24.6207118  76.2222767  65.3331089  23.2949734
  81.0494077 100.3598314  -0.0844603  81.5481174 101.1026054   0.2558584
  80.8843267  99.8108201   0.6820650  79.5081139  11.9144440  75.3839874
  79.0903664  12.1007371  76.2248278  79.7768593  12.7721488  75.0548220
 111.7693424  61.2412405  22.6761436 111.6094208  60.4454041  23.1833911
 112.7160454  61.3725042  22.7285957  47.3347282  51.3556480  85.3775883
  46.9443560  51.8560076  84.6610069  47.8962612  50.7135582  84.9432659
  96.0046005  59.6427727  17.8868973  95.8201599  58.7406206  18.1483030
  95.4036236  60.1717758  18.4115005   5.2189171 107.7340984  15.1295650
   5.7828861 107.2428322  14.5322120   4.9133730 107.0825577  15.7607245
  96.6135597  94.6682739  32.5195742  96.4401913  94.2347527  31.6839695
  96.2321568  94.0849495  33.1757021  63.1990194  56.2014389  12.4012363
  63.5106945  56.8222046  11.7426443  62.2608089  56.3776684  12.4714553
  80.2433681  40.2113724  89.4074821  80.8875084  40.0140285  88.7275124
  80.5815697  40.9971046  89.8369884  82.6977062  63.4927320  29.7862220
  83.2639790  63.3957243  30.5518317  83.2421684  63.9442110  29.1412735
 111.1881065  73.3845472  11.0524511 111.6703701  72.7310705  10.5458748
 111.8489361  74.0313530  11.2997711 109.1973495  81.5087605  27.5952530
 110.1230907  81.6980457  27.7482557 109.1563702  81.2397861  26.6775322
  45.8633518  27.1737123  83.3425999  46.7251921  27.2849822  82.9412460
  46.0288715  27.2265482  84.2838955  92.9342461  78.9038515  25.9447503
  93.6376858  78.2590246  26.0195875  93.3247662  79.7212839  26.2538290
  43.2788754  33.6658716  85.2347565  42.8988838  34.2199016  84.5529366
  42.5281191  33.3725119  85.7510376  75.6083107 103.1540680  23.2861996
  76.0498238 103.3410740  24.1146493  75.2255583 103.9914513  23.0244279
  75.9139776  75.3014994   2.4364251  75.8018494  76.1260223   2.9095218
  76.1857939  74.6753740   3.1074786  73.9040565  98.6091900  18.1473994
  73.7618923  99.5546722  18.1930053  74.8468304  98.5023689  18.2738638
  72.7830172  30.6734037  87.3368454  71.8700075  30.8894873  87.5264645
  72.8860474  30.8656049  86.4048195  85.8425045  80.2264881  11.1072719
  85.1733208  80.0738716  10.4400897  86.6442966  80.3875637  10.6098580
  56.0431242   4.2063025  87.4604988  55.1124573   3.9895535  87.5162601
  56.3871241   4.0112290  88.3321857 106.7765999  94.4750118  49.6349096
 106.2089252  95.1136017  50.0663853 106.6377831  94.6244907  48.6996984
 107.2700405  74.6006250  59.1087580 107.2186470  74.1404152  59.9464941
 107.3612118  75.5230951  59.3474436 106.7402554   1.6199754  13.8681304
 107.5721169   1.6322348  14.3415177 106.6695595   2.4944836  13.4854174
  87.3351002  79.7212648   6.7170888  87.1139526  78.7935543   6.7987728
  87.9635239  79.7550869   5.9958589 117.0331669  60.0664711  10.6542850
 116.7035103  59.3452644  11.1903989 117.1677113  59.6797132   9.7890985
  10.5641103  95.2235985  16.6790950  11.3123560  94.8992920  17.1802807
  10.0609696  95.7411766  17.3077369  63.5708666  22.3264766  91.5516281
  64.1936445  21.9508052  92.1739292  63.3979559  23.2060719  91.8872643
  92.6839924 103.7647152  21.3073659  92.8437328 103.5702324  22.2308850
  92.4291801 104.6873283  21.2974811  82.3225307  24.2389822  93.4590340
  82.0212555  23.4188557  93.8500023  83.1871796  24.3840265  93.8432026
  83.8946819  92.8305817   6.1310405  82.9799557  92.5961971   5.9743160
  84.1186714  93.4175014   5.4088271  13.2619810   4.5165154   5.8883578
  13.7011099   5.3668541   5.9063089  13.5003173   4.1062742   6.7197001
 101.0929108 105.4839802  36.6828084 101.3660431 105.2449417  35.7970929
 101.8683052 105.3296757  37.2224140  68.7652111  96.5592289   3.1387624
  69.1425133  95.7706451   2.7488741  69.1035795  96.5691757   4.0341061
  66.3323498  22.7335095  89.2662048  66.7656755  23.4623265  88.8220310
  66.1246586  23.0729795  90.1367569 116.6522121  62.2384644  62.5660753
 116.6089249  61.2897205  62.6854324 117.5879955  62.4392700  62.5807953
  57.3219967  15.4292643  89.8193073  57.4410486  15.9349751  89.0153694
  58.1757784  15.0264537  89.9775219  29.6016240   0.8392202  51.2267685
  29.4937301   1.2221608  52.0973682  28.8409901   0.2679395  51.1204481
 111.9837856  99.9044323   6.4477277 112.2266006 100.6782246   5.9392852
 111.4995766 100.2521706   7.1966267  56.4251757  93.1341648  20.3640962
  56.0147619  92.4691868  19.8112953  56.8641996  93.7203407  19.7477448
  96.6508293  71.5697145   8.0051333  95.9696579  70.9249353   8.1961691
  97.4400425  71.0481882   7.8588742  45.8081436   2.4909656  85.4210091
  45.1820421   2.7852997  84.7595024  46.1592340   3.2991639  85.7948875
   0.5886271  17.6551330   9.5626754   0.1994335  18.4781158   9.2669415
   0.1906252  17.4958849  10.4185176  82.3319912  89.4322205   6.0212332
  83.0210304  89.7447681   5.4349250  82.2156525  88.5119629   5.7849604
  71.9393063  67.6558161  21.6625643  71.0679388  67.7872372  21.2888312
  71.8010759  67.0390701  22.3814178  74.2617321  74.0023422   7.5951970
  73.9714289  74.0099335   6.6831124  74.0275860  74.8686314   7.9282898
  22.5988960  18.0515909  25.8823538  23.3719420  18.5708296  25.6609392
  22.3493147  18.3539903  26.7555642  72.9229164  54.0738106  79.5357704
  73.2397366  54.7769165  80.1027775  72.0375633  54.3435764  79.2916203
  67.8601170  28.5088396  77.4695492  67.8816938  29.3246436  77.9697800
  67.1614027  27.9966784  77.8766346  74.4811010  93.0397892  26.2186861
  74.2076445  92.4132729  26.8887091  75.2845669  93.4268379  26.5663528
  80.3455734  11.5927851  82.6945496  79.6934032  11.3760114  82.0282745
  79.8304796  11.8562067  83.4571266  72.2360420  84.2833900  11.8699265
  72.6737642  83.4556675  12.0686841  71.6070080  84.0627670  11.1829984
  97.3443127  22.0338678  59.1435003  97.4163151  22.6868534  58.4473276
  98.1642056  21.5421486  59.0963984  42.8336620  63.5436726  94.6374989
  43.6358356  63.9965868  94.8975277  42.6941204  62.8908014  95.3234482
  93.4116364  97.4770737  34.3897748  93.4756088  97.3674297  33.4410310
  94.2797947  97.7807999  34.6548605   1.7177181  93.3296108  21.3755250
   2.1489969  93.4386635  22.2230721   1.3388723  92.4512768  21.4108181
  71.2279463  58.3777857  82.7202797  70.4445744  58.8217735  83.0449772
  70.9488535  57.9676628  81.9016552  13.8633692  69.5704746  17.5292301
  14.0937543  70.3863382  17.9736626  14.6056378  68.9893770  17.6953495
  98.0248928 100.1402092  20.2778459  97.8115559  99.3330956  19.8095655
  98.9812565 100.1784897  20.2657437   2.3641838  14.0556049   3.0511823
   1.9659674  14.9259603   3.0628902   3.1390864  14.1541791   2.4979722
  17.9145217   0.6596342  23.8409019  17.3868740   0.7190485  23.0444789
  17.4007499   1.1212759  24.5035911 101.9784069  93.3081627  13.8043630
 102.9016495  93.4231567  13.5793412 101.7121410  92.5213814  13.3286393
  95.7862282   4.4898748  33.2795501  96.7021847   4.2128789  33.3023667
  95.7989883   5.3205848  32.8041673 100.8407688  87.5115681  31.9605613
 101.0632706  86.9009304  32.6633024 101.6854382  87.8388309  31.6512632
  12.6278174  95.3376198  18.8514602  12.1444488  95.8391190  19.5080352
  13.5468543  95.5451775  19.0203404 102.6585293  50.1151276  19.9830270
 101.8761444  49.9306583  19.4633305 103.3328819  49.5469952  19.6106088
  38.0660105 107.5086880  80.1687813  39.0129423 107.6334000  80.2319908
  37.9532218 106.8944550  79.4433689  92.4003601  97.6379681  26.3657498
  91.9151115  97.7619076  25.5500245  92.9466534  98.4203815  26.4407134
 112.4776077  94.4833183   5.3172976 113.3134556  94.5664597   5.7763016
 111.9565010  93.9027309   5.8719170 102.2761917  92.0344925  25.4533958
 102.4383831  92.9775238  25.4781842 102.6562405  91.7478466  24.6229553
  46.9954395  25.0639224  39.0422511  47.2413397  24.2481136  38.6061049
  46.0629463  25.1657534  38.8516760  63.0192566  21.7978621  72.4535561
  62.2302198  22.3303819  72.5539303  63.2014322  21.8143654  71.5139961
  56.2738943  79.4582558   5.2493143  55.5943060  80.1152611   5.4001045
  56.5117931  79.5667171   4.3285149  15.2052462 110.1152420  93.7494373
  14.8684871 109.2749786  93.4383488  15.9782100 109.8870945  94.2658710
 100.2596092  66.1663866   7.2487319 100.8370209  66.7513609   6.7581892
 100.6557178  65.3006124   7.1499020  84.2059422  80.2471828  33.5416031
  83.6188698  79.9327040  34.2291260  84.9937534  80.5259514  34.0083623
  77.7043629  96.7178631  26.0251570  77.6765013  96.8684864  25.0802946
  77.4676466  97.5620079  26.4093518  88.6009026  95.0513840   7.8076679
  87.8834724  94.5978165   8.2501727  89.3605232  94.9053955   8.3714908
  37.0162368  24.5881367  66.3653374  37.7117491  25.0829077  65.9320927
  37.2169352  24.6597719  67.2985125  16.6801238  39.7047949  15.7670856
  15.8158624  40.1123428  15.8235717  16.5064025  38.8173532  15.4532373
  87.1023560  82.7579212  17.4497962  86.1630344  82.7270317  17.6313019
  87.4704170  83.2599735  18.1769192  23.9405847   4.0083417   8.4601021
  24.8172855   4.2710033   8.1796759  23.6895108   3.3181497   7.8462386
 109.9482632  84.1448212   8.4464341 109.3967342  83.9785576   7.6819724
 110.8436584  84.0842533   8.1135142  75.8455145   6.1967177  96.2155599
  75.4534208   5.4504771  95.7621026  75.1172507   6.5989299  96.6889413
  18.4190774  61.4961624  88.5133457  19.0117383  61.2131023  89.2096710
  18.9361215  62.1123695  87.9945183   4.9915689 104.1736221   8.2323456
   5.8637559 104.5679665   8.2287174   4.4729960 104.7338867   7.6549184
   0.8907098  92.5951290  37.8145552   0.9600644  93.0882549  38.6320233
   0.7985441  91.6836071  38.0917835  48.1701231  11.8827438  84.9785042
  47.2769880  12.1743560  84.7954464  48.4029579  11.3378036  84.2267990
  81.0813618  71.7742491   4.8169881  81.2919521  72.3550272   4.0858409
  80.1251316  71.7800331   4.8597196  59.8504448  42.3984289  83.5775948
  59.8385048  43.3445597  83.7222481  59.0256453  42.2144365  83.1280613
  85.6235027  25.7112575  92.8588295  85.9992027  25.9868956  93.6949539
  84.7024345  25.9657264  92.9146099 117.3358727 107.6880264  22.5484133
 117.5152302 107.8633404  21.6246557 116.6568279 108.3199406  22.7846766
 117.1130657  96.0003376  34.5802116 117.0610428  95.7526970  33.6570644
 117.7776909  95.4175377  34.9474382  69.9137306  86.6164398  12.8254855
  69.3483877  86.1376762  12.2193468  70.7659674  86.1876583  12.7475071
 103.5502625   2.5187370  25.3486371 102.7486801   2.0926149  25.6521583
 103.5232067   2.4291155  24.3960261  76.9131851  26.1643863  83.5914040
  77.4473858  26.9249463  83.3624744  76.3593054  26.4684176  84.3104458
 110.9636307 103.1559277   2.6518896 111.4175320 102.4871445   2.1391150
 110.8369064 103.8814640   2.0405288  91.0499954  66.2647724  41.8206263
  90.5570889  66.3782787  41.0079813  91.2996578  67.1530294  42.0753813
  67.2730494   5.9500170   5.2646428  66.8539476   5.2777845   5.8019376
  67.5178528   5.4945946   4.4591022  86.1287403  64.6939993  23.0042076
  85.3597355  64.8727274  22.4629903  85.7772923  64.2702627  23.7872505
 103.8981915  81.9253731  16.1192238 103.5790825  81.5913868  15.2808595
 103.4323215  81.4079952  16.7761242 113.6586571 109.1592121  33.6311054
 114.5429897 109.2331314  33.2723188 113.0834389 109.2552471  32.8720760
  72.5605202  68.4039450  34.0970469  73.1744385  67.7296734  33.8060188
  71.7916918  67.9163504  34.3926549  69.4995165  83.8191891  40.4127550
  68.7877417  84.0649986  39.8218393  69.0771961  83.2897472  41.0891914
  45.3745317 102.2972012  86.7228031  46.1860466 102.3975945  87.2203922
  45.5913687 102.6114082  85.8450317  59.1443348 101.9083595  26.6762662
  58.9174366 102.5038338  27.3905206  60.0852776 101.7632008  26.7752147
  39.6786833   3.1113392  19.5529675  40.3382635   3.8049302  19.5420408
  39.8725104   2.6089424  20.3443336  80.1735497 102.8575802   4.2646608
  80.3418350 103.7027359   3.8479745  81.0130596 102.6103020   4.6523499
   4.7959930 110.9944153  90.7758904   3.9047921 111.1256981  91.0995579
   5.2262163 110.4816532  91.4601517 101.8495464  27.4665570  88.5910797
 101.5533066  27.4169731  89.4999313 102.5671959  28.0997705  88.6072922
 115.9218216  55.0595188  16.8512607 115.8377934  55.8409166  17.3976898
 115.8531666  55.3861046  15.9541214 102.9784679 106.6287518   4.9285522
 102.8010941 106.1019611   4.1492823 102.2110462 106.4983559   5.4855824
  27.5007749  18.4541917  27.7634740  27.7707815  17.8036976  28.4116936
  27.0168996  19.1082740  28.2677269  91.2037277  97.1826649  83.2112885
  91.7746067  96.5350723  82.7978230  91.7101955  97.9946995  83.1932354
 108.3026695  72.3757458  38.7421489 107.7658367  73.1166506  39.0233922
 108.2551670  71.7556810  39.4698119 106.8282413 106.4084435   4.2809466
 107.0383739 105.9416008   5.0897348 106.5726566 107.2845650   4.5695931
 101.3638783  61.8087578  25.4149103 101.3789654  62.6911926  25.7854629
 102.2750568  61.6314507  25.1813507   2.1890670 107.4979591  24.0607810
   1.6789687 106.6903782  23.9987826   1.5789586 108.1873417  23.7985754
  98.7822533  64.5443296   2.8730863  98.2056618  64.4783115   3.6342856
  98.2852936  64.1422987   2.1606037  17.8110766  25.4977989  20.7397985
  18.7071776  25.2564001  20.9742403  17.3757327  25.6466484  21.5791750
 109.6060753 100.6588364  28.3218169 108.7314892 100.6264305  27.9341674
 109.4483089 100.7468033  29.2618179 107.0119190   5.2576154  25.6927967
 106.7512989   5.2186328  24.7725844 106.2585449   4.9098980  26.1700320
   1.8972266 108.1931877   8.1903946   1.3606384 107.5530720   7.7228898
   1.2666875 108.7261868   8.6747134 116.9655609  88.5544395   8.4818274
 117.2572803  88.3331966   9.3662369 117.1067715  87.7542686   7.9758501
  21.8494606  11.7453051  11.5624714  21.6915083  10.8276796  11.3405585
  21.3010526  12.2373211  10.9514070  88.9690876  97.1103573  42.5433588
  88.9204121  96.4830780  41.8219852  89.5473194  96.6951084  43.1832409
  11.1702216  34.4833541  32.7894258  12.1171010  34.5163846  32.6531935
  10.9750473  35.2656078  33.3053899 111.8415833   2.8940919   4.3624246
 111.6571617   3.7797686   4.6751508 112.7952862   2.8209484   4.3988857
  29.0056467 105.4858303  91.2087154  29.4110107 104.6187878  91.1965656
  28.2093644 105.3852749  90.6871223  85.5320740  97.9383469  15.3264511
  85.4103947  98.8739967  15.4876447  84.9576664  97.7463150  14.5852256
  78.2799303 109.5962067  41.6645384  78.6261141 109.7381932  40.7835007
  77.5412047 110.2011596  41.7319870  70.4368782  43.7938929  89.6436405
  70.6776714  44.2293787  90.4613209  69.7126293  43.2161331  89.8842430
  77.2114658  83.9582539  21.0901999  76.6125250  84.5436668  20.6267452
  77.6831388  84.5292568  21.6965890  29.8471761  15.9884143  23.9497828
  30.7898808  16.1367917  23.8754749  29.7032166  15.8247030  24.8818278
 104.9458599  98.4694195  11.5863836 104.4238091  98.6852360  10.8136463
 105.7747269  98.1465054  11.2329173  88.3905220  85.2952290  13.5588336
  88.0004215  84.4213200  13.5404444  89.1328239  85.2388763  12.9571366
  46.0855532  37.4290681  17.4249399  46.1337566  36.6479063  16.8738580
  46.9885302  37.7426124  17.4754965  90.7884407  95.8861828  30.7586670
  90.8601093  96.5645885  31.4301300  91.6513920  95.8665848  30.3449321
  99.4010258  95.0508308  10.3330350  99.3126011  94.1734028  10.7052410
  98.7777901  95.0668049   9.6066999   6.9086319  16.6822076  28.8673186
   6.1015117  17.0780325  29.1961217   7.6046652  17.2553945  29.1886091
  26.5333629   5.3911340   7.8560185  26.5837336   5.8589560   8.6895871
  26.1826372   6.0350966   7.2407669 111.3364792  76.0859585  23.2554841
 110.6376743  75.4527330  23.0913639 112.1104336  75.5494642  23.4269452
  15.1029181  90.0802040  45.2027035  15.7739079  89.4069862  45.0896597
  15.5673790  90.8170033  45.5997419 106.1317825  85.5301666  11.0296714
 106.2025928  84.5761967  10.9955752 106.5960121  85.7763577  11.8297410
   7.5204182  86.8611622  35.6596708   8.0217868  86.2095547  36.1498427
   8.0961180  87.1127224  34.9375057  74.8594618  66.4383459   3.3191359
  73.9025593  66.4280653   3.3406982  75.0811386  67.2830343   2.9272276
 110.2449036  88.8081741  13.5352254 109.8201942  88.5336208  12.7225256
 109.6440315  88.5284328  14.2258310  35.8747005  27.5593901  38.2780480
  35.4730988  27.0258021  37.5923133  35.5517268  28.4450865  38.1123424
  88.8992310  82.9623604   9.1660219  88.4218502  83.7139702   9.5173484
  89.3382645  83.3009148   8.3857286  57.2614908  19.5121253  82.5371742
  57.5936651  19.6105468  83.4294796  57.7911472  18.8093591  82.1605873
 117.7791405  19.0123200  29.4128227 117.5420856  18.6953008  30.2843356
 117.1788216  18.5584152  28.8213634  39.0174198  19.2784202  83.7173176
  38.8392091  20.1760745  83.9978313  39.4826579  19.3750525  82.8863811
  81.7930031  86.9373512  80.6109047  81.7755032  87.8334045  80.2747250
  82.3778725  86.9768238  81.3676071   3.4588650  24.1976261  29.5927811
   3.1955218  24.1737103  30.5127335   3.8008234  23.3207130  29.4186640
 107.7084827  78.2490349  31.3416076 107.4497318  79.1662884  31.2525606
 108.5668564  78.2822323  31.7638922  99.9510574  72.6211214  21.5238404
  99.1560650  73.1112289  21.7336512 100.6556892  73.2647753  21.5975189
 112.1944523 104.8274422  12.6910889 111.9396782 105.6966305  12.3815167
 111.3714790 104.3415833  12.7447987  58.2470226  38.4648538  92.7975559
  57.8852797  38.7597704  93.6332512  59.0369320  37.9798031  93.0363083
   1.6884860 107.4285698  15.2809751   0.8434199 107.0106697  15.4466772
   1.5727349 108.3301640  15.5808961 116.8559647  98.1970882  21.8873239
 116.1881256  98.3788681  21.2261248 116.4528179  97.5467682  22.4624634
 111.6898346   2.3513356  13.3251119 110.9046936   1.9236988  13.6670542
 112.2623444   1.6292554  13.0661547  62.7187681  45.3841448  84.8151493
  62.6076889  44.8768663  84.0110588  61.9121742  45.8940840  84.8899937
 109.5263958  32.3704672  93.9079285 108.8749123  33.0367994  94.1265965
 109.0801811  31.7935777  93.2879925   6.7898786  62.9142284  12.1221209
   7.1548975  62.0324802  12.0478594   7.4129450  63.4714460  11.6557240
  17.1203947  75.1783228  27.8114080  17.9331005  75.6272745  27.5786352
  17.3978579  74.4605207  28.3806229 102.1379375  72.2105169  27.8516889
 102.3035240  71.3451529  28.2257986 102.8179646  72.7686453  28.2288980
  43.2657671   4.8425484  21.3357568  43.5500479   4.1873187  21.9730115
  43.3759737   5.6793559  21.7872429  91.2807560 102.6188564   8.0102241
  90.3512669 102.3993301   7.9462093  91.4424801 103.1960773   7.2639722
  15.0237715   2.3570481  11.0788643  15.5622435   2.8002751  11.7344785
  14.3137002   2.9724452  10.8963358 100.6336784  82.8951645  22.7370977
 100.8095646  83.6895657  22.2328854 100.6239033  82.1947098  22.0847964
  27.1692967 103.6837769  23.2824302  27.3754573 103.8955021  22.3719907
  26.4900351 103.0118847  23.2241750  33.0791378  26.4941406  32.6459908
  33.8066912  26.1831260  32.1073174  32.7174616  25.7008576  33.0411172
 117.4023914 101.2589073  29.8003292 117.3344040 101.0142612  30.7232356
 117.6789093 102.1751785  29.8151755  84.4281578 104.6758747  16.8128800
  84.6852493 105.5911922  16.9239759  85.1527977 104.1762161  17.1890152
 103.4525871  74.9278307  10.1967621 102.9569721  74.2297363   9.7686595
 102.9121304  75.7096338  10.0831139  15.2235746  88.2345486  36.1042881
  14.3037200  88.4961796  36.1448288  15.6769443  88.8656139  36.6632509
  84.3577480  81.5715122  13.9840806  83.8256359  82.3255920  14.2379475
  83.9368343  81.2370872  13.1921029  38.9761543   8.4873235  11.4430189
  38.0834985   8.4119850  11.1057937  38.9093542   9.1197932  12.1583879
 117.3913383   3.5435924  18.1574631 117.0984840   3.5792604  17.2468626
 117.8834820   4.3549699  18.2827365 104.5782948  96.8215752   2.4740413
 104.6962643  96.2480259   1.7168367 104.4336605  97.6893902   2.0969465
  75.8929205  69.6583891  63.6444283  76.0898781  69.5446014  62.7146435
  75.2214718  70.3402662  63.6653185  66.5689087  12.4583948  84.4496250
  67.5007629  12.2810972  84.5778942  66.4959908  13.4109819  84.5087337
  67.8463507   7.7462536  18.3941495  68.5585642   7.9436648  17.7858663
  67.4216890   8.5902369  18.5477352  12.0765829   2.0806487   5.5785245
  12.3946357   2.9564923   5.3594983  11.8202436   2.1420912   6.4987129
 112.8626537  89.8674583  50.7432365 113.5288048  89.7463608  51.4198542
 112.8533077  89.0382195  50.2652025  90.2300262 106.1306190  51.8329525
  90.0652981 106.4590931  50.9490967  91.0139942 106.5987206  52.1201897
 108.8193321  82.7431870  12.1787107 109.3523216  82.5519848  11.4069605
 109.2314053  82.2441864  12.8839934  67.9028749 107.4032116  20.8104610
  68.6444283 107.9840088  20.9807634  67.5895214 107.1536541  21.6798067
   4.4776469   2.9051712  16.8286467   4.6999481   2.5912941  15.9521222
   5.2408141   2.6847208  17.3626971  43.9652252   6.7421389  10.5356860
  44.6812677   7.1052301  11.0569155  43.1785393   7.1611494  10.8846676
 106.8801212   9.4609630  39.7049427 107.0794106   8.8115257  40.3792906
 107.6659203   9.4882721  39.1590452  63.6944818  13.0917764  86.7008018
  62.8472805  13.0662155  87.1455765  63.8538027  14.0222192  86.5422916
  85.3911304 100.6985378  18.6905885  85.5600166 101.1580563  17.8680623
  86.1817265 100.1806831  18.8423336  14.5421481 101.2908840  14.3881226
  14.9962997 100.5705070  14.8251987  15.0728917 101.4732647  13.6126995
  90.7181931 101.0875034  24.3502212  90.6436920 100.7310390  25.2354407
  91.1617565 101.9276619  24.4668841 101.0871983  97.2928905   2.4437651
 100.4195595  97.4874878   1.7860299 101.7912197  97.9153919   2.2618739
  36.9450593   7.1862257   2.2710207  37.5286722   6.6197497   1.7663097
  37.0353436   8.0474222   1.8630730  62.0046091  63.7969923  78.4499502
  62.4626875  63.1930113  77.8654861  62.5888681  63.8917494  79.2022038
  27.8044987  99.3860531   4.1533199  28.3509612  99.3407726   4.9378952
  27.7354479 100.3216362   3.9631969  53.8510466  19.2256260   1.1554877
  52.9714203  18.9572966   1.4209925  53.7747097  20.1650524   0.9885049
  99.7477329  73.0319890  95.5971927  99.5833052  72.7685580  94.6917649
  99.1808403  72.4637291  96.1186810  19.6260297  19.6835315  25.2112484
  18.7749290  20.0738716  25.0125146  19.5881426  19.4905245  26.1480212
  85.6508160  67.0819664   1.8613702  85.4412174  67.8019667   2.4562638
  86.5449524  67.2631979   1.5716788  28.5996651   0.6172321  62.5063038
  28.1064724   0.9991501  61.7802715  29.3670391   0.2217911  62.0927811
  48.7620831   8.4035820  49.6322536  49.2381573   7.5877470  49.7871733
  48.7345171   8.8310540  50.4882574  91.3916969  49.4586325  93.7023926
  92.1245861  49.0809107  94.1886425  90.6546783  48.8775063  93.8903332
  32.3885965  22.5683904  35.7993340  31.9483519  23.4083533  35.9292555
  31.7586875  21.9174457  36.1087203  63.1276560 102.3083878  13.7930644
  63.0957794 102.5851822  14.7088182  62.9729319 101.3642406  13.8226986
 104.2830276  95.7491398  21.7600513 103.8782978  94.9158001  22.0008159
 103.7624168  96.4093018  22.2176361  39.3896294   3.4042296   9.8999190
  39.6288109   4.1728777  10.4178035  38.4647751   3.5348040   9.6905714
  -0.0800909  75.0900841   1.3076182  -0.2047552  75.9222221   0.8512934
   0.3828227  75.3249454   2.1118455  65.8779907  99.6841526  33.6848688
  65.7473087 100.2920818  32.9571486  65.1201057  99.1006088  33.6485195
  42.5374937  12.0256424  16.7002130  43.0200672  11.5251684  16.0422778
  41.7572165  11.4999032  16.8762779 117.5249100  90.0132942  33.0922937
 118.1048965  90.6423759  32.6632214 116.8665886  89.8038864  32.4297285
  47.2774076  14.2991543  31.0419059  47.9119396  13.9528883  31.6693664
  46.8094730  13.5271370  30.7236981  81.1988449 106.1468506  19.4502532
  80.5331135 106.2926006  20.1224041  81.9490719 106.6661263  19.7396350
 111.9230270  51.1381245  94.3271160 110.9979630  51.3791656  94.2782497
 111.9230270  50.2677774  94.7255325  91.2541485  88.4097195  23.8888025
  90.7495689  88.6768436  24.6571040  91.1532497  89.1347599  23.2720613
 104.5830441  94.9547291   0.5754384 105.5314827  94.8477077   0.5030315
 104.2363548  94.5687485  -0.2289617  39.4411731  25.3118801  30.3838444
  40.3317499  25.2344441  30.7260537  38.8791275  25.0925159  31.1269546
  94.4923974 111.0440043  10.8166385  94.0937007 111.9140131  10.7977223
  94.9910844 110.9912937  10.0013089  85.5971050  33.5956454  69.3120766
  86.0975170  33.6684084  70.1248026  85.8499527  34.3672633  68.8052177
  50.8377934  25.0735831  77.4826431  50.2348948  25.8137846  77.4130344
  50.4907274  24.5490265  78.2041836   7.1542478  96.9779682  27.7282357
   6.9708544  97.7098179  27.1391702   7.0879751  96.2011337  27.1729279
  52.3888445  46.7217684  93.5768414  51.5309477  46.3151121  93.6988163
  52.3690701  47.4959755  94.1393757 101.8582916  85.0322628   9.6675426
 102.0536709  84.4465446  10.3989744 101.2580109  85.6814194  10.0342751
  84.8902130  13.3651590  84.4485855  84.7186089  14.2643154  84.1687584
  85.8341026  13.2547140  84.3341637  75.2741003  27.4636698  54.5582724
  74.4182920  27.8092289  54.8120737  75.1314211  27.0835018  53.6914682
  65.2930737  71.8233109   7.0810437  65.4652834  72.7225876   6.8019915
  65.2224159  71.8776369   8.0340850  66.6969204  89.9069023  29.3493295
  67.5341368  90.0788689  28.9183640  66.6139317  90.6052113  29.9987197
 102.1152210  74.3912745  22.5570059 103.0442429  74.6213770  22.5713420
 101.6595459  75.2314425  22.6090336  76.1312056 109.0583324  14.8868501
  75.8832645 108.1716824  14.6249104  76.7768145 108.9309978  15.5819845
  23.0658007  74.7233534   3.2813120  22.3303342  74.2011738   2.9609254
  22.7423525  75.1223898   4.0890154  85.9969997 107.2076130   1.3442123
  85.2722740 107.8319359   1.3793175  86.6758251 107.5974178   1.8950984
 118.3128357  90.7618904  25.3827715 117.6389408  91.3647461  25.6968784
 118.7203503  91.2201023  24.6477818  83.6347961 110.6640530  34.8274589
  83.3967686 109.7897339  35.1358986  84.4325256 110.5286789  34.3160558
  68.5176516  62.9661083  87.6086617  69.1193199  63.5856342  88.0214787
  68.1324005  62.4830532  88.3397388  64.1275549  96.4764214  85.4690838
  64.5976925  96.6618156  86.2819958  63.2494164  96.8284416  85.6146431
  82.9671288  49.4853163  73.3230162  83.7632942  49.3535376  73.8377857
  82.8113651  48.6398411  72.9021311  18.1264472   9.1027689  59.2184448
  18.1941164   9.7284496  58.4972095  17.3099434   8.6320025  59.0513134
 117.8754765  18.9493132  25.5654526 117.7888929  18.6248136  24.6691060
 118.6787804  18.5429585  25.8907390  75.2010965  62.8524351  82.9564381
  74.5930529  62.2284126  83.3528137  75.5010319  63.3921576  83.6878586
 108.8385963  73.5218477   4.7036615 108.1043243  73.7191439   4.1221523
 108.7814331  74.1822767   5.3941685 114.3861675 102.9753971  46.1429739
 114.4945621 102.0597553  46.4000511 114.2580700 103.4424305  46.9686317
 110.1083565  76.1248255  25.8220601 110.6136513  76.0954857  25.0096273
 110.0651646  75.2130842  26.1103177   8.4203595  60.5359507  40.8136463
   8.1457233  61.4268875  40.5967617   7.7640176  59.9755287  40.3996754
 113.7352467 107.2363281  26.3437581 113.9507389 106.3059139  26.2794161
 114.4209194 107.6762962  25.8412504  99.9148977  99.4787078   0.1608152
  99.0842092  99.6893840   0.5871934  99.8878897  98.5296159   0.0394506
  94.4529343 106.0996342  24.0350294  94.7601128 106.8493843  24.5446897
  95.1426125 105.9510517  23.3881092  94.5375252  94.4855118  37.8701401
  94.2842007  94.2238331  36.9849348  95.3930664  94.0778923  38.0047822
 102.2825336  79.5219278  27.8955245 102.5373650  80.4417515  27.9678035
 103.0849266  79.0355206  28.0847573  40.4417181   6.4084268   8.4369862
  41.0814667   7.1074426   8.5723710  40.2619457   6.0747427   9.3159455
 112.7625942  55.0459433   6.9128013 113.5693455  55.4108095   6.5491152
 112.9883766  54.1436148   7.1387595  50.7615900  37.6351523  80.3196430
  51.6420269  37.6830554  79.9471283  50.8354568  38.0755711  81.1662865
  41.2897158  15.1254976  85.7921791  41.3613272  15.8302057  85.1483631
  40.3477907  14.9892807  85.8944035  16.9525743   4.2298710  12.9912138
  17.3479831   4.8930603  12.4254727  16.1928856   4.6661490  13.3769166
 109.1931629  98.9033413  19.1155171 109.3294525  99.7657871  18.7233019
 109.7282887  98.3121490  18.5860252  79.1497850  38.6154270  94.2695522
  78.3467913  39.1324878  94.2056751  78.8463879  37.7124000  94.3629551
   9.0227407  42.0473814   0.5264364   8.4466171  42.1610498   1.2823415
   8.7193847  41.2388611   0.1135172  94.4781303 102.8935051  15.5005062
  94.2361450 102.3730373  16.2665284  93.7213707 102.8284931  14.9179935
  98.9729691  63.1796694  25.8672738  99.4016743  62.3847532  25.5501890
  98.9362907  63.7535381  25.1020503  19.7186995   3.0003923   7.5011134
  20.2525067   2.5420898   8.1501436  19.6409810   3.8917518   7.8412175
  39.4593167  10.1214814  56.1571550  40.2760029  10.1969492  55.6636333
  39.2268538   9.1949981  56.0953379  49.6486568   6.7480755  92.7284336
  49.2849302   7.1701682  91.9501209  50.3601408   7.3260933  93.0039692
 100.9067917  54.9475622  84.5153999 101.0783386  54.0843725  84.1389561
 101.6249561  55.4946232  84.1972828  12.0777595  84.9711800  33.2452297
  11.2116742  84.6161461  33.4454274  11.9074762  85.6872749  32.6333117
  98.6638641  80.3481102  36.3878727  99.2758179  80.5445194  35.6785297
  97.8377724  80.1545048  35.9447932  13.3597088   4.8561105  11.8392885
  13.2530820   4.6239835  12.7617741  13.1771886   5.7951564  11.8059611
  76.4527607  29.1317892  93.7830162  76.3475370  28.4868121  93.0836105
  76.8197823  29.9006009  93.3466053  85.8193302 106.1255169  43.5519171
  84.9596405 105.9897900  43.9503336  85.9994984 107.0565128  43.6823940
  61.5522957  32.5070810  92.6162148  61.7275858  31.7369771  92.0754337
  60.6692886  32.7792716  92.3663235  76.8299007  79.2475128  12.9806983
  76.9287729  79.3509293  13.9271450  76.2823248  78.4687901  12.8807569
 111.7391968 101.2257385  12.8278720 111.6027832 101.8510151  12.1160817
 112.4681282 101.5898895  13.3301568  31.5546846   9.9990916  41.5846014
  32.0148110   9.7196567  40.7931232  31.7674232  10.9284520  41.6698217
  99.6072865  55.6223392  91.6792202  99.0885353  56.3320208  92.0580101
  99.6915150  55.8544683  90.7544231  63.9588690   1.3340347  84.5936394
  63.9879942   1.0641448  83.6757374  64.8768520   1.3671756  84.8627949
  85.4988670 102.6717472   6.3675714  85.6980515 101.7508030   6.5361434
  85.0661087 102.9732990   7.1663314 102.7334690   0.5654729  27.8780198
 102.5119495   0.2622855  26.9975448 102.4425125   1.4771697  27.8976679
 115.2744865  79.2240047  13.8648891 115.6162357  79.8743486  13.2513034
 114.3328857  79.3936729  13.8939154  89.4853973 108.4109211   9.0294909
  89.3315887 108.8688564   8.2031345  89.3863201 107.4840927   8.8117492
  79.6773767  93.5702896  16.9768691  79.3485975  92.6843071  16.8246865
  78.8934898  94.1196156  16.9788063  32.8077126  13.7500548  15.2617979
  33.6149669  13.4395111  15.6718385  33.0866289  14.0915453  14.4121969
  73.8346541 110.8236294  19.6067786  74.5277083 110.6160032  20.2335215
  74.1308367 111.6274778  19.1797674  64.5050287  87.2620296  72.6177835
  65.1444292  87.0204639  71.9476700  65.0346231  87.5454426  73.3630610
  94.8390102   1.9920401  58.9528990  95.6302071   2.2885996  59.4026661
  95.1420593   1.2976225  58.3679390  96.9499588  15.8977330  91.8709183
  97.6831245  16.1247468  92.4429035  97.3277760  15.8833194  90.9915543
   8.8894427  24.2401123  11.4392388   8.3862978  23.4735036  11.7138076
   8.7695855  24.2779756  10.4903281  41.5824652   5.0083435  17.7066839
  40.6739998   5.3095436  17.6928055  41.9798040   5.4100174  16.9340169
 107.8931177   0.4426525  28.0623531 107.3069370   0.4093407  28.8183403
 107.6636970   1.2583683  27.6171470  34.5904970   5.2084148  19.6888757
  34.8065495   4.8939079  20.5667353  34.9937487   4.5706016  19.0999663
 112.0190144  76.1474228   4.9182993 112.6325512  76.3219547   4.2046213
 111.5627480  76.9784307   5.0505167  37.9972315  56.7680168  90.2056599
  38.2784319  56.3896847  89.3725872  38.4362364  56.2370396  90.8701706
   4.6138349  82.5508595  53.5845709   3.7421554  82.2457123  53.8361549
   4.5399141  83.5051441  53.5746241  56.1275482  30.6151128  79.8110533
  55.3253698  30.5876040  80.3325748  56.8338871  30.5731511  80.4556847
 110.2631474 100.0020504  33.5967851 110.9717655 100.4805851  34.0270019
 109.4733810 100.4975319  33.8135886  15.2259827   4.6482167   3.3707187
  15.3968024   3.7064496   3.3819994  14.7926271   4.8230571   4.2061025
 113.2244301  52.3027468   6.9646567 112.4106789  52.1804237   6.4756900
 112.9669476  52.2196341   7.8828216  57.9526520  54.5234537  76.0731411
  58.2052755  53.6037683  75.9919357  58.7745380  54.9834156  76.2439489
  30.0166702   7.4160177  57.5214577  29.4338155   8.1109488  57.2155428
  30.0000906   6.7638612  56.8209934  17.5611162  24.4085002  12.5428402
  16.7647731  23.9042187  12.7094853  17.9495084  24.5358229  13.4083867
  44.5077801  19.7175992  15.9079361  44.3427563  19.9521887  16.8211544
  43.8722992  19.0270400  15.7194483  36.7456102  26.5781236  56.1191034
  36.3499188  26.2176776  55.3255415  37.2189665  27.3542500  55.8194494
  59.6319246  23.8478947  40.6488371  59.9645901  23.0499434  40.2379370
  60.4136992  24.3730783  40.8198309  78.1686306  79.8161793  88.2369232
  78.0454111  79.0571928  87.6668453  78.2988930  79.4424725  89.1084766
  45.4519129  30.0980401  45.6638288  45.7004642  30.3290963  44.7688055
  44.8166132  29.3895316  45.5606461  40.9112310  40.8777094  14.5761621
  40.6118774  39.9743485  14.6789229  41.6540718  40.9534597  15.1750588
  94.2752743  19.2272937   9.5603681  93.5366917  19.8153377   9.4024616
  93.8767624  18.4314990   9.9126893  15.5818069  10.0483525  10.1853001
  14.8195589   9.5488030   9.8926222  15.2153707  10.8576965  10.5415547
  96.4058113  56.1789513  85.3504086  97.0362282  56.2786293  84.6370506
  95.6434917  55.7697678  84.9409294  45.1923227  10.8595729  18.6254013
  44.3812180  10.7276881  18.1345344  45.8482409  10.3552055  18.1441355
  78.7915564  40.6063700  78.2056904  77.9986477  40.3601170  77.7293634
  79.3824768  40.9402418  77.5307322  21.2323475  32.3061919  18.8330102
  21.1682057  32.4002051  17.8826010  21.3650298  33.1983232  19.1535270
  71.4608860   1.0106757  33.0480886  71.5936136   0.9366659  32.1030283
  71.0695982   0.1745780  33.3012009  99.5994759  93.8156700  18.1405485
  99.9466228  93.2210922  18.8055325 100.3648663  94.2974281  17.8269827
  60.1232672  75.8322144  85.6892300  59.5969296  76.2622404  85.0152302
  59.8640013  74.9118757  85.6446457  85.4686642 107.4327660  17.6080775
  84.7994709 107.9758453  17.1915841  85.3649426 107.6010704  18.5446405
  27.9477143  87.0682716  44.0577650  27.0943952  87.3682880  43.7446117
  28.5204339  87.8286839  43.9577723  38.1832385  14.9678826  13.0240297
  37.3431921  15.0820291  13.4684682  38.0100322  14.3112373  12.3494565
  55.8416462   2.9973742  24.3480134  55.7643270   3.2737246  23.4348392
  56.6453218   2.4780728  24.3738675  21.7579341  10.3257489  17.2676575
  21.3993001  10.0235212  16.4332294  20.9914255  10.4464710  17.8281260
 117.1752930  93.9973068  14.8813021 116.4353561  94.3489456  14.3862534
 117.4697208  93.2440567  14.3692970  22.6002979   8.5489637  42.6240158
  22.1005058   7.8883076  42.1444607  22.0434070   8.7769318  43.3684158
 115.0015259 100.9120846  33.6455655 115.1200008 101.4121914  34.4530845
 115.8712482 100.8923817  33.2462645  68.3470631  78.0297804  73.4768534
  68.6151361  77.4361420  74.1782522  67.7112913  78.6151409  73.8884068
  64.1092873  85.4250813  84.8777103  63.4540653  85.9068203  85.3825283
  64.9486399  85.7262325  85.2256012  92.8848350  62.8096667  96.0520416
  92.4625433  63.3391038  96.7285023  92.1947706  62.6483539  95.4085986
 117.2306644  23.3782268  17.4319518 118.0870771  22.9631233  17.3295891
 116.6335634  22.8220034  16.9316339  44.0988016   4.8597559   0.7098421
  44.1208649   4.6506846  -0.2239855  43.2524920   4.5279348   1.0096434
  83.4241676 111.3870525   4.6152276  82.8473091 110.8683491   4.0544993
  83.9462376 111.9080162   4.0050858  37.1299863  23.9356279  13.6984158
  37.1620297  24.4315982  14.5164728  36.5361476  24.4355345  13.1383431
  40.8391714   5.4798687  27.0138478  41.4732075   6.1803013  27.1675491
  40.2137947   5.8547390  26.3936782  33.8288736  10.3391695   6.8485373
  33.3098769  10.2569628   7.6486111  33.1834102  10.3251565   6.1418462
  11.5443540   2.6700580  10.5819762  11.7026246   3.3005887  11.2845516
  11.7356741   1.8190835  10.9762740  77.6462698  86.6524315  73.4411192
  78.5469627  86.7032242  73.7611198  77.3515987  87.5625992  73.4095955
 104.5910931  54.5443392  15.0959766 105.0924301  55.0958014  14.4953227
 103.7737465  55.0227880  15.2347326 107.8432655  53.5176516   9.7762495
 107.2837353  52.8055286   9.4663566 108.5830307  53.5226679   9.1688329
  21.8695116  13.7120640  57.4425888  22.2384691  14.4611216  56.9746017
  21.3151193  14.1015208  58.1187582  92.4439049 109.5184517  16.1279762
  92.7138233 109.2504501  15.2495956  92.9853439 110.2836132  16.3218975
  65.7527733   9.4336599  23.4779763  65.0829601   9.9070525  23.9714146
  65.2584219   8.8549477  22.8975105  10.5281663   6.5651590  21.6221189
  10.3603697   5.8595634  22.2467875   9.8755687   7.2326529  21.8337798
 108.7082481  99.5121384  36.8419790 109.5805550  99.2932320  36.5142512
 108.2011890  98.7081909  36.7289042  55.4064798   8.2651067   2.3456143
  55.6657553   9.1476357   2.0807564  56.1970806   7.8892630   2.7328098
  55.9209251  14.7722185  17.6021612  55.8835983  15.3072298  18.3950055
  55.6769276  13.8939142  17.8941917  45.4141855  94.1695976  92.7884865
  45.6740379  93.9939404  93.6928368  45.2611351  95.1141167  92.7624130
 102.7895832  56.6668749  83.1618500 102.6209164  57.1781111  82.3703861
 103.2207775  55.8725834  82.8465652  29.7865129  25.5179286  24.7650075
  29.5067048  26.4306736  24.6954513  29.9666572  25.3929830  25.6967640
  29.1948938  36.0640025  41.0455847  29.6916032  36.8671203  41.2021542
  28.5915685  36.2897086  40.3375721  95.7470608  62.1526957  88.2442951
  96.5144539  62.7239227  88.2764435  95.2311993  62.4011993  89.0113449
  66.6215992  19.0328813  52.3644257  66.5722704  19.9778318  52.2199821
  66.0707283  18.6565804  51.6780090  29.9934363  14.2380035  30.2195740
  30.5800247  13.6810565  30.7313919  29.4826269  13.6253786  29.6904254
  57.5198746  21.3034678  28.1750965  58.2108068  21.9314671  28.3859515
  56.9410849  21.7760587  27.5768566 108.9508343 102.0363808  22.0830846
 108.7820816 101.1393452  21.7948508 108.7936115 102.0182037  23.0271077
  71.1679888  73.0147314  95.0967884  70.8232021  73.5588980  94.3888092
  72.1143961  73.1550884  95.0675869  20.6705546  35.8526111  27.2716737
  20.3056192  35.2882886  27.9532862  20.2888608  35.5230260  26.4580917
  61.9737005  74.5248652  96.3336277  62.7264452  74.6243000  96.9164848
  61.9466591  75.3419781  95.8358097  93.1908131  48.6714363  84.3637753
  92.9343414  48.0117893  83.7193203  93.1004715  49.5050955  83.9021587
  16.0982227  86.5451241   3.9486974  16.2171078  86.4904785   3.0004826
  16.0458958  85.6336975   4.2364475  39.3469167  84.7745991  91.4939022
  40.1187515  85.1723862  91.8967342  39.5635271  84.7205639  90.5630970
   9.6096325  19.6917021  13.7048531   9.5813245  18.7625897  13.4764242
   9.9435139  20.1218295  12.9176140  13.5214531  31.8373942   2.5506729
  12.8831756  31.3118148   3.0329585  14.2475283  31.2369347   2.3818661
   7.9583400  15.2768159  39.9320936   8.2439762  14.6326232  39.2842817
   8.6766660  15.3162503  40.5635071  11.0943615  35.3223062  12.3522067
  10.2219307  35.5945969  12.6367295  11.0062420  35.1832986  11.4092624
  83.1519699  33.3632827  92.6580620  83.1232166  33.7975001  93.5106277
  83.8544559  33.8097858  92.1854401  20.5283809   3.9331096   2.6903811
  20.1859570   3.6535117   3.5393825  21.4779329   3.8469100   2.7749357
 110.8635330  70.6678343  22.5057220 111.0358334  69.7264671  22.5251150
 111.7223263  71.0656166  22.3626328  66.2574911  73.7624598  65.0691605
  65.4908323  73.8715601  64.5065260  66.9338274  73.4150648  64.4876814
  71.2805748  76.6073608  95.4787350  70.8172941  76.5931225  94.6412373
  70.6830597  76.1770630  96.0903263 111.9694233 109.5637131  20.6729054
 111.0603714 109.7752380  20.8852720 112.4210262 109.5733833  21.5168238
  41.6182709  14.3759537   2.4467619  41.4322186  14.9128795   1.6764846
  42.5286293  14.5764148   2.6642409  83.7747192  51.0876179  92.9641056
  83.5051441  50.2685547  93.3796597  84.4516754  50.8277035  92.3392773
  57.1226454  84.3338776  80.0961971  58.0430031  84.5281506  79.9189091
  57.1236706  83.9485168  80.9723949  88.2459164  62.3915386  82.5154495
  88.5485554  61.5705442  82.1273518  88.7362671  62.4644661  83.3342743
  94.9116993  97.8001976   8.3136648  93.9704227  97.9193020   8.4403342
  95.2841187  98.6709976   8.4523749  84.9783993 104.3565273   0.7364582
  84.4036961 104.5575523  -0.0021463  85.2669144 105.2117729   1.0551381
 113.5877037  50.0886631  11.0443449 113.2144547  49.3568277  11.5355992
 114.4275379  50.2596998  11.4705586   6.6746455   3.2698712  14.5087993
   7.3394996   2.5814497  14.4921577   5.8486080   2.8086537  14.3632901
  72.5827694  49.1956043  84.9359703  72.7112484  49.7330809  84.1543961
  73.1877756  48.4622812  84.8244572  15.0977957  26.9460106  12.4321830
  14.4426572  26.6002107  13.0383599  14.7195220  26.8044162  11.5643740
  36.5820003   4.2564279   8.8713682  37.2074318   4.9664032   8.7264508
  36.1820579   4.1108301   8.0140007 105.9806252 110.6400681  40.4558468
 105.5161667 110.6569386  39.6190500 105.3198910 110.8903885  41.1015987
  55.3661346  26.1747813  12.0495725  54.7684097  25.7857013  12.6879883
  54.9312353  26.0484409  11.2062860  12.4035513  18.3648944  58.2189417
  11.7082930  18.1110942  58.8259268  11.9854939  18.9852643  57.6217794
  57.7913237  23.5837555  19.3856418  57.0145226  24.0396523  19.7096336
  57.4665594  23.0346608  18.6720204  92.7804375 101.2137699   9.5008963
  92.3601437 101.8589783   8.9323187  93.4292984 101.7157269   9.9940902
  22.5328994  26.2080312  52.6098299  22.6904607  27.1443796  52.7308846
  23.0387282  25.7881212  53.3055639  32.8709316  23.6895418  19.9741340
  32.6987553  22.9181314  20.5140543  32.5383687  23.4546399  19.1078460
  78.4310246 105.2067280  32.3253107  79.2428446 105.6736088  32.1273017
  78.6215734 104.7259426  33.1307721  17.0973706  42.9356766   1.9225805
  16.8260324  43.5670710   2.5888753  18.0517006  43.0062914   1.9002178
   5.4286063 101.6988277   3.3268279   4.5772290 101.3183308   3.5427347
   6.0229039 101.3479424   3.9900962   0.8062663 104.2720318  11.2304974
   1.3017090 105.0027180  10.8605397   1.2099276 103.4919453  10.8500457
 101.2225437 106.9402790  13.1860900 101.8767166 106.8403339  13.8776815
 101.1676693 107.8851318  13.0430317   7.7712083 102.2301960  10.9643066
   8.4938318 101.9796658  10.3887379   8.1845987 102.3874092  11.8132019
  71.3742018 106.5965652  15.6143892  71.6715097 105.9024429  15.0261366
  72.0394278 107.2800922  15.5337977  90.7583523  62.0328665  77.6259422
  91.1566353  62.8822565  77.8160524  90.0239277  61.9706392  78.2366610
  82.3323536  58.6955643  68.8236952  82.2325230  59.5220184  68.3512115
  81.4574051  58.3074617  68.8149261  31.4901257  56.4083958  69.0441513
  30.5765200  56.1277056  68.9915085  31.8244004  56.3042259  68.1532860
  94.9329472  65.2966595  86.8640804  94.8796177  66.0485268  87.4540615
  94.1065884  65.3120089  86.3812447  84.4185257  98.7050152   9.7718847
  84.3481541  98.1451702   8.9986783  85.2360058  99.1866016   9.6452934
  51.5027046  32.6849651  13.5619080  51.6724825  32.6334214  12.6212955
  50.6112766  32.3512554  13.6630297  65.0238895  22.7778721  41.9056749
  65.0493526  23.5153723  41.2960196  65.2415800  23.1616735  42.7551079
  28.5212111  48.4660149  94.4358444  27.6276779  48.5095453  94.7763348
  28.5337996  49.0957212  93.7150478  59.5361090  51.7629719  85.9849644
  59.7551632  52.2891808  86.7539597  58.9582586  52.3239183  85.4676056
  12.5056481  72.2572041   5.2023256  11.8264914  71.6410875   5.4768801
  13.2438970  71.7028570   4.9495009  16.6282094 104.0149212  12.8118908
  17.4553025 104.1520882  13.2737732  15.9969211 104.5570278  13.2849932
  59.8246431  60.9581566  78.4532642  60.4000473  60.9755754  79.2180157
  59.5105171  61.8584394  78.3693314 110.3442287   4.8549858   7.1073496
 109.9651051   3.9858872   7.2383577 109.7527981   5.2835095   6.4886320
 113.0243683  96.2478542  93.8867760 113.3746529  96.9373131  93.3226967
 112.2603226  96.6452885  94.3045235  54.9837637   2.4468018   9.0000474
  55.3315496   2.7675802   8.1679547  54.3405104   1.7831968   8.7508875
  79.6826839  54.7405148  86.1714745  80.3020382  55.3859520  85.8308315
  79.5361614  54.1401339  85.4405212  14.6229506 102.0093536  29.7930956
  14.4834650 101.9205475  28.8502884  15.2351558 102.7404022  29.8768306
   6.1371189  76.2960958   9.1572642   6.6030473  75.9267473   8.4071147
   5.7584655  75.5373430   9.6012813 113.6059475  92.1840572  12.5616634
 113.9754581  93.0596542  12.6757562 114.3640232  91.5999222  12.5799704
  67.6183033  43.4066105  88.3505344  67.2292614  43.5025072  89.2198277
  68.1021976  44.2210436  88.2135105  60.9401035  63.6940241  92.4070644
  61.2525463  62.7906609  92.3566628  61.0626268  63.9390182  93.3242321
 103.5017586  45.0451231  83.7429523 104.2388058  45.3280210  84.2842102
 103.7818813  45.2227592  82.8450680  53.8077545  32.2263741  36.7310739
  53.7088394  32.2624564  35.7796836  53.5009813  31.3519239  36.9707799
  10.1376951  86.0785866   9.0284407   9.1876119  86.1943054   9.0148944
  10.2714443  85.1656818   8.7735856  10.6216478  88.0221653  22.6121354
  10.5268979  88.8427162  22.1284485  11.5121269  87.7304363  22.4167705
  16.2924087  23.9963007   2.1396911  16.3236177  23.2043290   2.6763833
  16.4649975  24.7092819   2.7545932 105.7808113  77.2868443  25.5395937
 105.4729557  76.6887522  26.2205791 106.5288734  77.7347898  25.9345293
  65.1402760  57.4348974  83.7814522  65.9605789  57.4453402  83.2882690
  64.5800781  56.8248272  83.3016205  48.2170343  38.6511874  12.6766551
  48.8206148  38.8530016  11.9616771  47.8125477  37.8219366  12.4217713
   9.6916270  21.4955616  32.4501371   9.2985296  22.1003890  33.0793381
   8.9585704  20.9654236  32.1373892  90.6638050  15.8840096  24.4087481
  90.6208324  15.5969906  25.3208923  91.4482880  16.4308429  24.3664336
  13.0945396  70.0635052  43.1699419  12.7077222  70.8926392  42.8886271
  13.7621248  69.8746967  42.5104666 100.7104301  93.8425827  23.3347392
 100.7009602  93.1491089  23.9944649  99.8988438  93.7165737  22.8431344
  46.0160828  17.8036606   5.9378552  46.1839104  16.8612885   5.9368807
  45.8520126  18.0186725   5.0196594  77.6771295  61.7118457  96.5473661
  77.0825780  61.6058829  95.8047270  78.5183704  61.3841101  96.2293486
  91.4552784 106.9090271  22.4806976  91.6778564 107.7007008  21.9908643
  92.2060108 106.7647934  23.0567479 111.0897160  91.4957714  17.1546721
 110.9943867  91.7026138  18.0843830 111.8210602  90.8791828  17.1202457
   1.1774036  89.7107792  49.3761683   0.2721887  89.9188328  49.6075344
   1.1435451  89.4989014  48.4433270  33.8899541  22.3726177  12.8812611
  33.4901476  21.5034246  12.8514564  34.5611763  22.3043513  13.5602546
  43.0032349  42.2816849  68.8873768  43.5320711  41.4871836  68.8143587
  42.0984888  41.9697142  68.8690615  25.5360365   5.9886527  34.5183706
  25.6812000   6.2975490  33.6240864  24.8645926   5.3119445  34.4319987
 108.0122089 106.2072182  26.6117477 108.9244175 106.4953518  26.5789700
 107.8658962 105.9791946  27.5298071  20.7615995  -0.3475353  20.5679536
  20.6807733   0.3979430  21.1629009  20.6047297   0.0215556  19.6988201
  53.2828569  80.9605122  86.2414360  52.9492426  80.6661224  85.3939247
  52.7435350  81.7204285  86.4602852  76.5278101  38.1504321  90.3076458
  76.7028522  37.4095201  90.8878613  76.9420862  37.9089856  89.4792080
  90.7909679 105.3392792  39.0055394  91.3815117 105.2547932  38.2569718
  91.0163212 104.6019363  39.5728016  24.9664450   9.1607082   8.6625677
  25.1573658   8.7872070   7.8021735  25.6290054   9.8413885   8.7805611
  39.3717766  76.9170666  94.5942020  38.8160992  76.1604357  94.7811794
  40.2531910  76.5527010  94.5130730  84.7803020 102.9187012  78.1870890
  85.2261448 102.0793152  78.3006096  84.1095734 102.7462101  77.5263262
  50.3053141  15.1288748  19.9053359  50.1878500  16.0376441  20.1820517
  49.6912003  14.6324861  20.4463530  56.0722399  46.1208391  87.5117397
  56.1254644  45.1659012  87.4731255  55.1344728  46.3067198  87.5594807
  39.4920206  41.8648529  22.1135569  39.3361139  42.2994804  21.2750936
  40.1693344  42.3937225  22.5351930 114.8062611   5.5152148  31.1983943
 114.0115643   5.5704784  30.6676984 115.1285839   6.4154816  31.2414670
  41.9325447  34.6293163   3.9945728  41.5137625  33.7762475   4.1091520
  42.1022701  34.9344516   4.8858178  43.3338213  49.2324495  95.2649212
  42.9226255  49.9847412  94.8392296  43.5081196  48.6190367  94.5510674
 112.6427364  80.3148842  13.9677358 112.1384525  79.8931789  14.6635079
 112.2411251  81.1782837  13.8704467  37.3639631   6.7237675   5.4021251
  37.6069975   6.9167256   6.3076270  36.5789866   7.2492957   5.2476370
 111.9508648  46.4163971  52.7260065 111.7103291  46.0318136  51.8831158
 112.0031261  47.3565817  52.5541115 104.6582699  92.6682949  13.5363173
 105.2741623  93.3267021  13.2147419 105.2091408  92.0166206  13.9700127
  57.0668364   5.5078071  45.6870651  56.2313604   5.0469804  45.6105518
  57.1645594   5.6724149  46.6249275  21.7583203  25.4224730  33.4855914
  21.3536716  25.3893709  32.6187587  22.4911284  26.0299802  33.3847904
   0.2001082  18.6620915  58.6895514   0.6344687  18.0395806  59.2726803
  -0.3188528  19.2152321  59.2734575  12.8693080  29.1579366  48.3956909
  13.0338967  28.3469439  47.9146194  11.9862938  29.0515327  48.7495232
  68.8200235  30.2620935   6.7915928  68.5634422  30.6389928   5.9499592
  68.7912321  29.3159986   6.6490901   5.6428975  19.7087514  40.5438471
   4.9454239  19.9761403  39.9452949   6.0661054  18.9712584  40.1042652
  34.8360658 100.6818867  21.1507010  34.5753264 100.6790161  20.2297020
  35.7926536 100.7081413  21.1287308  60.1620150  33.7352037  47.4732351
  59.4534302  33.6782312  48.1142426  60.7811689  34.3572307  47.8552914
  37.5197506  16.5859437  50.5674696  37.1275234  17.4590600  50.5598640
  38.1479287  16.6118491  51.2892389   1.8780822 100.0586891  16.8562961
   1.2066200 100.5130672  16.3474607   1.4245403  99.3037128  17.2311783
   6.8181521 100.7371902  39.8240995   6.8830812 101.5890312  40.2558136
   6.7435902 100.9456825  38.8928628  72.5741720  62.9666042  80.7013035
  73.1946993  63.4135294  80.1255989  72.3042059  63.6369753  81.3289642
   9.9305576  85.6510353  36.8544340  10.5768609  86.1229992  36.3292909
  10.1228929  84.7266769  36.6969633   1.5793477  91.9941711  17.5444806
   2.0678848  91.8471909  16.7345667   0.7887693  91.4634037  17.4469948
  53.6105061  14.6211243   8.3461976  52.7557802  14.5828426   8.7753886
  54.1609478  14.0259588   8.8551414  25.5494499  26.0246730  39.4468451
  24.6819997  25.9582615  39.8460340  25.4782581  25.5234885  38.6344552
  95.1459694  93.4437466  10.7270229  95.1004887  94.3729305  10.5016720
  95.8833790  93.1093025  10.2165365 104.3724251  80.8158207   4.9613726
 104.7329521  81.4918137   4.3875408 104.2073917  80.0723934   4.3814379
   9.7302842 107.8672314   9.5009267   8.8060933 107.6293850   9.4265282
   9.7637904 108.7851715   9.2316997  49.9235964  28.8069654  30.3331494
  49.0556812  28.9569926  30.7079124  50.0234747  29.4964123  29.6767020
  97.9028225 106.1451435  31.6388988  98.0132580 105.5975628  32.4161935
  97.7832794 107.0298576  31.9841909  71.8864822  88.9059544  60.9740114
  72.6126909  89.2002869  61.5237570  71.7327595  88.0007839  61.2446737
 102.7659607  23.7700081   3.4732029 102.1950150  23.0399489   3.2339010
 103.6500263  23.4049606   3.4356764  36.4517689  12.0933151   2.2781476
  35.9944224  12.5418496   1.5668926  35.7607603  11.8615484   2.8986496
  97.6161671  93.0345154  87.7273083  98.1423187  92.4883652  88.3113575
  96.7308807  92.9874420  88.0882740  72.7458191  10.9938979   9.6700746
  72.1610880  11.1205328  10.4172599  73.2472420  11.8075740   9.6177423
 117.1200466  95.9934616  19.7805786 116.9270706  95.8371830  20.7050061
 117.0006657  95.1402569  19.3634164 116.7866421  37.1997356  31.0140610
 116.1305428  36.7701864  30.4651952 117.5147057  37.3809314  30.4196501
  18.6064649  25.4969335  10.1715195  18.5649347  26.4501143  10.2486801
  18.1957245  25.1736045  10.9733808  85.8314705  67.4529648  71.2120438
  85.4067326  66.7753887  70.6860018  85.1668644  68.1354666  71.3053799
  26.7305624 111.2895244  16.3819754  27.0930159 111.6513876  17.1906257
  25.8658039 110.9639133  16.6317737   1.0181223 101.8141365  26.9657230
   0.4802405 101.6526413  27.7408576   1.8684374 102.0803547  27.3154712
  24.4994354   8.0083793  27.6742053  23.6094332   8.1744879  27.3635030
  25.0554872   8.5371447  27.1019769  68.1265736  54.1015577  82.9478741
  68.0550432  53.3512354  83.5379028  67.4187374  53.9773941  82.3155975
  59.8167276  57.3408985  92.7963734  59.4939375  58.0903959  92.2960854
  60.2906847  57.7298021  93.5314655  74.4877625  91.1605072  29.4309258
  75.1456928  90.9581566  30.0960684  74.9340916  91.0072613  28.5981369
 109.2482758  64.7072506  16.0237122 110.1722050  64.8515606  15.8193636
 108.8174248  65.5250645  15.7751513  24.2238617  31.6087604  48.1675434
  24.4274759  32.5422287  48.2259178  23.5774827  31.4609790  48.8578987
   0.7769567   2.6963937  42.5453424   0.3237322   2.0882422  41.9614124
   0.2157119   3.4715044  42.5663137   2.2254515 103.4642696  63.8095093
   1.5217006 103.4439850  64.4580126   3.0213428 103.2975197  64.3144703
   8.4649819  15.7814443   4.9138841   8.3141029  14.9071646   4.5545769
   8.7753975  15.6236708   5.8055013  81.7667103  79.9207163  52.3466253
  80.8652496  80.1810837  52.1573639  82.2580242  80.1729870  51.5648317
  59.6300364   3.2099882  22.7425051  60.1069832   3.5565853  23.4965754
  60.2576065   3.2544312  22.0211101 108.4710407  76.8960238  10.7782161
 107.9248714  77.2646809  10.0839329 109.1320038  77.5679255  10.9452522
  62.8994465 111.6411972  22.5954080  61.9923592 111.3633251  22.7227521
  63.3694506 110.8347702  22.3832655  36.5695059  20.5144551   0.3053350
  36.3222420  21.3522056  -0.0861579  35.7386887  20.1184705   0.5683202
  13.2075751   9.0099388  11.5286827  13.0157137   9.6720171  12.1928155
  12.4208963   8.4654301  11.4990389 117.8428033  98.9125538   9.9691850
 117.4757847  98.0311203   9.9013180 118.7892585  98.7754345  10.0098252
  37.0711398  39.4595408  14.7821259  36.1405706  39.5936632  14.9618113
  37.1801829  38.5085726  14.7807848  24.3300557  30.2217484  22.4699163
  24.9080610  29.6063733  22.9209757  24.8192310  31.0444117  22.4571443
  27.9196572 106.6894150   4.6092373  27.0277023 106.6836071   4.9565345
  27.8066921 106.6780186   3.6587948  15.6579053  82.9805660  34.5636535
  15.9107101  83.7797165  35.0259042  16.4418960  82.7276325  34.0761924
  91.5229511  79.7705841  52.9147768  92.4597645  79.5832014  52.8555679
  91.2411308  79.3315315  53.7172985  29.1331339  70.6076860   8.5495442
  30.0204945  70.5500937   8.9038128  28.5644150  70.4217243   9.2966795
   4.9150783  11.6605270  87.0766354   5.6512046  11.1499643  87.4137974
   4.7467345  12.3147011  87.7548313  62.7837515  27.1168518  19.0345109
  62.4191332  27.5364256  18.2552528  62.3986244  27.5971007  19.7674978
 103.6218643  30.1780534  88.4075737 103.4434414  30.1483822  87.4676132
 104.5759106  30.2256155  88.4688759  97.2093201 107.6773453  40.7925701
  96.7693424 107.0200348  41.3316345  97.1277714 107.3469925  39.8978925
  56.9220924  30.1140761  22.9133487  56.5446281  29.4528174  22.3332691
  56.2497950  30.2608585  23.5787106  40.6303740  23.7380552  18.0961442
  39.8673296  24.3093753  18.1832707  41.1012030  23.8394570  18.9233494
  85.9796238  58.7526417  94.2683983  86.8179989  59.1680193  94.4704056
  86.1529636  57.8142738  94.3436050  26.5942740   8.8273495  34.3903613
  25.7263899   8.9209867  33.9976287  26.6792512   7.8896457  34.5627618
  63.2846594  23.7399459   9.8208445  62.5922346  24.3543339  10.0643778
  64.0959072  24.1814423  10.0722170   0.0218476  99.6461296   5.6850779
   0.2492806 100.5699635   5.5800068   0.6123961  99.1848469   5.0895089
  89.2047119  92.2091961  89.6737099  88.8953590  91.6062927  90.3497601
  89.7022724  92.8716755  90.1530743  62.7001762  91.3040447  90.7818413
  62.3112059  92.1633816  90.9445667  63.3451366  91.4598370  90.0919247
  76.4881193  37.8420833   2.0508260  76.9708407  38.5595992   1.6404790
  75.9115278  37.5154594   1.3601083  91.4792252  27.9302979  82.1804237
  90.6655598  27.4462986  82.0392704  91.8338966  27.5706124  82.9934788
   2.4598730 103.7558365  57.9339886   3.1527224 103.1057930  57.8171873
   1.9239560 103.4091377  58.6473083  91.6182423  60.3085661  85.4110146
  91.8434811  59.4212723  85.6906796  92.3192787  60.5546761  84.8075104
  23.9484882  15.0981617   5.6610018  24.4602871  15.4310751   6.3982010
  23.2160354  14.6351218   6.0676223  96.1175632  61.2172031  83.4678078
  96.5283585  62.0713854  83.3342075  96.8079948  60.5853558  83.2670593
  23.7517452  26.7480731  32.1875119  24.5400715  27.2002435  31.8869877
  23.6656809  25.9991002  31.5977097  58.8548422  30.9269381  26.7102504
  59.5042467  30.2514291  26.9056821  59.3027163  31.5233135  26.1102700
  24.2437005   9.9285048  18.4707618  24.6585298   9.7447020  17.6279294
  23.3067918   9.8251349  18.3041847  39.7207928  32.2915339  34.3738842
  40.4591465  32.8485894  34.1273952  39.5498705  32.5117135  35.2896023
  25.2571583   9.1925973  49.6184397  25.7921600   9.8576880  49.1852427
  24.3697453   9.3525386  49.2972708  19.2009282   3.4522533  55.7167053
  18.7745512   2.8036976  55.1565218  18.9201427   3.2247540  56.6030693
  48.5408354  22.9606748  37.6277781  49.4797564  23.0901051  37.7615905
  48.4684992  22.6455164  36.7268491  80.6893635  58.7081861  94.4267941
  81.6281891  58.7040997  94.6133709  80.3980160  57.8227997  94.6446133
  85.9352207 106.2044334  81.5050697  85.5782604 106.4028835  82.3707676
  86.8097782 106.5934467  81.5116787  68.8298464  30.4190040  51.6332388
  67.8749323  30.4536414  51.6895247  69.0090084  29.6762109  51.0567045
  35.2776098  65.3380966  27.8821087  35.4146910  65.2563381  26.9383121
  35.3996134  66.2702942  28.0619860  69.8112238  70.4522571  96.5267188
  70.3112161  70.5405101  95.7152693  69.1545451  71.1471257  96.4801982
  75.9459162  23.3681679  19.3941391  75.4373360  23.0527425  18.6470902
  75.6621027  22.8199935  20.1257014  53.9924097   3.3298063  54.9205542
  54.0543079   2.5165343  54.4195652  54.7826242   3.3391380  55.4606533
   1.4645502   1.5858836  45.0557232   1.5223935   2.2519246  44.3706846
   2.1746191   1.8017548  45.6602335  25.2621627  39.1495395   8.2191539
  25.1153207  38.9555931   7.2933823  24.5113993  39.6861124   8.4734690
  36.6650057   3.1207964  27.1212864  37.5474358   3.1616521  26.7526674
  36.2269688   2.4340864  26.6185093  61.7090464  18.3359146   2.0086330
  60.8134556  18.0387294   2.1693286  61.6885233  18.6880422   1.1187922
  44.7750330  15.7513070  22.2440171  44.8181438  16.3427222  21.4926171
  45.4355288  15.0830936  22.0610857  63.0959320   3.5900635   5.7638448
  63.4174681   4.4092613   5.3873318  62.5043058   3.8644481   6.4645064
  80.4600048  80.7112312  80.4618263  81.3077831  80.9777641  80.1062298
  80.0026703  81.5344524  80.6332588  37.1854591  17.8467536   8.2878792
  37.5824332  18.6105597   8.7065005  37.0468998  18.1162441   7.3799103
  45.7569361  35.4711127  15.5454862  45.7245493  34.5347738  15.3493965
  44.8448467  35.7575321  15.4976106  68.9263248   7.5304699  38.4816027
  69.7281361   7.6474416  38.9911628  68.3698416   8.2656759  38.7385607
  83.6263657  74.2423534  89.8668861  83.3495617  73.8362932  90.6883049
  83.2251740  73.7025881  89.1857624   3.9820817  52.7427197  22.9934216
   3.9332622  51.8207788  23.2461476   4.6575534  53.1116295  23.5625243
   1.8963443 106.5898800  10.4359150   2.5044966 107.0497036  11.0146523
   2.1702999 106.8396664   9.5534271  37.8604912   0.3220985  24.7917318
  37.0185875   0.6258343  25.1311207  38.1743359   1.0446976  24.2480612
   2.4762750  29.9705315  26.7746449   2.0283654  29.6286058  27.5483990
   3.4007487  29.9898553  27.0220447 101.3975811 110.1942062  30.0058365
 101.2948799 111.1205864  29.7879004 101.7641830 109.8010445  29.2138362
  56.4866877  97.5813484  12.3573732  55.6434917  97.1283054  12.3602521
  56.4905357  98.0854130  13.1710887  39.7495747  14.4772673  19.6233153
  39.2435241  15.2548647  19.3877590  39.8921132  14.5608091  20.5661488
  69.9955845  33.2699537   3.3689016  69.9916220  33.4287930   2.4249807
  70.9126425  33.3691669   3.6246288  80.8097839 108.2839394  48.6673737
  80.9706497 109.2187881  48.7954330  80.2112007 108.0447674  49.3750000
  46.4126921  58.6586189   1.5874311  46.8447447  57.9815531   1.0667092
  47.0777225  58.9375067   2.2168659  66.7474604  65.0990105  93.6603642
  67.4820709  64.9436903  94.2540455  66.9558573  65.9301758  93.2337856
  30.1751590  25.3679848  44.8492146  29.3673611  25.8555365  45.0104237
  30.4157424  25.5934858  43.9506054  28.3515573  24.1918492  10.3148079
  27.9419160  23.3318567  10.4088116  28.1516409  24.4554806   9.4166064
  19.1120255 103.3176517  22.7698731  18.9880335 102.4910164  22.3034763
  19.0325439 103.9891624  22.0923829  68.8205576  20.3445172  11.2767172
  69.3554020  20.6293488  12.0176923  69.0894270  20.9126902  10.5548310
  49.9755526  98.4089279  33.1093907  50.1776409  98.4420586  32.1743536
  50.7465315  98.7845516  33.5345173  52.3367119  54.0029526  17.2711098
  51.8769884  54.7497749  17.6547110  53.1545305  54.3711615  16.9367075
  53.8560200  10.5067909   7.8053278  53.6543751  10.2806330   8.7133050
  53.2372332   9.9921179   7.2872138   7.9224652 103.8050365   5.5130148
   8.1756890 103.6666393   6.4256799   8.5122532 103.2410908   5.0126630
  36.5454697   0.7253120  34.6327400  37.1409535   0.1509712  35.1141453
  35.6746125   0.3692196  34.8089099  64.5628357   2.4504758  14.3809092
  63.7899685   2.6411188  14.9124742  64.5510054   1.4993937  14.2735112
  44.1474819  18.0204666  86.7014790  43.9868021  17.2605991  87.2609520
  43.2744455  18.3511901  86.4901447  28.6381125  24.2506576  17.3067164
  29.0408397  23.8416743  18.0727291  29.2110014  24.9892616  17.1005797
  58.5518456  17.1601570  45.3941345  59.1220284  17.6785529  44.8263407
  58.2835817  17.7678370  46.0833263  53.9990854  28.3197665  13.0415404
  54.1350746  27.9910946  13.9301980  54.7920752  28.0670667  12.5687408
  10.0634933   5.3888297  32.8211808  10.5924475   5.5809259  32.0468807
  10.6834006   5.4246837  33.5496449 115.7514381  90.8858967   9.3190920
 115.9716225  90.1028347   8.8145375 114.8698425  91.1185360   9.0277141
  59.9252844  30.2204490  20.4138374  59.9485683  30.5157685  21.3240433
  59.0201616  29.9413657  20.2756596  80.6528187  93.5923195  93.0251789
  80.0277328  92.9333496  93.3272552  81.4217949  93.4655476  93.5809040
  47.7291155  12.0575440  23.4618258  48.1019783  11.9471943  24.3364835
  47.6788568  11.1691427  23.1090498  10.0891721 108.2279015  35.2993965
   9.1898835 107.9099751  35.2191877  10.4138339 108.2577229  34.3994308
 105.7842064 107.8407288  11.5929222 105.3356457 108.3363247  10.9077847
 105.8391380 106.9498539  11.2471652  68.5095930  13.4141660   2.7464107
  67.9423761  13.1476986   3.4699383  68.7647104  12.5924730   2.3269245
  28.7133718 106.4905357   9.4634438  29.3068838 107.0001221  10.0150740
  27.8781056 106.9548988   9.5175469  26.1306596  32.1915340  28.6261940
  26.4019704  32.0930600  29.5388412  25.1847625  32.3311067  28.6712432
  37.3308086   7.8642833  21.7994332  37.7476478   8.7043422  21.9912076
  36.5343738   7.8653538  22.3303962 115.0234318 102.7437687  61.1714649
 115.3339577 103.2224941  60.4029417 115.3214169 103.2665825  61.9158459
  68.7353706  14.4919872  17.7502644  69.0376472  14.5900154  16.8473506
  69.0158749  15.2970529  18.1854868  28.1314039  45.7035732  25.5211520
  27.8717351  44.8061705  25.3126597  27.6300240  45.9215832  26.3068509
 107.1458721  87.4236012   9.2682761 108.0927277  87.3008919   9.3364006
 106.7734528  86.6211414   9.6337974  21.0446167  74.5411158  13.6395681
  21.8604064  74.2195940  14.0234184  20.3570628  74.0625668  14.1026998
  93.6792755 108.8735008  28.1581402  92.9878139 108.7915897  27.5013256
  93.7287331 108.0075932  28.5631061  63.8055801  28.0059528  26.2599802
  63.7478209  27.7127004  27.1693206  64.3286610  28.8066244  26.2992954
 104.0612030  62.1216154  92.9070187 104.8638535  62.0388651  92.3920918
 104.0472507  61.3379240  93.4564400  93.8034916  88.9191246  93.1587601
  93.7026215  89.1712761  94.0766239  94.6978188  89.1777515  92.9362106
   3.5132310  44.9596977  38.3762264   2.7503818  44.9463606  37.7981997
   3.1449699  44.9355459  39.2594194  70.0164127  88.5154247  88.2829666
  70.8895493  88.1803703  88.4869480  69.4924641  87.7321243  88.1151676
  89.0931511  59.3896055  94.8281670  89.3730545  58.5215425  94.5377254
  89.8120022  59.9695635  94.5769024   1.9488482  78.9111662  77.3431063
   2.7783364  78.7405109  76.8969488   1.9288304  79.8614407  77.4562740
  21.4955354   2.1298318  58.5463953  21.7263460   3.0488354  58.6820078
  22.2172523   1.7757814  58.0267715   4.9210322  40.5205444   0.2592153
   4.3230116  39.7795680   0.1614351   4.8653948  40.7525256   1.1862058
  55.8447456  13.9948654  42.5321865  55.3989840  14.3391740  43.3061218
  56.7499638  14.2917645  42.6252508  66.8062973  83.2879543  83.7966442
  66.2162256  83.2220268  84.5474434  67.6836538  83.2570648  84.1781139
  77.7338934  13.6335254  16.1736584  78.4897757  13.0768716  16.3607693
  77.0086765  13.2171750  16.6394377  34.6746230  21.3660789  21.8721843
  35.1441121  20.6732178  22.3366809  33.7862086  21.0252762  21.7682290
  27.5742435  21.6431808  11.1477876  26.6321111  21.4935470  11.0688603
  27.8966451  20.8868480  11.6379404  67.0928001  42.4411249  93.6497211
  67.7605343  43.1115246  93.7943935  66.2879229  42.9347610  93.4924889
 107.1401978  43.8248110  93.3722973 108.0899620  43.7665701  93.4761810
 106.9063950  44.6622944  93.7725353  21.9599509  25.8221102   2.1399374
  21.0815382  26.1164856   1.8991740  22.0690036  26.1099982   3.0462810
  45.3316259  68.0206394   5.6258667  44.5987320  68.0727243   6.2393659
  45.3143883  67.1178484   5.3082180  36.5187216  15.4944575   4.3595234
  35.7489347  15.1980698   3.8739133  37.2620630  15.1661134   3.8536924
  52.1641064 109.1435337  19.0616620  51.8506336 109.6504021  19.8106933
  52.5526714 108.3591747  19.4489837  41.5169287  41.6595221  56.4587259
  41.1565542  41.9943285  57.2798634  40.8950043  41.9458866  55.7898235
  85.9315300  85.4780102  29.7271490  86.4816189  84.7201252  29.5290399
  85.2285290  85.1273251  30.2739906 117.3442936  24.4405413   2.9554081
 116.5283680  24.2778325   3.4287295 117.3309231  23.8133788   2.2324136
  42.1798134  26.2478352  35.6271887  42.0141029  26.5743780  36.5115762
  41.4652395  26.6071939  35.1013780  64.9180031   8.2322419   2.9843527
  64.7985125   8.3589280   2.0431280  65.8497906   8.3945888   3.1314874
  13.5779452  39.2596889  32.9294300  14.0561152  38.4712315  33.1861782
  13.1131232  39.5267844  33.7224197  91.8360424  59.0818787  76.9535112
  92.6402855  59.2773056  76.4726448  91.6127205  59.9035931  77.3907185
   3.3361176 111.2095165  14.7662711   2.8781083 110.7069969  15.4400182
   2.7137324 111.8903732  14.5107186  22.4858165  98.2002258   5.0122267
  21.8912411  98.2009697   4.2620862  23.2079959  98.7692738   4.7459990
   6.8634170 108.0397606  10.4513800   6.8783844 108.9802456  10.6288445
   6.0582685 107.9030132   9.9521118  25.8268809  16.6359556  15.8953381
  24.9517512  16.9553745  15.6754506  25.6797671  15.7589078  16.2494242
  42.6077366  56.4081287  13.6071980  41.9158506  55.8634567  13.9825046
  42.3956585  56.4561319  12.6750243  60.2432966  27.5530052  13.4284806
  59.6400118  28.2526278  13.6790955  59.6785021  26.7989993  13.2590187
  60.3568745  17.8549397  23.8267088  60.6524801  17.2114635  23.1826687
  61.0387611  17.8521264  24.4984651 108.6805916  95.8077335  84.9410820
 109.3426323  95.2841187  85.3924847 107.9181862  95.7799816  85.5191708
  66.1112261  87.8511906  58.7491989  65.3380680  88.4019184  58.8723278
  65.9764433  87.4361610  57.8972530  57.1663094   9.0402067   9.3345988
  56.6552830   9.0780324  10.1430881  58.0776358   9.0347207   9.6273154
  29.4206929  96.5326977  79.1494989  28.7186122  96.2415409  78.5676575
  29.3348598  95.9778500  79.9247456  15.6406152  18.4465826  71.8878222
  16.2386942  18.0950761  72.5473547  15.3408158  17.6779783  71.4024401
  53.1063986  12.4805379  70.0245190  52.9080248  13.0506277  69.2816353
  52.7467823  12.9411554  70.7826328  58.2994366   8.0096126  47.1588326
  58.0159855   7.7654618  46.2777710  58.1102037   7.2385931  47.6935768
  41.5936375  14.5655143  54.6636677  42.4211264  14.7915435  54.2389297
  40.9556675  14.5463681  53.9503193  57.1627188  54.4030952  10.3476572
  56.2346411  54.6372986  10.3546715  57.3411322  54.1584015   9.4396228
  88.7641907  52.0054913   5.4316545  88.8060284  51.8348312   6.3725883
  89.4688129  52.6329899   5.2704823  88.6565781  56.4642382   8.2099348
  88.3851624  56.6589689   9.1069555  88.6865616  57.3179626   7.7780944
  96.7052269  54.8124313  24.8032546  96.0002708  54.3354893  25.2411962
  96.6000080  55.7176161  25.0961804  62.6839924   4.8130146  66.9251394
  62.8322744   5.7461566  67.0783997  63.4431648   4.3821776  67.3179054
  98.7579346  68.0826378  11.7459166  98.1556129  67.3619795  11.9305682
  99.6263123  67.6805449  11.7676032  97.2714233  25.1045561  12.3733962
  96.5917110  25.6099749  12.8192389  97.1286774  25.2795196  11.4432120
  48.3377886  12.7065635  77.9118109  48.5755157  13.5919309  77.6364231
  47.6184225  12.4599576  77.3304892  75.0813055  56.2469101  69.4739342
  75.3350449  56.6297340  70.3137541  74.1859674  55.9379482  69.6123028
  38.8162780  59.7524023  27.1242309  38.8595462  60.7085276  27.1378326
  38.5672045  59.5366812  26.2255335  30.4975176  23.8428211  93.1019783
  30.8415651  24.7085357  92.8819656  29.9353480  23.9944887  93.8617039
   4.7821304 104.9386883  86.4525032   5.6864953 104.7348022  86.2141991
   4.5628467 104.2988396  87.1298027  62.0883512  12.8644872  60.7161903
  61.4015627  13.5312331  60.7182693  62.1243048  12.5548482  61.6212130
  89.8655415  11.3369393  12.0075572  89.6943092  10.6994605  12.7007616
  90.7492542  11.6567564  12.1892238  32.6191211  19.5547855  83.0537796
  32.7276325  18.7854517  83.6128712  32.9395080  19.2748499  82.1963310
  72.0744801   5.1182610  92.2345638  71.1339569   5.2736700  92.3211384
  72.4743176   5.7053977  92.8761482  43.7560272   3.3745292  76.2858915
  43.3503771   4.0176928  75.7044983  44.6961212   3.5321981  76.1987209
  62.6998329  11.9905591  70.0972128  62.7684593  11.0713553  70.3552580
  62.1740961  12.3945308  70.7876015  78.0421591   7.2289491  53.4207058
  77.8288460   6.8990982  54.2935896  77.3264885   7.8285742  53.2097578
  12.9286301 111.5992697  94.0583229  12.7685463 111.1892381  94.9083138
  13.7972510 111.2889673  93.8024998  25.0501132  64.1918612  21.4796710
  25.3704476  64.2724943  20.5812764  25.3867197  64.9696064  21.9246864
  25.1222717 111.4635907  96.2261105  24.9704086 111.0805169  95.3621578
  24.2715275 111.8188726  96.4834881  13.3804083 109.5542622  85.9068489
  12.5143528 109.6845055  86.2931347  13.2087493 109.1015911  85.0811100
  89.5285225  23.5902023   9.0565920  89.7379208  23.4952378   9.9857652
  89.4823742  24.5360327   8.9169216  87.0626736  77.8411484  21.4710259
  86.9498444  77.1680403  20.7998872  87.8088951  78.3585501  21.1682582
  67.6578140 103.3956814   3.9661708  66.9871044 104.0029526   4.2785841
  67.7536488 103.6022949   3.0364612  13.7335181  35.9580612  95.4085922
  13.1778121  36.5227151  95.9458065  13.6193931  36.2877536  94.5172405
  26.7344785  12.4791563  69.5413303  26.9169044  12.3718166  68.6078262
  26.7614746  13.4253693  69.6833944 117.4346161  90.2673149  86.6624165
 117.6523304  89.6092796  86.0022449 118.2796097  90.5268955  87.0296097
  44.3629026 107.1223450  90.3917789  45.1798916 107.6044846  90.2640915
  44.0956020 106.8660259  89.5091248  41.1822987   3.7150517  86.7491436
  41.8649149   3.6616299  87.4180317  40.4699183   4.1948277  87.1717072
  93.0231380  18.6160743   2.0415540  93.2248402  19.4085419   2.5390899
  92.6949596  17.9994297   2.6959878  69.0766954  10.1572144  95.8307076
  68.2360172   9.7514534  95.6189251  69.6139812  10.0158882  95.0512314
  17.9342401  70.3253841   8.9306259  17.3764515  70.9053135   8.4121811
  18.2566905  69.6788645   8.3027178 106.7997742 104.1796112  88.5161972
 107.4415970 103.8832378  89.1615295 106.5822792 103.3930111  88.0160046
  33.1697416  23.7899208  88.5685349  32.4543977  23.2974410  88.9709949
  33.9634991  23.3440089  88.8640785  51.6572475  27.8740931  71.1294603
  50.8727789  27.3262668  71.1024475  52.2133112  27.5308132  70.4300404
  63.6595917  26.7705870  94.3363571  63.2630014  26.9371653  95.1914597
  64.1821957  27.5525165  94.1583061 103.0409431  32.9597187   4.1373727
 103.7598515  32.4110723   4.4510478 103.3210373  33.2479167   3.2686257
  99.8514938 104.7830963  69.5065260  99.0593624 105.2655220  69.7432232
 100.5642319 105.2828598  69.9046087  78.3717203  36.0473776  14.4324863
  78.5948277  35.4194307  13.7453651  77.5611258  36.4562893  14.1292429
   3.3141723  53.4691191  18.2404244   3.9830935  52.7852917  18.2744181
   2.5429288  53.0320024  17.8793931  28.0511343 111.2549227  89.8776150
  28.6931526 110.9642842  89.2298698  27.4319088 111.7877464  89.3787289
  26.0570431  99.7064781  56.3045692  26.7065501  99.0119934  56.1947155
  25.9999800 100.1195145  55.4429579  22.5625610  48.1377554  25.0891066
  22.6522732  48.3039141  24.1507173  22.1887755  47.2581387  25.1419330
  66.5727043  19.1100788  67.1455908  67.5296307  19.0887368  67.1375179
  66.3224125  18.4043372  67.7418375 101.9972610  62.8338814   4.2140833
 101.2871933  62.2646713   3.9173648 102.5585651  62.2629690   4.7387034
  72.5794029  37.6715612   5.7548910  72.5816774  37.1880913   6.5810162
  71.6536713  37.8381824   5.5774379  40.4052925  41.4205503  75.5473471
  39.5128345  41.7665434  75.5407333  40.4007435  40.7334661  74.8809147
  45.2103424  21.0860825  93.9412308  44.8514080  21.7211199  93.3214569
  45.5699825  20.3907514  93.3904171 102.8264046 105.7978630  68.7322903
 102.6433086 106.2666130  67.9180527 103.3975315 106.3873482  69.2247868
  59.2715931  80.0746632   5.4858768  58.3340931  79.8870087   5.4399049
  59.5806599  79.9728537   4.5856860  80.6247902   7.6869828  71.4240646
  80.5233097   6.7360383  71.4645386  81.4588165   7.8198910  70.9735394
  65.3226269  57.1587535   0.2322931  65.0312078  57.8364884   0.8421964
  64.6876419  57.1913471  -0.4832202  77.4910212  49.1464520  89.9702358
  76.6090441  48.9117479  89.6816730  77.4683905  50.0992680  90.0589180
  62.9425383  24.7173834  92.5953293  61.9937038  24.8432326  92.5849915
  63.2521152  25.2874994  93.2991409  81.7116833  33.8662887  24.3367171
  81.9822884  33.3119440  25.0686383  80.8885765  33.4811234  24.0360904
  93.7685680  36.0429072  21.5116429  93.1995869  36.6557455  21.0458922
  94.6278477  36.4646506  21.5090942  53.7395859  13.0570555  91.6660500
  53.1038094  12.3869014  91.9168758  53.2558060  13.6386108  91.0795593
  13.6535013  89.4865036  73.0884790  13.6966109  88.9327812  72.3088884
  13.7542260  90.3780270  72.7549076  84.8453712  54.4430685   2.5014448
  84.9520588  55.0820065   1.7967406  85.6302834  53.8975430   2.4509850
  87.2051620  69.2306757  10.6233859  87.4056244  68.8529301   9.7670239
  87.6928329  68.6892414  11.2440836  59.5885992   6.7440343  86.1455917
  60.2966261   7.3878175  86.1674023  59.9182034   6.0079610  86.6611385
  61.1979294  10.6107771  55.2685642  61.0693598   9.9978912  54.5446348
  60.4436970  11.1982918  55.2218151  89.7986126  94.6140957   5.0571632
  89.0741634  94.7040844   4.4380435  89.3800545  94.6193600   5.9179878
  58.3763838  49.6844196  94.3153858  57.4570036  49.9478149  94.2753887
  58.7517071  49.9992132  93.4930229  95.9608078  38.9359069  13.9703000
  96.3938618  38.6454439  14.7729969  96.6665936  39.2990828  13.4353280
  19.9914682  96.7235470  89.1717243  19.0490866  96.7322826  89.0041733
  20.2957463  95.9021282  88.7858295  75.7194042  57.7997351   6.9457412
  76.1033392  57.1760607   6.3294154  76.2962961  57.7682829   7.7089179
  79.3282413  22.1986604   0.1418100  80.1053047  22.4357128   0.6479776
  78.9946365  23.0324459  -0.1894651 105.0940990  93.0956364  10.4376984
 105.7874775  92.4874783  10.6938040 105.2314281  93.8630581  10.9930670
  30.6686568  96.0624695  90.5273056  30.9058571  96.9603443  90.2953815
  31.1744308  95.8779526  91.3187504 104.5411587  87.0937920   7.4249637
 103.9968204  87.7078915   6.9322222 104.0121555  86.8646622   8.1890881
 107.9546165  43.6021185  12.1213150 107.5429153  43.6523676  12.9839921
 108.2475185  44.4958401  11.9432831  43.7838697  79.4316959  92.3644924
  44.2698479  79.6161556  91.5607357  43.6705017  78.4812355  92.3630524
  13.4224117  88.5910225  57.0561123  12.9155922  87.8825951  56.6592407
  12.8719294  89.3670750  56.9515038  60.2846384  32.5080776  80.7623959
  60.6930542  33.2978106  81.1170101  59.3500280  32.7130651  80.7357883
  27.5784612  14.0819347  57.9927731  27.2465754  13.7747729  57.1491289
  28.3385015  13.5269487  58.1675911  59.4986868  12.2481871  92.4421024
  59.4284534  11.8174887  93.2940483  59.0618563  11.6508341  91.8349934
  47.5157928  31.2257957  84.2446613  46.5979910  31.0185981  84.4205666
  47.4906349  31.7837763  83.4673214  93.6398411  82.4466228  11.2035942
  93.6403656  81.6004086  11.6509843  92.7136898  82.6750565  11.1243129
  37.8667331 107.4576378  87.5487328  37.8251529 107.9363155  88.3766079
  38.5293293 106.7825890  87.6953983  40.9805679  28.4271264  88.4413338
  41.9316578  28.3506703  88.3650494  40.7108974  28.8724780  87.6381016
  48.0120707 102.5463009  74.8222160  48.0412722 102.3238754  75.7527542
  48.4644699 101.8226910  74.3886757  97.2266006  43.8429880  13.7027872
  97.3210716  42.9135895  13.9114106  98.0603409  44.0837431  13.2988751
  94.9602222  61.2646580   1.0798840  95.3404140  60.3868389   1.1133358
  95.4583263  61.7661619   1.7253375  69.6593428  10.8877027  60.5426788
  70.2018213  10.1118612  60.4011726  68.8312387  10.5432010  60.8770275
  73.3328342  31.2410498  68.2750940  74.1305304  31.6412973  68.6211014
  72.8434563  30.9716487  69.0523720  85.9641457  21.8840909  72.4081707
  86.1602783  22.5726676  71.7728519  86.0066891  21.0724735  71.9025040
  89.6176720  27.0126462  17.4853110  89.1858006  26.6397285  16.7167747
  89.5127678  26.3473034  18.1654179  68.2304764   9.7178239  75.2932739
  67.7836847   8.9740562  74.8890305  69.0421152   9.3490583  75.6418276
  50.8401632  -0.2032379  71.5553951  51.5572023   0.1540517  71.0315323
  50.3943014   0.5668941  71.9080067  49.2934132   4.4803002  86.3579559
  49.7768831   4.6155807  87.1729374  49.3931246   3.5465485  86.1724949
  93.1758690  51.2692022  18.0238533  92.5780964  50.6620979  18.4601068
  93.1561089  51.0052824  17.1039689  62.3296118  79.2499208  11.5221632
  62.7009344  78.6955738  10.8358312  61.5997362  78.7398291  11.8733239
  70.1960373   5.4610908  84.8054314  69.7028971   6.1913681  85.1792431
  69.7635508   4.6792880  85.1488972  16.9560099  90.5780125  88.9143944
  16.2156510  89.9716759  88.9357758  17.3265302  90.5347824  89.7959137
  99.5596790   8.8337493  91.8561935  99.2467117   7.9334068  91.9437408
 100.0109863   8.8494438  91.0122108   9.2152399  78.1524706  74.6074247
   9.1171414  78.0504990  73.6607409   9.9248046  77.5538063  74.8405504
  16.7021537  89.2328072  61.2743950  16.1942792  89.0083790  62.0540905
  16.0582447  89.2518234  60.5664015  28.6735296  55.3145790   4.8249435
  27.9514432  55.8032036   4.4298899  28.8768411  55.7947922   5.6276196
  21.2041485 111.7534218  86.0653877  21.7920983 110.9982379  86.0498524
  20.5054867 111.5256793  85.4520130  35.7613730  36.7234612  70.6059027
  36.0081863  37.0519447  71.4704323  35.6388640  35.7826996  70.7331419
  19.8035836  81.9403648   5.5936629  19.0033579  81.4244175   5.6919760
  19.8914778  82.0684147   4.6491474  90.3048611  87.5353432  32.1594381
  91.0611439  87.7881622  31.6299486  89.5806217  87.4879932  31.5353680
   7.9898268 108.0071449  93.4929466   7.8311741 107.1494007  93.0988312
   8.7218606 108.3686256  92.9932594  52.1819782   1.7699713  85.8129025
  51.9174576   1.4316355  84.9574471  51.3901854   1.7140643  86.3478470
  55.8801031  25.7904863  66.7380619  56.2861252  25.4164100  65.9561110
  55.4262447  25.0540805  67.1478748  25.0989389  86.6161537  53.2783937
  24.6893692  87.4256134  52.9730177  25.7551908  86.4134598  52.6116991
 104.5723057  49.9211216   5.7850778 105.2755737  50.4183626   5.3674620
 103.8584518  50.5513477   5.8823180  54.0517998  11.9927990  81.1670113
  53.7243605  11.8145657  82.0486355  53.4190178  11.5699661  80.5864716
  65.5461884   1.2398467  88.8159847  65.7408953   2.0815051  89.2282104
  64.5900917   1.1991451  88.7945271  74.4621420  78.2724810   2.3426032
  74.1165066  78.3370829   3.2328808  75.3894138  78.4936857   2.4290350
  86.7386436  62.5905418  13.6600435  87.1764755  62.4815845  14.5042408
  87.0212078  61.8352032  13.1444347  80.5612946  69.9255037  14.0942597
  80.5608845  68.9737558  13.9922249  80.7419014  70.2604723  13.2159603
  46.2897921  91.6526794   1.1860458  45.9005642  91.5890408   2.0582178
  47.1800089  91.9672966   1.3434197  32.6807904  52.6942205  17.4501121
  32.5893235  52.1843767  18.2550514  33.5726905  52.5144148  17.1527588
  10.0916982 103.6986542  84.6322060  10.7185209 103.5247231  85.3343964
   9.6183139 104.4786835  84.9215031   5.8192217 107.6834679  89.1656971
   5.4712898 108.1784439  89.9074364   5.0482470 107.2883129  88.7586594
  89.2097950  86.9369030   2.3776379  89.4539547  86.2999821   1.7061076
  89.0268707  87.7403259   1.8905187 115.6324196  63.4820557  24.1966820
 114.8148251  63.9697456  24.0970516 115.4683590  62.6472855  23.7579656
  87.3519230 108.8543415   3.3305216  88.1851387 109.2694759   3.1076959
  86.7197800 109.5730877   3.3347115  57.5781822  26.6639519  86.7734337
  58.1342745  26.4282656  87.5160217  58.1107807  26.4661360  86.0030842
  87.9693508   3.2744095  58.2309580  88.0139542   4.1579258  58.5965252
  88.1967545   3.3854094  57.3078108 102.0930195  48.4139490   5.6096339
 102.8078842  49.0031815   5.8504790 102.2579098  48.2001829   4.6912956
  27.3743963 100.7658482  85.7390785  27.9508948 100.3904152  85.0735474
  27.9380393 101.3567448  86.2384605 104.6162891  24.4566202  94.3150806
 105.0448608  24.4458771  93.4592533 104.6868801  23.5553360  94.6296215
   3.7821257  47.0123196   2.1110280   2.8267884  47.0158243   2.1706107
   4.0277693  46.0985470   2.2556303  97.1184826  53.8972282   8.8961077
  97.8211689  54.3061113   8.3908606  97.5035954  53.0868912   9.2296880
  56.3852167  97.0658779  76.2757921  56.0295868  97.5778484  75.5493975
  56.9827890  96.4440155  75.8605528 104.7152519  86.9764805  40.9907961
 104.4193172  86.1868191  40.5379295 103.9476776  87.5482655  41.0016060
 116.6724914   4.8647571   4.4806862 117.4925461   4.4531509   4.7533077
 116.9258712   5.7471895   4.2098662  76.3497591  73.2437468  13.0907452
  75.5670691  72.9271364  12.6397598  76.8905210  72.4628115  13.2088470
  52.7856874 105.6065178  87.0130348  53.6473942 105.8551311  87.3475170
  52.5218391 104.8653316  87.5582504   9.0938848  32.8194714  92.2084618
   9.2701864  32.6358223  91.2857342   9.5235938  33.6590314  92.3719311
  71.9017458  32.9381323  83.9313698  72.7076435  33.4341145  84.0754604
  71.2271738  33.4386301  84.3903732  48.7857151  18.8314009  91.0506630
  49.4000626  19.4522440  90.6590557  49.2653131  18.4520578  91.7870808
  81.6884518  76.6839552   1.1883385  80.9921837  76.7450380   0.5343404
  82.3533630  76.1300755   0.7792693  86.7019653  65.5212402  67.4682760
  87.5162697  65.2674723  67.0338202  86.1054134  65.7373810  66.7515898
  82.4568176  53.5519600  13.7508762  82.5972176  52.8767967  14.4147062
  82.7452469  54.3630362  14.1694379  64.6060419  53.3641434   9.5713288
  64.9299860  52.6817322   8.9834464  63.6552048  53.2541370   9.5650482
  91.4743137  52.2492981   3.9058343  90.8691788  51.8579340   3.2758531
  92.1648979  51.5951633   4.0127665  31.3813615  96.3387775  61.9709301
  31.6765666  95.4377079  62.1019125  31.0107017  96.3434887  61.0884237
 103.4048557  23.9079547  85.1038456 103.6463737  23.2155228  85.7190132
 102.4590206  23.8109159  84.9932766  85.4042339  15.1318002  68.6227369
  85.3145218  14.3608284  69.1829062  85.8982849  15.7570076  69.1530752
  77.2112226  95.1963520  87.2694683  76.3320875  95.3517246  87.6147461
  77.1080446  95.2485657  86.3192749   9.0359843 104.0790749  90.6277752
   9.4411200 103.2414246  90.8523560   9.5622289 104.7312927  91.0902691
  68.7511969  10.6017590  83.1567001  69.5604610  11.0303056  82.8779984
  68.8135386  10.5698979  84.1113377  39.2382288  14.2057407  65.7979822
  40.1362896  13.9279175  65.9783459  39.0550709  14.8701382  66.4622593
  22.2783279   5.6879693  50.7450199  23.1943774   5.6941742  51.0225916
  21.8220496   5.2072567  51.4356375  77.4982214  95.3227901  17.6353312
  76.9302511  94.9061584  18.2834518  77.1330881  96.2008381  17.5260592
   5.3099304  93.9850330   4.8204210   5.8020711  94.8044872   4.8706847
   4.7638160  94.0810966   4.0401891  38.5068035  26.7418313  71.0481834
  38.0555224  25.9732628  71.3972998  39.0842438  27.0233941  71.7577744
  95.7705307  26.6511512  70.5767679  95.5565453  27.5280690  70.2582455
  96.3021564  26.8032408  71.3580942  90.3065395  69.7219086   1.3096067
  89.7788334  69.8740721   0.5256393  89.6654224  69.5785952   2.0057794
  72.1625137  98.2526588   1.3249950  72.2722292  97.6252079   0.6105024
  71.4294338  98.8032055   1.0498201  74.6197367  64.7497225  20.3492212
  74.0510893  64.4201183  21.0450888  75.4081678  65.0456572  20.8042240
   5.3914309  64.6229553   1.3080986   5.8426970  64.2959690   0.5298501
   4.7227427  65.2161360   0.9657176  65.1869202  81.5554142  20.5871248
  65.2667665  80.8870411  21.2676668  65.2210999  81.0657692  19.7653496
  88.7571812  88.6218643   4.6792608  89.2934322  88.3735752   3.9262587
  88.8826942  87.9107571   5.3075886 112.3097038  22.3307538  17.2045767
 111.5566826  22.9182005  17.2686064 112.8525829  22.5539565  17.9606867
 103.6525345  82.3940563  52.7243471 104.1213894  82.5969601  53.5338163
 104.1679287  82.8159237  52.0368624  93.0483818  62.3528814   9.1365516
  93.4835243  62.9157925   8.4962296  92.2053719  62.1411800   8.7356025
 113.5013199   4.5738938  88.0246735 113.9872837   4.0465951  88.6587238
 112.6047993   4.5855045  88.3598709  24.6451879   1.1790951   7.3386741
  24.8830724   1.5861727   6.5056491  25.4032445   0.6413363   7.5675762
 101.2625313  90.9302711  12.2165477 102.0578384  90.9476757  11.6841733
 101.3097191  90.1000023  12.6905274  12.7738428  69.5216084   3.2779956
  12.1914947  69.4406891   2.5226456  12.4495745  68.8714266   3.9011660
  28.9149737  55.4276085  69.9374342  28.2379889  55.7059574  69.3206310
  28.4292269  55.0803280  70.6855488  93.3250809  30.1968575  61.1952543
  92.4143696  30.3909421  61.4169979  93.3796501  29.2415786  61.2215853
  56.8569040   9.0013808  89.1761780  57.1907043   8.1672919  88.8458729
  55.9081554   8.8808292  89.2158890  50.7541275   2.3511264  94.1732025
  49.9346256   1.9542350  94.4683743  51.2896299   1.6108319  93.8878441
  57.5574112   0.2385707  82.1501732  57.6242399   0.0045959  81.2244129
  56.7688656   0.7784580  82.2044468  44.6128702 106.9902706  82.7612019
  44.2912912 106.1518764  83.0927467  44.7428274 107.5238895  83.5451603
 101.0688686  41.8059540  14.4645691 100.2383518  41.9389486  14.0076399
 101.1712265  42.5874376  15.0077403  90.1707554  75.7566738  77.7080345
  90.8183479  75.9775829  78.3774090  90.1411343  76.5266132  77.1401024
   7.4114561  71.6759539  22.9766488   8.1280005  71.7215300  22.3436260
   7.6103610  72.3624182  23.6133885   6.8840820  95.7204342  30.4080868
   6.4724344  96.1509895  29.6588206   7.1320909  96.4384842  30.9904289
   3.7309185  84.4023132  12.6248968   4.1469449  85.2453041  12.8052032
   4.4400513  83.8512135  12.2937524  46.1586249 111.0018969  60.7091618
  46.7005598 110.7660547  61.4621019  46.1278212 111.9584447  60.7264614
  57.3212147  27.5246739  94.8957348  57.7414846  27.2356510  95.7057095
  56.3990545  27.6312160  95.1291847  59.0223455   4.2329344  72.2403955
  59.1967058   4.9193141  72.8843784  59.1521978   4.6602592  71.3937759
 104.5766354  90.3588104   1.6318657 105.3347206  90.9259892   1.7727301
 104.4370365  90.3763294   0.6850617  96.7770767  76.0541439  17.5934792
  97.0009518  76.3728380  16.7190933  96.0879707  76.6461182  17.8950059
   6.1501145  68.1087112   4.8817840   5.9718096  67.2698641   4.4566071
   5.9651804  67.9519796   5.8077782  53.4349298  18.7460923  94.9210739
  52.8000355  19.0981328  95.5449390  53.8836908  18.0510485  95.4024887
  24.8915792  87.9064083   8.3879542  24.7590590  88.2010078   9.2890012
  24.5997238  88.6423683   7.8499746  16.7786789  87.1121502  77.4938297
  16.3182378  87.9372883  77.6466751  17.3053706  86.9821262  78.2824516
  69.4102859  67.8591299  21.0413742  68.7825823  68.5738182  20.9344387
  69.0536642  67.1459007  20.5118895  90.3869057   8.0046397  10.9659576
  89.5818615   8.5068750  10.8399272  90.5089378   7.5365007  10.1400113
  47.3737621  12.1261680  60.9369469  47.6472092  11.2089550  60.9503984
  48.0526733  12.5710833  60.4296398  27.4829698  94.1008186  73.3433008
  27.9858708  93.5719299  73.9626503  27.6517320  95.0050163  73.6082268
  73.2608938  17.5045013  88.0370998  73.9710760  17.9499292  87.5750828
  72.8989840  16.8973339  87.3916531  71.7989349  53.2786274  76.3398075
  71.5510082  53.1119061  77.2491884  72.1752119  54.1586876  76.3516331
 111.2808323  73.7726355   1.9215763 112.1912670  74.0630770   1.8668762
 111.1452770  73.5830641   2.8499717  24.3766475  61.3301468  12.5774169
  25.0635099  60.6909180  12.3881221  24.7346020  61.8632078  13.2873094
  16.3909996  81.7984581  24.6038604  16.2582874  82.4036121  23.8742018
  15.5765843  81.8448448  25.1046681  95.3697205 109.7675228  69.9152327
  96.1210060 109.2359352  69.6521664  95.3610516 110.4946041  69.2927265
 105.1591015  76.5617990   4.1717583 105.1830864  75.8914566   3.4889001
 104.7649002  76.1222315   4.9251631  35.2276158  20.5247116  63.0599642
  34.8264170  21.1955714  63.6124277  36.1485171  20.7797527  63.0040455
  55.6031561  19.1883993  91.0924149  55.3835440  18.6937308  90.3029156
  55.9075594  20.0356603  90.7672691  46.6218805   8.0059642   6.4710385
  47.0226765   8.4006584   5.6965631  45.8193302   7.5991863   6.1444300
  58.3361626  34.8024392  93.7760067  57.7916908  35.2628756  94.4145775
  59.2140532  35.1606631  93.9072132   6.4066845  90.6297112  18.6633074
   7.1217185  90.0469875  18.9190376   6.3468236  91.2634182  19.3781900
  92.9805851  18.4583402  51.6404247  92.8828049  19.3882203  51.4354992
  93.8923740  18.2605326  51.4265299  77.0980120  41.8709993  80.0117397
  77.8307533  41.4594984  79.5534992  76.9244766  42.6712084  79.5159769
 112.8993130  84.6971226  20.3754449 112.2996712  85.0772572  21.0174370
 112.8594780  85.2936459  19.6279109  70.2053070  48.1034517  95.1748562
  70.8390808  48.5952711  95.6970406  70.6788063  47.3179626  94.9009418
 103.4530926  87.4636078  12.8733027 103.6410236  86.7307091  13.4596288
 103.4239197  87.0709515  12.0008326   4.1591778  58.5260916   4.2036343
   4.2793497  59.2214632   4.8503551   4.0560061  58.9880085   3.3716387
 106.4261627   7.2532243  64.1458035 105.6417179   7.1809363  63.6020565
 106.7329407   8.1490535  64.0057707 113.2956409  32.7997613  75.1560354
 113.3034515  32.0945573  74.5088387 114.1813087  32.8014803  75.5190945
  50.8752108  79.5553589  91.9249725  51.3762617  79.1879606  91.1968231
  51.2871790  79.1897011  92.7077961  46.2720251  26.4552283  73.2828283
  46.3739824  25.5212545  73.4659338  46.6537237  26.8916798  74.0444374
 104.6884346 104.1425800  16.2471592 104.7545719 103.2698059  15.8596802
 104.0722752 104.0367699  16.9719899  66.5902662 109.9198437   2.5065219
  67.0144892 109.2915344   3.0908990  67.1819878 110.6721306   2.4934934
  94.2748642 106.6549683   7.3615080  94.5707798 105.7722759   7.1389550
  94.6409130 106.8182468   8.2307482  63.7585068  99.0836430  93.3253098
  63.1966543  99.4018269  94.0319347  64.6321678  99.4022942  93.5520458
 111.2167931  64.3615007  32.0153785 111.5544796  63.5380793  31.6629958
 111.6351318  64.4447756  32.8722858  65.1526165  21.3379073  55.0958872
  64.5587826  20.6849527  54.7254181  65.6360292  21.6768479  54.3424559
  60.2011251  19.0717399  59.6247721  60.7662725  18.3026755  59.6981478
  59.4023991  18.8275146  60.0923347  78.9480829  89.5368099   5.5549496
  78.7297773  88.9261913   4.8508832  78.1630898  90.0749016   5.6573009
  89.8392296  41.1986256  82.9033947  90.5670071  40.8223343  82.4084377
  89.9289227  40.8270502  83.7809563  60.1743639  67.9546814   1.2008829
  60.0072015  67.1035867   0.7960100  59.3134368  68.3702843   1.2489480
   5.2503002  94.3872833  90.5281734   4.9066380  93.6449337  90.0311279
   6.1333722  94.5184803  90.1829147  93.7261772  83.8726330   8.4741235
  94.6395206  84.1376781   8.5826874  93.2393169  84.4408321   9.0710723
  76.8919849  33.5837603  68.2642317  77.2238684  34.4722009  68.3936882
  76.0618114  33.5664463  68.7404060  39.1044426  89.5970440  87.6743221
  38.3219647  89.0588570  87.5546837  38.9192104  90.4004478  87.1880436
   4.9950686  62.0140696   2.5717887   5.1796913  62.0718813   3.5092345
   4.9923274  62.9230165   2.2717157  85.7216930 109.7770119  33.2537055
  86.2391281 108.9720821  33.2775974  85.6793118 110.0070381  32.3255229
  45.3110456 102.7906704  63.6059284  44.5969248 102.3410034  63.1542063
  46.0279560 102.1564484  63.6114502  24.0866661  90.4391479  86.6001129
  24.5641851  91.0697174  87.1391773  24.3532968  89.5843697  86.9384956
 116.0844947  43.1483597  96.6010644 116.9420386  42.9225583  96.2406962
 115.5845953  42.3331876  96.5584435  84.5108223  27.8478909  77.1849346
  85.1042747  28.5984612  77.1585464  83.9410877  27.9661870  76.4249086
   4.0170115   1.3405797  67.8701639   3.7302259   0.6096584  68.4176493
   4.1929448   0.9455666  67.0162058  53.7399387  37.6723933  79.4761992
  54.3926287  37.9623032  78.8388729  53.6791468  36.7264080  79.3433523
  35.9487057  14.2716122   6.7641705  36.5886045  14.4926238   7.4408656
  36.2972426  14.6688235   5.9660614  73.0829620  67.4691343  13.5662758
  73.3987665  66.8715954  12.8884542  72.9441929  66.9112825  14.3316352
  97.7328873  83.2186699  17.9718399  97.4030399  82.3309994  17.8323066
  96.9862080  83.7850189  17.7770424  63.3433306  30.4886574  96.0296186
  62.3950731  30.3581280  96.0286989  63.6338007  30.1289982  96.8677754
  12.8841794 103.0868530  90.8034515  12.0537508 102.6365376  90.9578228
  13.2647455 103.1930447  91.6753006 109.7660828  58.2984447  31.0886908
 109.4265938  59.1639042  30.8607531 110.3267384  58.4536648  31.8488288
  84.4670868  83.8809681  18.7354708  83.9652443  83.8793659  19.5505679
  84.1493225  83.1152058  18.2570636  96.4585781  35.5187225  76.2124205
  96.6351032  36.3854647  75.8465958  97.1441555  34.9600339  75.8462477
  14.2840934  21.8490767  95.2044964  14.1438389  21.3384843  94.4070911
  13.5300660  21.6426396  95.7568169 107.8883076 100.9347534  15.6795430
 107.5197220 100.4559994  14.9371278 107.8801727 100.3037643  16.3992786
  46.0418558   5.4585499  83.7101746  45.7055044   4.5926172  83.4793949
  46.1531258   5.4268557  84.6603584  66.8800402  10.5249512  92.6146889
  67.3436499  11.2565255  93.0222416  67.4978638  10.1788032  91.9707108
  57.6299429  45.6139231  77.8351116  57.8401375  44.7646189  78.2233477
  56.6775846  45.6800652  77.9049063  15.8482301  91.9335270  62.2824955
  15.5943644  92.8459930  62.4210405  15.1690352  91.4258766  62.7265882
 100.6228447  88.7053490   0.6684978 101.1279488  89.3265343   0.1438728
 100.7465553  87.8642368   0.2286665  41.2821734   2.3519511  96.8198676
  41.2105810   3.0889458  96.2132841  42.0862639   1.9034810  96.5580418
  18.2031345 106.3969517  96.1095238  17.3251247 106.6523170  95.8264732
  18.2631004 105.4662991  95.8938599  86.9472885  37.7416253  78.9759684
  86.4361191  37.9908204  78.2060099  86.6353321  38.3234048  79.6691179
  60.0027990  18.8775098  81.7832851  60.7081318  18.2451987  81.6457176
  60.2788162  19.3814182  82.5488663  33.8110948  27.7192330  71.2365150
  34.1459417  28.5541964  70.9094954  34.0924978  27.6899529  72.1509504
  71.3451826   5.2269644  96.1922958  71.8448412   4.4135375  96.1222066
  70.5142271   4.9642653  96.5881816  77.2777700  67.7878380   8.8814920
  76.9576025  68.0339336   9.7493404  78.2162571  67.6448536   9.0040928
  69.9200106  23.0717349  87.0514584  69.7001076  23.5663891  86.2620354
  70.7262611  22.6074815  86.8263817 100.6037331  93.2675171  27.3116279
 101.0384941  93.0571842  28.1380510 101.0781097  92.7576923  26.6549063
 108.8985348  69.6409273  16.8618989 108.9469624  70.5823803  16.6958892
 108.7504005  69.5713282  17.8050017 106.8379307  55.8301401  11.1296999
 107.5209236  56.4509535  10.8760381 107.1717548  54.9784470  10.8478856
  99.8195934  23.6368227  93.2774639  99.8847008  22.6823020  93.2477093
  98.8850117  23.8097286  93.3909702  75.1521301  19.2858827  90.0636673
  75.7124281  18.5349989  89.8675251  74.2654943  18.9792264  89.8737335
  79.7447014  87.5455475  12.7892089  78.8395357  87.3057842  12.5906789
  79.7310257  88.5005188  12.8530407  61.9556236   0.9791523  76.3680696
  62.1935272   1.8491840  76.6885042  61.1499166   1.1191729  75.8706188
  86.6254902  70.6077433   4.5101112  86.1585903  71.3447142   4.9039474
  86.3165379  70.5849218   3.6044282  67.8864431  19.8733830  93.7656021
  67.5788546  19.7254515  94.6598816  67.9161549  19.0000176  93.3749866
  86.8549347  74.7120476   8.9750785  87.4692917  73.9864063   8.8644010
  87.4093914  75.4678106   9.1690981  73.9390802  47.6603985  75.3543615
  73.7105131  48.5896015  75.3781986  74.8893690  47.6445007  75.4680634
   1.7546910  74.4696331  17.0814049   1.0754894  74.0896463  17.6386559
   1.4287528  74.3478537  16.1896837  54.2360353   8.6675471  92.4500370
  54.7252417   9.1755164  93.0972385  54.6852112   7.8228414  92.4192619
  70.9670067  43.9030981  66.9657421  71.5496063  44.1324329  66.2417173
  70.5817986  43.0658340  66.7072201   2.0057045  97.5069523  52.5696754
   2.8758198  97.5300598  52.9679203   2.1377623  97.8492928  51.6855955
  39.7873425 111.1289597  65.8034754  38.8382983 111.2237358  65.7224417
  40.0055075 111.5880680  66.6145563  97.2231674  69.4795322  15.6306481
  97.6680946  70.2390385  16.0067046  96.8394947  69.0297127  16.3834333
  65.5872297  18.6684525  93.0133820  66.1898804  17.9252565  93.0399132
  66.0091972  19.2982411  92.4289703  20.5556583  81.8878651  24.1931820
  20.9173322  82.7495956  24.4001675  21.1305189  81.2715435  24.6469665
 115.3194332  69.6924210   2.7682844 115.2278423  70.6436300   2.8234047
 115.1884460  69.4924974   1.8414056  92.8917694  66.1166382   5.1317424
  92.5799179  65.5544996   4.4225302  92.6084042  66.9962740   4.8823881
  82.6242065  52.3786020  89.1030502  81.7950249  52.4795818  88.6356354
  82.3849964  52.4279308  90.0285625  93.9738750  64.2480326  30.7129335
  93.4040642  63.4804153  30.7611203  93.6318493  64.7543335  29.9761128
  16.0210192  71.8947363   7.4168891  16.3942492  71.6113281   6.5822577
  15.4098678  72.5927401   7.1812636  65.7919645  68.0095673  10.7255828
  65.4573059  67.7202606   9.8767388  66.3037586  67.2672319  11.0468984
  76.7936707  75.1477671  10.8585525  77.1304798  74.4956779  11.4730191
  75.9495831  75.4097366  11.2261331 106.0259819 103.2085228   8.6419964
 106.7639351 102.6228237   8.8111466 105.3230095 102.6292896   8.3477986
  33.7806606  17.5371027  74.7445631  34.0170622  16.8591893  74.1114902
  33.2488632  17.0808542  75.3966856  98.1058311  64.3345737   5.6062180
  98.8434982  63.8034010   5.9061199  97.4921131  64.3286133   6.3407558
  70.3532124  18.5322106  85.2478313  70.2955961  18.9106774  86.1251450
  70.0767708  19.2383540  84.6637344  81.1267090  28.8257170  82.8453922
  81.4157867  29.6015716  82.3650646  81.3356876  29.0182447  83.7594509
  74.3955135  10.3791201  63.2350063  74.9748611  10.4147172  62.4738741
  73.5221291  10.2495193  62.8653669  72.7100945  29.9914503  62.9607630
  72.7412081  30.8379793  63.4064674  72.3534632  29.3897057  63.6141777
 110.3396225  88.5056591   7.9323906 109.8150444  89.2844582   8.1182182
 110.1388836  87.9048443   8.6499965  95.0225163 105.7636452  10.6094944
  95.9474087 105.5360985  10.5144060  94.9902344 106.3124847  11.3930595
  73.1021976  85.6711864  14.6938753  73.4024811  85.6220055  13.7863266
  72.1900749  85.3828526  14.6603191  47.2415924  29.5241833  88.1375790
  47.8650999  29.4898510  87.4121189  46.3947344  29.6773076  87.7185059
  56.2793684 106.0134029  40.5872011  56.7552662 106.8423748  40.6377220
  55.5291843 106.2018776  40.0233459  92.6309109  49.2320108  75.4009914
  92.8902245  48.4225178  74.9608612  91.8149757  49.0099812  75.8495140
  63.0459452  58.4795713  69.3633699  63.8950539  58.7434912  69.0089703
  62.7683115  59.2229509  69.8986626  64.0636349  26.8075037  82.1352768
  63.5716438  27.4422932  81.6144848  64.9795485  26.9726443  81.9115162
  98.6679840  41.2667274   1.2165034  97.9691315  40.9532452   1.7905796
  98.3132935  41.1702824   0.3326925  24.5152187 100.5443668  84.6933079
  24.0197706 100.5936146  85.5108261  25.3371072 100.9965515  84.8837376
  51.3519573  93.2864761   4.1525280  50.7700729  92.5774384   3.8788310
  50.8245420  94.0795326   4.0569705  43.3027458 108.2949162  80.5169678
  43.7894821 107.8669167  81.2213421  43.2645321 109.2152882  80.7771492
  10.9595954  81.1771488  18.5400224  11.5962946  80.5865860  18.9426017
  11.1722815  81.1585903  17.6069355  79.9146557  23.2040286  83.6482334
  79.8444605  24.0328979  84.1218185  80.8231831  23.1757998  83.3482170
   2.2695448  13.6089766  34.9894071   2.2558104  14.1979194  35.7438540
   3.1888270  13.5809517  34.7241402 103.7267494  84.4792366  13.0888164
 103.6363220  83.5524940  12.8669989 104.5368290  84.7508717  12.6572728
 112.2369480  83.9177036   1.6428329 112.8663349  83.7896919   2.3525566
 112.7729034  83.9505577   0.8504321  60.9490442  88.4903908  93.3685303
  61.0719156  89.4130516  93.5917377  61.4254665  88.3774471  92.5460339
  93.0881596  14.2478204  56.4435768  92.5075436  14.7807622  55.9003544
  93.6741543  14.8800969  56.8595886 101.9376564  93.1271172   8.7702036
 101.8046761  92.3860931   9.3613297 102.7829266  92.9541397   8.3556777
  96.4498985  23.5700173  96.0473018  95.6339443  23.1013627  96.2228407
  96.4739180  24.2641110  96.7060046  63.7612438  26.3766098  88.7108517
  63.4276056  27.2569990  88.5381317  62.9763985  25.8347344  88.7922096
  98.8234997  87.5748062  16.1546969  98.1640053  87.2745323  16.7801106
  98.3169365  87.9416370  15.4300857  78.5070086  72.4442863   1.9374312
  78.0324221  73.1916189   2.3014292  78.4942436  71.7894268   2.6354504
  55.3391886  49.9113131  62.4572515  55.0473022  50.5934715  61.8525219
  54.5587206  49.3795395  62.6132107  79.7630787  28.4733820  63.1701899
  78.9602232  28.0105948  62.9304361  79.4700956  29.3521833  63.4112263
 106.4229488  30.2520204  90.1063251 106.3268185  29.4935536  90.6822777
 107.3641014  30.4261470  90.0946617  85.3341866  55.1943445   7.8603160
  86.0955048  55.0067806   7.3112816  85.6386757  55.0366688   8.7539887
  10.1163685 105.8832455  95.5187798  10.5184627 105.1544189  95.0461578
   9.1751105 105.7241440  95.4484081  27.3578846  18.8912244  96.8617527
  26.6657746  19.4951577  96.5925227  27.5363266  18.3678097  96.0804554
  39.6239090 104.8214912  67.8766394  40.3248167 105.4534245  67.7165556
  38.9943838 105.2947521  68.4206581  71.2523746  70.2959633  81.4953232
  70.6345606  69.6040344  81.7314911  71.1014557  70.9834623  82.1440125
  12.8899944  14.2257845  53.3286190  12.3813641  14.0858483  52.5299025
  12.2438419  14.5012712  53.9788675 102.9773808   6.8633449  67.6576757
 102.7089024   7.7771515  67.7531195 102.3903370   6.3793224  68.2384825
  84.2315960  54.0167713  76.7899656  84.6475697  54.8746729  76.7051172
  83.5626793  54.1404819  77.4633741  86.3148689  34.4538283  87.8534698
  85.7532501  33.6796641  87.8919697  85.7206059  35.1886415  88.0055714
 110.1015759  98.5851479  10.0864148 110.9467602  98.3214760   9.7225994
 110.2096367  98.4946823  11.0331833 108.6235809  79.3858242  15.9654415
 108.6149693  80.2646828  16.3446045 109.5351696  79.1028738  16.0373652
  90.0041866  62.0174551  74.8611307  90.2461624  62.1607256  75.7760954
  89.2849922  62.6294899  74.7049284 109.3037605  99.9591446   4.3600622
 110.1573467 100.0668049   4.7796136 109.4848728 100.0422096   3.4238303
  99.2165947  52.9041719  92.7717209  99.2354870  52.2050428  92.1181965
  99.1119289  53.7068319  92.2608280  86.9843960  93.5696888   9.6472430
  87.2573757  93.7071991  10.5543268  86.9383526  92.6182938   9.5525885
  74.1774702  23.7670541  59.1421509  74.1834593  24.2551589  59.9655247
  73.9455080  22.8734994  59.3951082  74.3639231   9.4516069  80.6152725
  74.0130043   9.6937156  81.4722824  75.2104139   9.0485549  80.8082390
  83.3938217   5.3493732  83.2759380  83.3347893   5.7980084  82.4324512
  82.5500870   4.9076045  83.3718204  59.6979427  29.7658634  86.9660950
  58.8882875  30.2690911  87.0524406  60.2480268  30.0715685  87.6873302
 115.1304817  82.1178341  25.0299025 114.4116306  82.2913647  25.6376672
 115.4520607  82.9855728  24.7852755  71.6510391  98.1467342  45.0059843
  71.7410231  98.5273743  45.8796263  72.0884943  98.7706470  44.4266748
 108.5627365  78.4957123  26.0540271 108.7740898  78.7530565  25.1566219
 109.0946198  77.7155304  26.2110329 105.0225544  10.3767395  69.4402218
 105.8072090   9.8641807  69.6347284 104.6149254   9.9206233  68.7039948
  78.6323690  10.5170095   1.4085725  77.6956320  10.7120180   1.3817546
  78.6977482   9.7297418   1.9490978  84.1804409  30.6184149  92.5421906
  83.8004780  30.7487154  91.6733551  84.9024296  31.2454534  92.5843620
  59.1958105  51.9250340  95.5546980  59.8209154  51.9369073  96.2794991
  59.2494642  51.0349412  95.2067066   5.3787833  65.5131340   4.1210088
   4.4808650  65.3252983   4.3943068   5.3986931  65.2859068   3.1913835
  74.2616129  99.5666027  11.3929594  74.6320820  98.6844158  11.3659489
  73.9141607  99.6533966  12.2806406 109.7101021  85.4138470  12.2856605
 109.5095158  84.4809055  12.3605573 109.9039555  85.6898212  13.1814778
  21.3308501  15.8125377   5.1506609  21.8528891  15.8975065   4.3528607
  21.5466690  16.5922117   5.6622881  77.6915610  52.8980012  96.4385506
  77.5683176  52.1331353  95.8763938  76.9886362  52.8356785  97.0852709
 102.5360870  51.7986298  85.8295536 102.1594810  52.1039629  85.0042248
 102.6660252  52.5959444  86.3430119  71.9370270  17.2659051  71.2391520
  71.2866449  17.9652476  71.1746788  72.4354076  17.4744165  72.0293236
  44.8943901  19.4893479  22.6736021  45.3511953  20.3301239  22.6479340
  44.6794271  19.3616688  23.5975718  57.0690727  14.4043410  94.8201275
  56.6655684  13.7409699  94.2603493  57.7292824  13.9255214  95.3212070
  68.1252670   0.8239446  92.1930408  68.6404705   0.2377168  92.7472401
  67.8607464   0.2807123  91.4506435  64.3133688  42.3955202  93.2987309
  63.6628628  42.1561956  92.6385784  63.8185978  42.4416351  94.1168404
  85.1439095  23.0346513  63.2150936  85.1328087  23.9702296  63.0131006
  85.2531719  22.6074672  62.3655033 102.1537685  97.1182537  30.6716204
 102.3752880  96.4570713  30.0158811 102.8286743  97.0243931  31.3438749
 105.2632332  68.1709194  83.4534931 104.7681141  68.9879036  83.5137272
 105.1440334  67.8848314  82.5478554 106.9554138  86.0305786  13.4033573
 107.2781849  86.7542171  13.9403880 107.2481728  85.2429581  13.8618052
  75.5572081   4.4323722  71.7994356  75.8018255   5.1753974  71.2477922
  76.2619400   3.7972608  71.6720819  81.3175774  51.5538979  74.9708319
  81.7946911  50.8498859  74.5315552  81.7437744  52.3563147  74.6696377
  68.8428211  30.2161622  69.1002798  67.9067278  30.3162217  68.9272213
  69.0976524  31.0371518  69.5213175  33.0377817   1.6403127   2.7681947
  33.4035182   1.8518864   1.9092967  33.8026524   1.4931998   3.3245781
  44.3265820 110.0661182  10.7565546  44.0180159 110.8800697  10.3584385
  44.2101622 109.4060612  10.0731730  68.0541801  51.5932178  84.1336155
  68.8939285  51.2263489  83.8570881  67.5775385  50.8493853  84.5020676
  99.2377758  25.0627637  74.9363661  98.5444736  25.2923369  74.3176174
  99.1555595  24.1156125  75.0476074  86.9981802  82.2922163   0.3445596
  87.3184669  83.1836229   0.2065629  87.0481909  82.1636944   1.2917680
  67.6767015   4.6367270   7.8483987  67.2558880   3.8174546   7.5877464
  67.8738213   4.5196423   8.7777358  17.7090061  46.0492420   2.5010279
  17.5545514  46.8542480   2.0067219  18.5933936  46.1502600   2.8530037
  89.6256161  43.9799547  86.6300106  90.3318119  43.9642525  85.9840393
  89.8813343  44.6648979  87.2478199  65.8119106  24.0435600  95.4377270
  65.2796984  23.3966804  94.9745560  66.3035345  24.4880080  94.7470760
 112.1617317  86.8501472   2.3120384 112.0112419  85.9711838   1.9641894
 112.4559212  87.3594666   1.5568677  78.0735016  74.8305655  75.7163000
  77.8583479  73.9274406  75.4832602  78.9461899  74.9712706  75.3490829
  33.1528354 104.5251465  58.9514828  33.9881301 104.5571518  59.4178391
  32.7727699 105.3940582  59.0809917 107.2667217  81.1764908  14.4296980
 107.6037216  80.7297134  15.2062702 107.0722866  80.4708290  13.8128769
  69.8968267  93.3245850  29.1071558  69.8844528  94.2388535  28.8239861
  70.7947254  93.1781483  29.4047499  13.5645103  21.8842602   2.6549208
  14.4604301  21.6304731   2.8766239  13.1937563  22.1990013   3.4793663
 109.6344566  83.0218220  80.8380032 109.8759174  82.4136639  80.1393795
 109.1916561  82.4762726  81.4880276   2.4821211 110.6298161  11.4516938
   1.5998664 110.9223747  11.6803145   2.8992334 111.4022350  11.0700977
 103.5830402  39.5283413  92.2258186 103.8737392  40.0036335  91.4474773
 103.3962917  40.2126741  92.8685093  73.4567165  14.5309961  78.0268192
  73.8124895  13.6591816  78.1988525  74.0933371  15.1305580  78.4160137
 107.2464180 100.6370640   9.0660983 108.0411148 100.2990246   8.6532825
 106.5704250  99.9965763   8.8446134  44.9340963  21.7130947  82.5233936
  45.1895523  22.6210022  82.3600578  44.9169827  21.6370296  83.4774113
  10.3939617  58.9641380  39.3482018  10.5144477  58.5675097  40.2109861
   9.7773731  59.6807957  39.4980383  52.7130604  28.2197452  75.4495239
  53.4070301  27.5763297  75.3057957  52.0341158  27.9850841  74.8169136
 106.2751770  47.0090723  56.6097021 106.0389709  47.9202127  56.4357519
 106.2569046  46.9348717  57.5638485  89.2605686  31.5275860  89.2632389
  88.5824299  31.1677408  89.8349667  90.0310230  30.9863091  89.4354248
  79.5293283  53.4122992  68.4873390  79.5854759  53.0316114  67.6108932
  80.4183483  53.7133408  68.6751080  23.0209231 111.6898537  31.9899154
  22.5571084 111.7981434  32.8202057  22.7270937 110.8405399  31.6604209
  75.7872629  51.6808748  93.2708073  76.5335608  52.2268486  93.0234432
  75.4345894  51.3659668  92.4385262  93.4375286  80.2305603   4.9449730
  93.0651855  79.5088625   5.4516709  94.0645790  80.6422043   5.5396056
  92.9126167   4.9458319  94.3481541  92.2422791   4.3333694  94.0452385
  92.7004623   5.7695144  93.9091015  97.1347332  73.6393309   9.9452257
  96.7785454  72.9644203  10.5230260  97.5527477  73.1511354   9.2358863
  67.5966167  45.3691387  79.0043259  68.2887793  46.0128975  79.1550303
  66.7875481  45.8805466  79.0144396  89.4214153  42.4346352  71.2708235
  89.9193573  41.8219614  70.7296038  89.0667248  43.0699539  70.6488943
  65.8265209  15.0651813  79.4190502  65.5041313  15.5906451  80.1512909
  66.4966011  14.5014012  79.8055458  74.3684769  19.0300238  18.4912634
  75.2661991  19.1772509  18.1935120  73.8565350  19.7105789  18.0542397
 116.0708618  43.4966326  75.4726458 116.1043644  44.2782784  76.0241270
 115.2915764  43.6192322  74.9305058  49.2283916  17.2988427   8.6745501
  48.4300566  17.4423933   9.1827673  49.9296618  17.2952521   9.3260437
  81.3022327  31.2708926  93.3176327  82.0381737  31.8123579  93.0322552
  80.7554817  31.8628716  93.8342190  69.9103451  54.4950342  73.7129259
  69.0878916  54.0121984  73.7945890  70.0708675  54.8446608  74.5894098
  83.6052990  16.4980614  91.0553074  83.1047058  16.6506720  90.2538395
  84.5203972  16.5385497  90.7774925  71.0059071  50.5995893  92.7555943
  70.9483624  50.8659554  91.8380070  71.1239100  49.6502686  92.7224636
  14.2263806 111.4893111  87.5824738  13.6805594 112.0638637  87.0456219
  14.1947758 110.6431635  87.1360779  80.6539249 104.7507095  70.1361179
  81.2580872 104.0875721  70.4699755  80.7303619 105.4773808  70.7544565
  61.8274117  34.6605134  81.5323734  61.8413210  35.5379343  81.9146919
  62.5834036  34.6429515  80.9455109  43.0217171  74.3480062  16.8409908
  43.5113668  75.0666237  17.2410703  43.0516434  74.5313597  15.9019923
  98.4991360  51.5167570  90.2952957  98.5369682  51.6857195  89.3538857
  97.5671673  51.4013529  90.4806519  74.8147631  42.3092318  81.5722466
  75.3643131  42.7519131  82.2189808  75.4315472  41.8165350  81.0309029
  82.3546314  22.7126670  82.4886799  82.5452328  23.4321666  81.8868351
  82.2548866  21.9471097  81.9228172  68.9056730  56.0807657  76.3751507
  68.2430267  56.2143612  77.0528555  69.5066643  56.8184948  76.4790678
 106.8571663  89.1466808  24.6610451 107.2457409  89.3854237  25.5026126
 105.9802914  88.8331604  24.8824501  28.6108208  13.2293785  11.9347620
  29.2574477  12.9836214  12.5963593  28.6475945  14.1854823  11.9074523
   7.5432228  81.6257577   1.0785837   7.1571659  81.9428997   1.8950529
   8.4761738  81.8227654   1.1624116  67.4484634  30.0288582  94.3643761
  67.9909849  29.2949700  94.0757370  67.6866198  30.1561356  95.2826977
   2.2431852 101.6088867  10.2192974   3.1905314 101.7450237  10.2345562
   2.1226238 100.7249355  10.5661893  92.3212242  49.7958183  88.5256958
  92.5324440  50.6481695  88.9066410  91.3686943  49.8048735  88.4317589
   8.7519646  89.2024517  14.9157405   7.9118770  88.7436771  14.9120462
   9.3469155  88.6090279  15.3741276  20.1409841  84.6230125  18.2760584
  20.1626730  84.8186016  19.2128122  20.3691673  85.4508686  17.8531861
  21.4097166  57.7155161  20.4900599  21.5147161  58.5008621  21.0271239
  21.4619350  58.0330896  19.5885873  47.6388979   6.6064650   2.1535335
  48.0616713   5.9788465   1.5673685  46.9303179   6.9823176   1.6311544
  96.2054825  67.3876953  92.5858307  95.8082771  66.5281248  92.7258301
  95.4985523  67.9221773  92.2241592  38.8538980   4.7995692   3.9096251
  39.5970201   4.9519521   4.4933924  38.1526875   5.3441322   4.2673737
  77.2097206   4.0775135  14.9620140  77.1807718   4.1531292  14.0082443
  76.4986086   3.4735939  15.1760900  89.9237061  52.4431372  79.6084023
  89.5390701  52.0629263  78.8186407  89.7771358  51.7843819  80.2872181
  14.4504595  83.8663673  15.9810901  14.6726060  84.6139145  16.5361202
  13.5488224  84.0320683  15.7057273   4.5330164  86.8546104  13.7390029
   4.2367822  87.7483749  13.5667396   3.9094305  86.5151501  14.3809807
   3.7414455  98.2112598  20.9833407   3.3846372  99.0793133  21.1714745
   3.0225524  97.6096725  21.1770439 112.6006508 106.8141556   2.5965667
 112.6309776 107.7648544   2.4894337 113.2042408 106.6349983   3.3175513
  14.2229402  73.9445066  11.9229341  15.0425935  73.7051630  11.4903641
  13.5524738  73.4412241  11.4609683  70.8499241   9.8116052  93.7114239
  70.4588032   9.6552330  92.8518867  71.2542725   8.9763486  93.9461136
  40.9647655  41.5849018  95.7026291  40.5263710  41.4503717  96.5428352
  41.8623018  41.2868357  95.8503532 111.8168163  72.6404285  18.2479310
 111.3302422  72.5914812  17.4250817 112.3288441  73.4459591  18.1758595
  10.2486813  53.0864239  17.0311821  10.5575264  53.7998343  16.4727056
  11.0360849  52.7719164  17.4753785 108.3375168  66.9858265  61.9474888
 108.2260704  66.0372972  62.0115232 109.2732334  67.1066904  61.7860937
  64.5420027  21.9573903  84.7717285  63.9669371  22.2977901  85.4570484
  65.4090786  21.9337606  85.1765156  32.8926277 105.9731293  15.5147874
  33.6078978 106.2369537  16.0935926  33.2539916 105.2504921  15.0015092
  96.4346695  26.5495658  94.1835976  95.5513096  26.3204384  94.4724178
  96.6962528  27.2678471  94.7596836  42.1752977   1.5677869  10.0742722
  41.4391088   1.8487974   9.5308673  42.6817751   2.3662931  10.2229404
  73.4493446  24.3102813  87.1203709  73.5965347  24.1218090  86.1935234
  72.9079103  23.5839558  87.4294472  87.1357250  54.6884394  84.7629738
  87.4056625  54.4846821  83.8675117  86.7226315  55.5495071  84.6985435
  97.6568604  72.1659517  42.4483347  97.4864483  73.0938673  42.2865868
  97.0578861  71.9325066  43.1575394  61.6841173  39.3214726  92.3876762
  62.1416521  39.9915600  91.8798542  61.1800241  39.8142529  93.0352020
 109.7162628  58.1088448   7.9286581 109.0577698  58.5129786   8.4937191
 110.0150013  57.3429012   8.4188759  73.5324955  30.8390498  94.6711636
  73.6754274  31.4542484  95.3904247  74.3243790  30.3015709  94.6547699
  59.1102362  61.2470245  88.1957245  60.0510979  61.0961676  88.1048775
  59.0325451  61.8251038  88.9546871  36.1990476  15.9449887  18.0371809
  36.4579654  16.3793039  17.2244310  36.9365907  16.0875785  18.6304188
  74.0742874  39.6575212  89.1689110  74.0398741  40.5574465  89.4932175
  74.7285461  39.2289305  89.7207165  42.3586941 100.5263424   7.2632515
  42.0540524 100.8343124   8.1168205  41.5766621 100.1651859   6.8458533
  78.1690264  55.6302261  69.5664740  78.9286900  55.1552153  69.2295647
  77.5020504  55.5277061  68.8876057  69.1568232  47.0175314  65.9953547
  69.1044426  47.3691463  66.8840933  68.3571959  47.3251963  65.5685425
  74.3647814  31.1336589  90.7097340  74.6148586  30.3488851  90.2220631
  73.7554884  31.5915060  90.1306152  49.6906137  48.9433050  63.1191683
  49.0735102  48.9921474  62.3890781  49.1383123  48.9560080  63.9008617
 107.6542568 110.1099205   4.3913332 107.1226215 110.1036835   3.5953704
 107.1877575 110.6969166   4.9863476  10.1375437  70.8199453  30.9744573
  10.0268495  71.6624689  31.4150620   9.2714745  70.4141092  31.0125804
  80.1246262  38.4381938  84.5171928  79.6423197  38.6081934  83.7080574
  80.2249241  39.2998672  84.9217892  69.2774773  32.0464039  86.6487885
  68.4120274  32.2565508  86.2979698  69.1006279  31.6558504  87.5046062
  80.9358597  14.6298432  92.6977062  81.7765045  14.2704022  92.9811478
  80.3938293  13.8608742  92.5212955  29.4250154  40.8503819  11.1079311
  29.4115639  39.9447274  11.4175153  29.9748254  40.8276320  10.3247190
 108.5683155  88.8084126  27.0862317 108.2867622  88.9541340  27.9894042
 108.3970165  87.8799152  26.9288015  61.7154264  72.2496271  95.0308609
  61.7165995  73.0446434  95.5639458  62.2219181  72.4823046  94.2526817
  94.3461418  15.4761326  70.9600878  94.9327564  14.7336221  71.1042929
  93.7592411  15.4680681  71.7161989  84.0656662  39.0950012  92.0009995
  83.5218716  38.5578775  91.4247799  83.6366367  39.9506545  92.0061398
  73.8686609  43.7461472  76.1519957  74.6783495  43.8053513  76.6590834
  73.2593250  44.3291998  76.6047573  85.6975651  46.3549614  87.2987366
  86.3668633  46.7433548  86.7353344  86.0984039  46.3344955  88.1677246
 109.1049099  90.6059837   9.0439320 108.8441563  91.0125256   8.2175148
 108.3400154  90.7041264   9.6109682  66.8374491  18.5147953  86.6396141
  66.8952799  19.3587899  86.1917686  67.1777678  17.8834724  86.0056973
  92.5048828  42.5036192  74.2405796  91.7142296  42.8626204  74.6433496
  92.4841309  42.8290033  73.3406210 106.5858078  79.6605158  28.3590651
 106.8750858  80.1951981  29.0984368 107.3681164  79.1779995  28.0918503
   1.3698781  79.3280411   5.6118780   0.5831834  78.8372040   5.8494139
   1.0387804  80.1366997   5.2211517  25.5619740  60.1408148   8.5484457
  25.6968570  59.5770931   7.7867007  24.7616720  59.8075962   8.9542973
  95.1243973  30.4512119  66.1366367  95.5176640  31.2360072  66.5183067
  94.6634197  30.0356722  66.8653727 116.6209126  51.5145779  82.9429913
 117.2572327  51.5394545  83.6576366 115.7765675  51.6627836  83.3688259
 113.6516762  62.6865244  94.4289780 114.5175838  62.3408031  94.2123604
 113.0621338  62.2647429  93.8038635  28.0235147  73.0984497   1.4782798
  27.0940614  72.8838062   1.3990684  28.1120610  73.9448309   1.0400647
  73.0623674  89.0680122  21.7210770  73.0325413  89.7056580  21.0078049
  72.8179693  89.5681190  22.4997926 100.7815933  51.0604000  87.9724121
  99.9956417  51.3132381  87.4880695 101.4952755  51.1675596  87.3435879
 103.7681866 103.9262962  32.6651549 103.8520622 104.0760422  31.7234683
 104.0326500 103.0144882  32.7871776  77.7064323  74.9552774  62.0314360
  77.8818369  74.9018335  61.0919666  77.3893023  74.0830946  62.2658730
  10.2981853 102.0965576  14.9279606  10.9085131 101.3738632  15.0744021
  10.8159828 102.8845215  15.0929928  34.5753193  92.6986790  15.8421910
  35.2989626  92.0795441  15.7460165  34.2184758  92.7891445  14.9586117
  71.9668341  37.2355485  76.4830017  72.4579334  37.7102017  77.1536446
  72.5080824  36.4710736  76.2858677  84.9580765  18.1565773  78.2891273
  85.2175999  17.2653019  78.5226011  85.2935600  18.6985540  79.0032291
  60.5271530  45.4231548  78.7000322  60.2419615  45.9300470  77.9397964
  59.7369480  45.3221703  79.2307043  92.1184254 100.6257629  12.2034168
  92.1612453 100.4902077  11.2568319  93.0155849 100.4856586  12.5062597
  18.2977736 101.2974930   0.7473071  17.4323225 101.6468906   0.5348295
  18.1305587 100.6345081   1.4171746  73.8153124  33.0934525  77.7148247
  73.4826183  33.3183169  78.5837221  73.7971878  33.9188409  77.2304296
 106.3989735 110.7952976   2.1224433 105.5228233 111.1284351   1.9284904
 106.7278957 110.4817104   1.2800057   9.9356169  81.6343880  26.7256927
  10.6091166  82.0273304  27.2808743  10.2119923  80.7238483  26.6219234
 101.2217045 100.6201649  33.1769156 102.1180344 100.9341240  33.2962751
 101.2024784 100.2857018  32.2802567  41.8585920   1.8127979  17.1242881
  41.2644577   2.1573913  17.7909887  41.2850475   1.5545797  16.4027607
  67.0401192   9.6343285   0.7109387  67.7665043   9.1989011   0.2648479
  66.3225222   9.6123385   0.0778475  89.7842884  99.3982601   0.2077444
  90.2945232  98.7259674   0.6593187  89.3183136  99.8557281   0.9076194
  51.8295670  15.1333916  94.5786095  52.6579762  15.1912796  94.1025639
  52.0851755  15.0939703  95.5002117  59.1359138  40.1999187  90.6374836
  58.8853025  39.8313165  91.4845753  59.1812325  41.1436558  90.7909107
  63.2026100  52.4769926  71.2124205  62.6165962  52.5666618  71.9639444
  63.5453463  53.3592033  71.0693550  98.3772945  31.3345838  68.3611250
  98.6121559  30.7640195  69.0929222  97.8727341  32.0425129  68.7617254
  12.8885615  70.7186460  14.0787554  13.3591509  71.2475586  14.7229850
  12.0452166  70.5327034  14.4915819 106.0922337  40.0056934  79.4552279
 105.3231525  39.9714780  80.0240707 106.8330193  39.8674464  80.0454426
  71.0998821  51.7340946  69.6703720  70.9753227  50.8813858  70.0870323
  71.9050932  51.6369295  69.1620111  46.6115904  33.9498878  69.0421534
  46.9891739  34.8179531  68.9002895  47.1768141  33.5477161  69.7017097
  55.3760481   5.5252337   1.3097595  54.7946215   5.9399766   0.6724505
  54.8660421   5.5016577   2.1194337  24.8364043  26.8865538  20.5074048
  24.0472078  27.2415519  20.9165239  25.0565124  27.5186586  19.8231328
  81.7322353  50.4577870  96.4638721  81.3249690  51.1335320  95.9219077
  82.4201623  50.9184212  96.9442887  77.0885992  93.8836384  20.8104467
  77.3694134  93.1715679  21.3851976  76.6611814  93.4438419  20.0755167
   4.9170342  80.1099396  17.0794296   5.1712298  79.2430258  17.3957860
   5.7380861  80.6002998  17.0387411   5.2833176  87.9557610   4.2150119
   6.2163854  88.1373596   4.1025811   4.8532379  88.7917805   4.0351909
  83.0822659  33.3006334  73.7198496  82.4963570  32.6869869  74.1629934
  83.6899853  32.7431083  73.2339668  10.3716600  70.2935886  15.0459659
  10.3389108  70.5346966  15.9717226   9.5026845  69.9377441  14.8602557
  63.2877350  18.9980233  66.2609625  63.8098288  19.2301404  65.4929924
  62.4463558  19.4316435  66.1185503  73.3447170   4.0192068  89.9362850
  74.2940760   3.9304778  90.0204086  73.0388641   4.1772944  90.8294201
  98.0357397 111.1127378  -0.1452480  98.3074833 112.0032516   0.0769508
  98.2592345 110.5942289   0.6276882 101.8664074  17.1758771  83.9203072
 102.3304844  16.7476928  83.2009220 102.4756622  17.8440368  84.2343330
  75.9564686  40.2648306  92.0524120  76.0270977  39.5864320  91.3808250
  75.3980017  39.8774219  92.7263927   1.5465282  66.5813780   7.5623709
   1.2728417  67.4856949   7.4089539   1.3763128  66.1355734   6.7326003
  94.9219131  92.8186703  18.7517977  95.6301785  93.4414005  18.9155006
  94.4329834  93.1984997  18.0217886  15.2402544 107.9886913  37.3835683
  14.3187785 107.8431511  37.1692514  15.3587127 108.9349747  37.3013377
 100.2075041  96.3582998  -0.1401740 100.5950582  95.9761768   0.6472368
  99.5690906  95.7078748  -0.4327517  86.7868519   5.8490640  91.2710190
  86.4304447   4.9670869  91.1646080  87.6057625   5.8378595  90.7755470
  42.0117521  45.6359148  82.2580147  41.1193848  45.9349346  82.0833683
  42.5532150  46.1217213  81.6358948 113.1255341  43.9688110  93.0126095
 112.9420280  44.0241528  93.9504242 112.7911091  44.7909594  92.6541901
  51.2399817   2.8084588   3.3488083  50.6623650   3.3512509   3.8854325
  51.8764782   2.4512033   3.9680615  97.1345425  69.7273207   1.3915262
  97.9234695  70.0283051   0.9407178  97.1092510  70.2410316   2.1988028
  60.2936649  22.8930163  48.8845444  61.1069679  22.3884201  48.8723087
  59.6164989  22.2618198  48.6410809  89.2209625  93.8303185  18.2895398
  89.3229103  93.0317593  17.7717161  88.6017418  93.5911655  18.9791775
 100.5823803 108.5810661  17.7792895 101.3408089 108.8139629  17.2437787
  99.9423981 109.2700863  17.6006889  65.6938362  45.9604645  67.1713591
  65.6919241  46.7693138  67.6832056  64.9531603  46.0543299  66.5723467
   4.4580039 107.7354622   1.5650050   4.9890289 107.3287868   2.2497357
   5.0639302 108.3168507   1.1055759  94.1363907  16.8335760  78.9165211
  94.1941166  16.0174406  79.4133329  95.0396061  17.0243156  78.6634398
  78.1207228  24.6174431  62.7792025  77.9421425  23.7695312  62.3725271
  78.4660006  25.1564455  62.0675230  66.8835115  10.7495868  69.4495153
  67.7308559  11.1451352  69.2451000  66.5549850  10.4379439  68.6062050
  75.5323887  34.3092799  88.6765099  75.1890182  34.8473644  89.3898106
  76.3264418  33.9135742  89.0358448  94.2960453  61.7979670  37.8946996
  94.4580936  60.9182167  37.5540924  93.4097576  61.7562532  38.2538557
  98.8138199  93.6122417   0.7623442  99.6703529  93.7774563   1.1564168
  98.3453846  93.0934048   1.4162584  93.1053734  69.5706272  96.2055302
  92.5616837  70.2912998  95.8872986  93.7058735  69.9804640  96.8281460
  81.2892914  91.5779781  15.9340167  81.4033890  91.4873314  14.9879742
  80.8902359  92.4408436  16.0455465  80.1870441  25.3320670  58.1946278
  80.3636742  24.5246649  57.7117920  80.7394028  25.9896588  57.7718973
   4.7911769  96.4386654  16.1524105   4.6100712  97.3364162  15.8740413
   4.5128354  95.8979416  15.4132402  97.1459579  80.6126881   7.6052451
  96.6389084  79.9643183   8.0938649  98.0568409  80.4240322   7.8309464
  54.2887163  78.6715508  28.2464671  54.1225576  78.5239649  27.3154235
  53.9689255  77.8779364  28.6755800  22.0276928  94.0635490   6.4048427
  21.1063313  94.0587997   6.6642702  22.4141097  93.3279419   6.8800229
  56.7721891  48.6429405  78.6758137  57.6643515  48.3026075  78.6090612
  56.7503500  49.0937567  79.5199251 108.7165737  69.9847317  93.8211346
 109.3865299  69.4514036  94.2488670 107.9004765  69.5061636  93.9666939
  42.1661711   5.7162815   3.2347813  41.9190931   5.0384647   2.6056957
  41.8107414   6.5253913   2.8670275  70.2274704  26.4056516  96.0052586
  69.3584013  26.8056941  96.0355186  70.8290434  27.1248865  96.1977291
  39.0489531  37.3979759  35.7514834  39.4438314  36.5737748  36.0360861
  39.6957064  37.7814579  35.1591325  58.0257893 110.4852104  27.2998571
  57.8578901 110.1860619  26.4062405  57.8074598 109.7325039  27.8494072
 104.3727589  64.5502138  83.2395554 103.7885094  65.2835321  83.4322357
 103.7862396  63.8062429  83.1027031  90.8581638  53.5843086  83.1850338
  90.0651550  53.0990601  83.4128475  90.6437206  54.0199471  82.3601341
  84.0974045  86.0327721  69.7013378  84.4030476  85.6535721  70.5253696
  84.8336792  85.9231377  69.0995789  63.8681650  92.0749950  60.2993202
  64.5011616  92.5615025  60.8273935  63.2057333  92.7237415  60.0615358
  30.0287843   2.7978003  10.9361076  29.2048287   3.2505909  10.7563543
  29.9320197   2.4703941  11.8303525 103.4662724 103.8078022  18.5694528
 103.6128998 104.3791294  19.3233216 102.5168228 103.8106155  18.4478796
  98.0233955  28.3583283  54.1770220  98.9429188  28.2671499  54.4268274
  97.7367115  27.4647593  53.9883995  63.9005089  47.0672321  76.7640591
  63.8019657  48.0166626  76.8355083  63.4620857  46.8420076  75.9435177
   3.8912416  84.2756939   6.7274022   3.4896129  83.4256458   6.5475655
   4.7347105  84.2423534   6.2760925  54.1802216   2.8242114  31.8671441
  55.0883675   3.0083653  32.1071196  53.6707067   3.0981514  32.6297569
 102.8655910  39.2350841  76.2258673 103.7204075  38.8673472  76.4501476
 102.5970554  39.7128940  77.0106077  81.7336273  53.5134268  78.6879253
  80.9652710  53.2247496  79.1803885  81.4428425  54.3029499  78.2314968
  82.6719570  66.7359400  88.7393665  82.9998112  65.8406782  88.6542416
  82.1384811  66.8711233  87.9561996  79.4108295  25.5284572  12.9762256
  78.5307789  25.7845664  13.2521653  79.9421978  26.3129735  13.1119382
 108.6942768  22.8637314  92.7926350 109.1748905  22.0374823  92.7419949
 107.8091812  22.6103115  93.0545807  96.8646431  50.4853821  75.8304977
  96.1121750  49.9705410  76.1219740  96.4821720  51.2072611  75.3316593
  58.6586857   8.2747954  16.7058194  57.9894638   8.6878300  16.1601281
  59.1996431   9.0022272  17.0131254   4.1583920  14.0933251  20.2738547
   4.5843613  14.5623457  20.9913516   4.7284719  14.2411113  19.5192695
  83.0349922  26.4729834  92.2687054  82.3652077  27.1369481  92.1051121
  82.5562763  25.7402539  92.6562214  81.8103981   9.3873101   0.7948991
  81.2468815   8.6751860   0.4923104  82.6940918   9.0202624   0.7706629
  24.5948029  15.4126120   8.4934896  24.2719889  14.5693314   8.1758392
  24.7808766  15.2640235   9.4205976  25.4273248   2.3840873  17.8077269
  24.6295881   2.0089567  18.1807208  25.2376437   3.3188716  17.7275360
  15.7743406 108.1916332   7.0084459  15.0949407 107.7734947   6.4794755
  16.5477753 107.6417923   6.8830985  59.8165512   4.9311689  12.9603744
  60.5994368   5.4727823  12.8604841  59.9307775   4.2253852  12.3239362
  89.8907089  78.9911795  58.1118488  89.0011597  78.6903811  57.9262543
  89.8009682  79.5365763  58.8933372  13.3683789   3.6152405   8.5058069
  12.9222608   3.1155685   9.1895747  13.0867565   4.5190719   8.6472607
  61.2849188  55.2274418  95.6804657  60.3317547  55.3038931  95.6373405
  61.5740967  55.3220844  94.7729111  70.2045202  31.4266205  89.4766903
  70.6738472  32.0055676  90.0773430  69.7181654  30.8321977  90.0479603
  74.9131060  31.0010195  85.2334118  74.6390867  31.7873454  84.7613525
  75.6833029  31.2763500  85.7306194  18.8661313 104.4908905  27.8845501
  19.1736376 103.6268139  28.1584764  19.2837560 104.6356773  27.0355153
  20.1052213  22.8557396   0.5838919  20.9872007  22.7287817   0.9335037
  19.8344421  23.7095904   0.9213085  29.6763825   6.2635529  11.3902485
  29.7040701   6.3593280  12.3422420  30.5781627   6.0577917  11.1439002
  72.4876070  22.9485345  73.7853527  72.8857040  23.0995893  74.6426344
  72.2947121  23.8252234  73.4530258  78.6815357  20.7532263  84.6620464
  78.2528543  21.5101337  85.0614834  78.9822817  21.0701227  83.8103580
  30.8860159   5.7939690  31.7567301  30.9645247   6.2065345  30.8965802
  31.7846131   5.7481778  32.0833206  81.1562538  54.0954494  71.5371037
  81.5539169  54.2353058  70.6777287  81.2624836  53.1583023  71.7005253
 113.0875301 104.7941971   8.8062066 113.4215069 105.6260204   8.4703875
 112.2191048 104.7084618   8.4128714  34.0655351  16.3766348  19.8925149
  33.2902312  16.7848980  19.5072126  34.7487545  16.4887512  19.2315519
  82.0155811  68.5318613  90.6920338  82.3139668  67.8008461  90.1509094
  82.6948071  69.1984987  90.5896664 118.2528687  87.3585892  11.1348760
 118.4282589  87.8295040  11.9495559 117.4599838  86.8538284  11.3159394
  17.5390482  10.0665247   3.3658606  17.9314184  10.9396076   3.3644152
  17.9847980   9.6024400   2.6572254 105.7121944  56.3601494  74.3161774
 104.7734261  56.2257624  74.4460821 105.7745743  57.2112036  73.8825321
  80.4447079  29.2594409  66.9933271  80.7056522  30.0847220  67.4020433
  79.5056581  29.3567801  66.8353844  24.5560074  37.9258680  39.3518591
  24.2091465  37.1673036  39.8214364  24.7742581  37.5901103  38.4824562
  27.1111083  34.1551137  17.4384892  27.2418165  35.1033425  17.4356377
  27.8488755  33.8131571  17.9434609  13.0274010  40.2555752  60.9393263
  12.8253067  39.9810767  61.8337774  13.4522820  41.1073303  61.0404062
  40.5934525  14.8713148  22.5924659  41.0735989  14.0843976  22.3346782
  40.6805325  14.9036944  23.5451484  76.9528913  47.8468943  72.3433352
  77.8933525  48.0220890  72.3760796  76.8414688  47.2789383  71.5809393
  93.7489700   7.4774015  87.8130245  93.0380535   6.9813973  87.4070644
  94.4549751   7.4564624  87.1669960 101.3908577 106.6511822   0.7643020
 101.5799427 105.9733009   0.1154929 101.7435074 106.3036728   1.5835132
  52.3828697  40.8175278  88.4392643  51.5723038  40.8836985  87.9344559
  53.0245972  40.4735088  87.8179264 112.4367619  59.9831295  88.0456257
 111.7389297  59.7427511  88.6551189 112.5894833  59.1902208  87.5316238
  93.6429596  75.3122234  13.9857721  92.6942253  75.4345465  14.0200758
  93.7607384  74.3632221  13.9438677   5.9915835 106.4860439   3.4452301
   5.6062227 106.9759560   4.1716731   5.9633988 105.5728054   3.7305725
   6.3594586  87.8479576  15.4265153   6.2525499  87.0451736  15.9367561
   6.1260515  87.5966358  14.5328772  88.5087776  43.7310791  69.0494823
  88.8479996  43.2477903  68.2960892  87.5791550  43.5050583  69.0802050
  55.8643436  11.7168128  22.0602393  55.6949854  12.6571286  22.1181703
  55.0067902  11.3293469  21.8850040 113.9927101 106.0386181   4.6141943
 114.8082256 105.8815193   4.1383037 114.2580795 106.5399837   5.3851956
  44.5774174  34.9917793  89.6595860  44.5216227  34.3120813  90.3312492
  44.7892618  34.5173073  88.8557053  35.8187628  22.2762895   6.1055404
  35.1380849  22.9491687   6.1173701  35.9033155  22.0373344   5.1825112
  32.9521871 105.2443886   9.3773830  32.4061251 105.7311535   8.7600476
  33.4320402 104.6206474   8.8324803 103.0770493  72.1415091  71.1202717
 103.6229992  71.4353704  70.7745123 102.1832466  71.8878651  70.8900404
  87.7122593  47.1195698  63.1805849  87.1494293  47.7729034  63.5960579
  88.4391308  47.0054865  63.7928534  57.1407259  60.6900736   0.0959844
  58.0149353  60.4804816   0.4247159  57.1726334  61.6289466  -0.0876742
  77.9497099  26.2283945  59.4768953  77.6084757  26.4565706  58.6121845
  78.8744926  26.0331655  59.3255663  23.3157563  96.3938236   6.6389751
  22.8992128  95.5321407   6.6236788  22.7449322  96.9453239   6.1039615
 107.1470737  51.6232872  59.8970652 106.4254570  51.2407875  60.3962708
 107.1872807  51.1011124  59.0958452  86.8725491  52.6302385  75.7486916
  87.3320961  53.3407450  76.1961603  86.9885254  52.8190184  74.8174858
  97.7782631 110.2924156   7.8878200  97.8349495 111.0003281   7.2460413
  97.9318237 109.4957733   7.3798734  57.0050335  46.3633490  93.3024597
  57.9477644  46.2783527  93.4448147  56.8888903  46.2037373  92.3658276
 108.2522774  91.1373806   6.4491653 107.5586891  91.6816139   6.0763592
 107.8746796  90.2584839   6.4835751  92.2032356  79.6915388  63.1403971
  91.2652016  79.8294306  63.2719517  92.6210785  80.3875160  63.6475992
  69.4608545  48.9204311  80.5561733  69.6261406  48.2593584  79.8839426
  69.0887260  48.4293222  81.2886810  89.9252033  41.0517788  88.8244629
  90.7897568  41.3221693  88.5151577  90.0608826  40.8214474  89.7435760
  81.8753052  33.5103726  53.0559063  82.1844769  34.1379118  53.7092352
  82.3904991  33.7060237  52.2732639  47.1346283  25.5023599  30.9308362
  46.6776466  24.8349333  30.4190350  46.6239071  26.3003135  30.7942152
 104.8979282  71.6361427  16.8430424 105.5002022  71.7188406  17.5824070
 105.0001049  70.7303095  16.5510559  73.6969471  51.6087103  80.1503944
  73.3299971  51.4998674  81.0277367  73.4081078  52.4791431  79.8762608
  84.9357414  98.0173969  93.7155247  85.7481956  98.4920311  93.8912296
  84.2477703  98.6756420  93.8136864 106.8764305  49.9944115  95.0294209
 106.3896847  49.1750383  94.9403381 106.5748405  50.5329180  94.2977905
  20.0150967  27.5338721  12.5648856  20.1344824  28.3792615  12.9976594
  19.2630720  27.6645660  11.9872952  17.3493683  16.9402969  37.8482032
  16.9937003  17.4651313  37.1310711  17.9748213  16.3510752  37.4264741
  37.6814079   2.8832889  15.1457155  36.9599175   2.3056246  14.8967421
  37.5009513   3.7034959  14.6864462  83.7182903  15.6478190  81.2072563
  84.6252728  15.3988338  81.3851261  83.2051849  14.8805261  81.4606667
   4.8852041  91.0282040   1.6801032   4.6600708  90.1753044   1.3084644
   4.2263305  91.1752319   2.3587047 105.8694363  86.3643551  73.8943338
 106.8080330  86.1769581  73.8826609 105.5882931  86.1246014  74.7773457
  44.4847393  11.4787245  24.5053697  45.2977037  11.9766212  24.5915055
  44.7694159  10.5696440  24.4117451  99.0470314  80.3187656  91.5093422
  99.4638920  81.1803722  91.4990997  98.4611607  80.3271294  90.7524300
 103.0943394  82.6098824   9.9804080 103.4817123  82.4635696  10.8434057
 103.6506939  82.1127796   9.3807435  10.7524025   7.2382283  13.7085879
  10.3579438   6.7899221  14.4566882  10.6804276   8.1686175  13.9217234
  28.6378491   2.2241166   0.8783311  29.1432488   2.9457668   0.5041284
  29.2671692   1.5073636   0.9586973  59.0778542  13.5347307  18.1386924
  58.6182117  14.3452632  17.9196060  58.4722805  12.8391755  17.8823423
 101.4288616 104.8937416  20.6076455 101.5769291 105.7959270  20.8911324
 101.9789028 104.3671131  21.1876106  60.0398016  55.7139015  76.8498802
  59.5165920  56.2853718  77.4119425  60.9252596  55.7701015  77.2090960
  90.5169964  80.9639359  95.3717136  89.7548103  80.7366180  94.8391533
  90.5744934  81.9175911  95.3128624   6.0387892  98.9501476  12.7025902
   6.5775549  98.6592007  11.9668496   6.5918297  99.5744419  13.1722975
  97.4258137  39.9505305  92.1958923  97.4329948  40.9056854  92.2580338
  96.5984440  39.6903801  92.6008797  23.7272048  38.2901287  13.9404857
  22.8471446  38.2754540  14.3166673  23.9864135  39.2109752  13.9733756
  65.3893423  45.3959560  86.0472870  65.4720592  44.8334837  85.2772045
  64.4912434  45.7247877  86.0083485  90.5967140  59.9253130  73.1309795
  90.0043106  59.2410898  73.4426403  90.3544903  60.7007074  73.6372519
   3.6081177  80.4244137  25.1666617   4.0460536  81.2227631  25.4617572
   3.1413668  80.6865883  24.3731618  38.1880355  10.9125984  15.7289183
  38.1700039  11.7584324  16.1766577  37.2689605  10.6507099  15.6746054
  88.8193226  91.1867237  92.4439335  88.4217739  91.8608284  92.9950809
  89.5431709  90.8445835  92.9685497  93.4131050  66.5155506  65.9798813
  92.7307129  65.8805943  65.7621670  93.0198383  67.3661518  65.7848120
  96.1668873  82.6716423  73.3844137  95.3537178  83.1161690  73.6239958
  96.6378975  83.3076763  72.8460455  75.4307413  38.0189395  85.2223969
  76.3544607  38.0318022  85.4730320  75.0925732  38.8668013  85.5105019
  51.1321545  43.9826250  67.7466917  52.0694160  43.8312912  67.8686428
  50.8129787  44.2219591  68.6167955  55.1703739  21.5665078  29.8115373
  55.8834982  21.4366794  29.1863728  54.8481846  22.4488664  29.6274948
 115.4757309  92.1684837  20.9108353 115.9112835  92.2976971  20.0683212
 115.4417038  93.0425930  21.2994218 105.2086830  25.5384707  74.6730661
 105.0200653  26.4129925  74.3326759 106.1408329  25.4092479  74.4980764
  38.7448621  94.0173721  19.4771957  39.3841100  94.5533943  19.0078652
  38.4564328  94.5697880  20.2037454  46.0115290  95.2301693  11.1828423
  46.2343788  96.1590862  11.2434709  46.7982578  94.8179150  10.8260036
  46.8418980  10.5825293  33.6518478  47.3078489  11.1293721  34.2843723
  46.9610691   9.6890897  33.9740229 102.9002476  35.4354405  91.2599373
 102.0404625  35.0286770  91.1524677 102.7275085  36.2312913  91.7629433
  41.3867998  37.3624945  19.2175329  41.1147642  38.2022333  18.8473058
  42.2939920  37.5029135  19.4886839  46.6921997 107.0518589   2.9791728
  45.9160185 107.6063633   3.0585045  46.3443756 106.1739159   2.8227338
  51.0992050  33.8849020   3.6887425  50.2301359  33.6721182   4.0288556
  51.6906071  33.2959628   4.1573852  95.4613686  87.8833103  14.1204274
  94.8200703  88.1627274  14.7737944  96.2315750  88.4244728  14.2940855
  44.0546942   3.6718476  18.9261520  43.7561893   4.1673252  19.6887982
  43.3174944   3.7035111  18.3164251  18.6483395   8.6297220   1.4357798
  19.5922804   8.7630361   1.3495572  18.5538733   7.6939565   1.6136877
  63.4038019  26.7790556   7.3830718  63.7368298  27.3342228   6.6780072
  62.9992199  27.3904204   7.9985231  34.8704982   6.6502208  29.5839119
  34.9001884   6.3602197  28.6721826  35.0532794   5.8602440  30.0925946
 115.4138184  24.6287203  83.9695072 114.8599911  23.8869047  84.2128372
 115.0580025  24.9290967  83.1332016  93.0657101  38.2728839  96.1518860
  92.6945305  37.4240470  95.9111881  92.4569130  38.6250877  96.8011475
  73.6222744  57.6540899  96.7480183  74.1205168  58.4701538  96.7930508
  73.0238342  57.7791691  96.0115051  40.7411289   7.6521045   1.5073286
  40.1798534   7.9806864   2.2096378  40.1469517   7.1716702   0.9308118
  75.1555729  16.1744273  79.6870995  76.0175371  16.2299407  80.0996113
  74.8339939  17.0759785  79.6819592  62.1344423   6.3666165  12.1956193
  62.5661516   7.0589876  11.6951370  62.8301859   5.9923625  12.7360892
  41.9911575  12.2893453  22.5349355  42.5807762  12.2701550  23.2887340
  42.5171947  11.9502318  21.8106985  85.1255035  20.8532810  88.9377880
  84.9458504  20.3613782  88.1365395  85.0288582  21.7706966  88.6823559
  43.5842180  33.8868999  13.7974560  43.1394291  34.7273374  13.6876380
  43.3938837  33.4079838  12.9908311  99.4861221  30.0622010  85.7976818
  99.7302246  29.1830587  86.0870838  98.9347649  30.4019189  86.5025425
  20.0125885  97.0870304   3.6276165  19.3945754  96.5208244   3.1653303
  20.7333970  97.2095680   3.0098382  69.5615149  26.2631178  87.0997143
  69.9948692  25.9955978  86.2892342  69.0168905  27.0080900  86.8454838
 105.7990265  57.2614431  42.2024488 106.2441826  57.1774721  43.0456686
 106.4140511  57.7489328  41.6544199  87.9578018  28.0084586  82.1914959
  87.7269650  27.5691700  81.3729763  88.3460712  27.3200893  82.7315235
  94.8429203  48.0236340  69.9842644  93.9526939  48.0336666  70.3358603
  94.9625111  48.8965178  69.6100903  89.4403267  59.3077946  83.6471844
  89.4297791  59.6471786  82.7522373  90.3013897  59.5526695  83.9860725
 115.3557491  75.7466173  12.7907443 114.4994926  76.0077715  12.4518430
 115.3847504  76.1115503  13.6751747  77.3803234  66.9076872  87.3410511
  76.6491604  67.2245359  87.8713703  77.0832872  67.0116949  86.4370728
  77.2828579  61.0755730  89.3321419  76.7755508  60.4680729  88.7938023
  77.6303530  60.5344820  90.0411510  40.8976698  12.1399689  12.0298684
  41.7934322  11.8111956  12.1056664  40.3964996  11.6158640  12.6546681
  70.6341267  55.2966022  93.4279156  70.4280233  54.8592234  94.2540264
  70.4386950  54.6435833  92.7559090 103.6787891  30.7770467  95.0341320
 103.1750298  30.7596970  95.8478642 103.9365768  31.6931510  94.9315166
 115.2132702  31.9583607  66.8087626 114.6818542  32.4052191  67.4676657
 114.7345066  32.0840001  65.9894800  64.1600943  81.3367558  73.2630873
  63.7231255  80.4897022  73.3512926  65.0826836  81.1178493  73.1321526
  53.4973574  59.8090982  83.4588432  52.6903152  59.6360970  82.9741001
  53.7427044  60.6990242  83.2057190  26.0190296  96.0759354   1.6551483
  26.2963915  95.5623627   0.8965013  26.1734915  95.4998398   2.4038075
  26.5651321  93.0244446   8.1744862  27.4691701  93.2950974   8.0141890
  26.4573908  93.0988407   9.1226900   9.4097704  92.6066875  90.2558041
   9.2241138  91.7043400  89.9959373  10.1057887  92.8885078  89.6622086
  73.5321379  74.4558430  94.2175007  73.9687967  74.8286629  93.4516239
  73.6311531  75.1220751  94.8976135 104.0929211  75.3275165  95.9472023
 103.1916702  75.0432011  96.0993143 104.2455137  76.0034677  96.6075342
  73.9464664 109.5475006   6.9005919  74.7854805 110.0081730   6.9091499
  73.2933235 110.2411175   6.8082362  23.1786013  96.2314320  30.4884243
  23.8749504  95.7423115  30.9266973  22.7299213  95.5792236  29.9503279
  71.2654305  13.3582366  38.8645339  71.7570066  12.7161241  38.3524060
  71.7595339  14.1721106  38.7660241  88.5447788  62.6646709  79.2168999
  88.0932522  61.8298340  79.3410158  88.0448627  63.2880259  79.7439098
   1.8410814  79.5029259  86.9151402   1.2231500  78.8354826  87.2133255
   1.4917694  80.3242970  87.2609234  20.7630062 104.0545750  11.3430166
  21.0018516 104.9534988  11.5691161  21.5997124 103.5951519  11.2717402
 108.6186218  63.3668184  84.2199135 108.4677696  64.2790890  83.9724445
 108.0256081  62.8656006  83.6601353  28.3171821  96.2340927  28.4004283
  28.2982421  96.3443184  29.3510723  27.7716780  96.9459438  28.0658627
  22.8474712  28.3577609  21.4415669  23.1777835  29.0671515  21.9928288
  22.3831177  28.8020492  20.7321906  30.4309654 107.8320408  32.0287704
  30.6465769 108.7525368  32.1785641  31.2734628 107.4149609  31.8485761
 105.0440598  57.4275398  70.1263237 105.4311371  58.2706070  70.3621912
 104.4022751  57.6398706  69.4486332  43.5104322  85.8667660   2.0397222
  42.8808498  85.3326035   1.5554352  43.8997126  86.4376831   1.3773412
  74.5908785  85.2643013  48.2908154  73.7628365  85.1757526  47.8188658
  74.9558878  86.0930443  47.9806852 104.6698952  21.9095254  68.9943838
 104.6214199  21.3529992  68.2171059 105.1555729  21.3873744  69.6329021
  69.8842669  75.1189566  63.7716436  69.2314148  75.4096746  64.4084358
  69.7271061  74.1792536  63.6795044  12.6758933  33.1740880  19.9113119
  12.0145845  32.7200031  20.4335284  12.8726447  32.5695181  19.1957593
  36.7536569  94.8461533   3.3019078  37.1931171  95.2384758   2.5474602
  37.3981237  94.2388821   3.6653990   0.5469595  60.6326962  85.6248093
   0.1995551  61.5246296  85.6260872  -0.2296651  60.0731659  85.6259346
  63.9729261  81.8340683  82.7866936  64.5164490  82.5802231  82.5335884
  63.6422968  82.0623493  83.6554909  61.3941813  12.5982821   8.7019062
  61.5135098  12.4602151   9.6415496  60.4487419  12.5313020   8.5681450
  93.2779789  78.3104324  91.5448856  93.3113480  78.4176064  92.4954796
  92.3535824  78.4231234  91.3234615 109.5901203  61.0073376  73.8743019
 109.8707008  60.1022339  74.0095615 108.7928963  61.0916567  74.3973351
  15.7662070  43.2802773  74.6535301  15.6736171  42.8794241  75.5178070
  16.6369832  43.0142832  74.3581867  44.8555613 105.1021862   2.1783745
  43.9093590 105.2421284   2.1415965  44.9886703 104.2531681   1.7568570
  13.9207125  69.0041780  90.3491879  14.7222579  68.9436054  90.8688831
  13.5730219  69.8740816  90.5456829 109.4767094  54.5279455  92.3218155
 110.3753281  54.2040730  92.3835754 109.5388412  55.3012848  91.7611694
  64.7576094  46.5437746  88.2408333  65.4124165  47.2358608  88.1487656
  65.0240421  45.8763266  87.6085758  46.3661194   8.7044477  17.7356279
  46.9270897   8.2742786  17.0902646  45.7541895   8.0227864  18.0133259
  32.8731227 109.2280197  21.7776513  33.4805322 108.8831520  22.4321389
  32.3762488 109.9008846  22.2430444  77.2384977  74.0799284  91.7736053
  76.5352154  73.9809465  92.4153423  77.5658131  73.1907225  91.6379166
  93.1859779  83.7671375  13.7788486  92.2759342  83.4895515  13.8837111
  93.3434391  83.7205601  12.8358376  77.8975105  93.7939262   7.4687302
  78.5320902  93.3527756   8.0334568  78.3365107  93.8594723   6.6206646
  15.9962201  68.6568308  43.5171938  16.5172291  68.1415558  42.9013395
  15.3018188  69.0400934  42.9813290 113.6270237  95.0376320  21.8625522
 112.9330921  95.6739712  22.0350742 114.3221664  95.2683258  22.4788260
  16.4488554 100.9997749   4.4467583  15.8381855 100.3150654   4.1738397
  17.3140681 100.6026173   4.3472505 102.6679039  60.6766462   8.4189039
 103.0336761  59.7925091   8.4461898 102.6322269  60.9494829   9.3357015
  52.2749138  34.8215532  73.6454010  52.5687265  34.5696473  74.5208693
  52.9871273  34.5500374  73.0663824  77.2242260  81.7334175  75.0122643
  76.7098808  81.6898823  74.2061710  78.0879164  82.0338154  74.7293520
 114.3447304 110.9282875   0.2535200 114.6944332 110.7062435   1.1164416
 114.0707493 111.8419075   0.3339680  73.6317635 103.3443737  11.7877293
  74.3929100 103.5458183  12.3320687  73.9603949 102.7247810  11.1363220
  51.4818621  37.2386336  67.2780514  52.1924114  37.8224468  67.5436020
  51.6949940  36.4001966  67.6877213  84.4271946  23.9829230  70.8706617
  83.7689209  24.6544218  71.0495663  83.9397335  23.2765985  70.4467297
 114.0224171  99.4184971   8.2602620 113.5556793  99.3644333   7.4263161
 114.9135876  99.6720791   8.0199683 101.1334801 103.0201721   8.2830888
 100.5611801 103.2477474   9.0158284 101.9893456 102.8711033   8.6849737
  29.1185951  32.4800038  24.8835897  29.8704815  32.6138616  25.4606342
  28.4783149  33.1315994  25.1694179 101.6126823  99.2952251  12.9431951
 102.3034191  98.9828300  13.5275936 101.9618988  99.1548538  12.0630956
  82.5904942   7.4946368  16.1752164  83.4950638   7.1866721  16.2313175
  82.0668125   6.7585659  16.4917481 101.1646938  79.3503428  92.5607872
 101.4176178  79.3340302  91.6377449 100.2586460  79.6590281  92.5554371
  48.3909798  27.0425415   5.4817146  47.4954939  27.0831347   5.1460344
  48.3874035  26.2988210   6.0842919  92.9441738  60.1878595  74.4104385
  92.0101738  60.2379274  74.2070150  93.1592274  61.0515451  74.7626257
  74.4702721  96.1527061  78.5225821  74.4886112  96.8675995  79.1588354
  74.9623585  95.4465771  78.9414644   8.8008267   7.9314238  10.2051473
   8.2939404   7.4592626   9.5445698   8.2854903   7.8477770  11.0074341
 114.6454525  83.5862255  90.7024479 115.0446224  82.8006363  91.0762787
 114.9821472  83.6231232  89.8071861  20.8830070   6.9127560  41.8145275
  20.7668638   6.5682739  42.7000093  20.0739980   6.6799843  41.3589478
   2.9900113  65.9956598  86.3361168   3.5704273  66.3831711  85.6809902
   2.4377003  66.7216444  86.6261673  58.9906740  23.1115794   6.3948548
  59.8342896  23.2677960   5.9704280  58.4412098  22.7385068   5.7055533
  74.0908957  33.9319015  69.1584253  73.1351900  33.8784361  69.1598177
  74.2823505  34.8064852  69.4970655  76.2075663   4.0359879  67.2065735
  75.5003834   4.4234562  66.6908360  76.6000080   4.7763756  67.6692295
 100.9475517  58.5198402  84.4456577 101.5035915  57.7440691  84.3733597
 101.2787914  58.9809656  85.2162933 103.6524200  60.5422401  90.3853512
 104.5777321  60.3133917  90.4728222 103.2206726  59.7157335  90.1692200
  73.1571007  80.9998512  93.1676292  73.0864668  80.4876995  93.9731979
  72.7836657  81.8521309  93.3921337  25.0188065   6.5302247  21.1746645
  25.3578544   6.3281941  22.0467091  25.7754540   6.8687630  20.6960130
  87.9406452  68.5377884  93.2803822  88.4763336  67.7523088  93.3912277
  88.2095909  69.1140413  93.9958000  14.8015845   6.6591585  71.7693996
  14.7734261   5.8742678  71.2222385  15.4902303   7.1980095  71.3799906
  89.2922020  58.4540081  44.2980957  88.8908195  58.3694649  43.4332418
  88.5759926  58.2900381  44.9116039  14.4194198 106.2514400  11.4577425
  15.3690267 106.1768532  11.3633204  14.1301763 106.6694355  10.6466651
  92.4736404  38.0692720  92.1375942  91.8357182  37.5967574  92.6723957
  92.3550320  38.9878917  92.3790550 102.6556206  51.2420416  79.4174337
 102.0755005  52.0026302  79.3828344 103.5365200  51.6091394  79.3433380
  82.7246475  50.8314228  66.5376377  83.3131409  50.9276390  65.7888699
  81.8901443  51.1885452  66.2338257 110.4149246 101.7133808  69.1848516
 109.7630119 102.0160484  69.8170090 110.0911140 100.8598804  68.8969088
  69.5781612  52.5422001  15.6282282  69.9173307  51.7334509  16.0117924
  68.7299871  52.6712799  16.0526896  82.7491951  41.4044380  91.4466095
  83.1926060  42.0733166  91.9683552  81.8423271  41.4244461  91.7522621
  36.7131090   9.2341357   9.7106177  35.7943320   9.1975826   9.9765915
  36.9546700  10.1550436   9.8096567 115.2818489  73.7687778  33.9170027
 116.0534286  73.2938719  34.2258048 114.5674038  73.1354666  33.9857578
  68.0657291  95.3368378  82.3237801  67.9298973  94.4358635  82.6170826
  67.2876310  95.5395412  81.8044376 105.5096626  54.3407202  96.0233498
 104.7069359  53.8645315  95.8109570 106.1260891  54.0899229  95.3353405
  38.5797095  16.1596990  16.2377894  38.0196929  15.5256128  15.7899654
  39.2318678  15.6252718  16.6908979  96.0685253  51.4345360  79.9909878
  96.5710545  51.6508055  79.2055464  95.7091427  52.2720814  80.2835655
  83.4617138  93.1681919  69.2130089  83.4741211  94.1248989  69.1850233
  82.7330971  92.9213428  68.6434412  29.5047975  33.4674168   9.8412478
  28.8557291  33.2095432  10.4958034  30.2523088  33.7755251  10.3536236
  18.2355177  14.5538330   1.9817740  18.1792486  14.6233785   2.9347846
  18.5343409  15.4170763   1.6958582  54.9733639  24.5486975  40.4529810
  54.0942860  24.9195194  40.5300522  54.8432922  23.6042643  40.5387688
  11.9218051  78.4592104   3.9895037  12.6115716  77.8662443   3.6914352
  12.0420861  78.5090733   4.9378064  85.6221390  17.3913157  34.2710710
  86.0217857  16.5260494  34.3595576  85.0262833  17.3049664  33.5269403
  88.6686707  24.1387057  29.6516871  88.4827423  24.8203325  29.0058923
  89.0161419  23.4099555  29.1374707 103.2045650  22.3646259  90.5398846
 103.8298798  22.9174423  90.0712585 103.0183792  22.8445864  91.3468647
  74.1947794  35.1965547  35.9987164  74.9602699  34.7171831  35.6817579
  74.5511436  36.0142660  36.3459706 102.7935314  91.4523029  62.7211285
 103.4420013  91.9575596  63.2114601 102.2105503  91.0961342  63.3915806
  76.1043787  34.8709416  11.9617009  76.6123343  35.6509018  11.7383671
  76.6291904  34.1410732  11.6329157  89.3313980   1.8548544  37.7108788
  88.4687614   1.6434965  37.3539162  89.1459084   2.3643997  38.4996700
  20.8628607 100.6128693  10.0695431  21.4789009 101.3357449  10.1886475
  21.2600446 100.0693512   9.3890584 114.0891457  88.0877876   9.0132356
 114.9882412  88.1030178   8.6851847 113.5728264  87.7501869   8.2813364
  60.1629972  28.9565444   3.6446190  60.5888176  29.7986293   3.4839815
  59.8526812  29.0136003   4.5483220  53.3454752  17.9472697  40.2733135
  54.2072868  18.1952775  39.9386358  52.7282000  18.4476757  39.7396517
  91.6228104  77.2254467  50.9165382  91.4150238  78.1431723  50.7409143
  91.8776894  76.8703794  50.0649548  80.9750175  57.1306562  85.6903076
  81.1454487  57.9461956  85.2190495  81.5641308  57.1620035  86.4440918
  75.0954437  61.0831356  80.3339863  75.6562376  61.0137749  81.1066055
  74.2700100  60.6780100  80.6000137  63.3899021  15.8087337  26.7707181
  62.8681040  16.4301848  26.2630224  64.0300465  16.3524365  27.2298837
  28.7731147   6.4125603   2.4732205  28.2066178   6.2931627   1.7109495
  29.1075993   7.3051262   2.3855962 115.0747669 104.3530612   0.9280080
 114.6218908 104.5660739   0.1120729 115.0520218 103.3971458   0.9720582
  45.1691771 107.4691868   6.0586810  45.0606394 107.7463913   5.1489520
  46.0269308 107.8100777   6.3122261   5.5914998  52.5535536  90.1762104
   5.7120210  53.3435154  90.7031536   4.6639904  52.5625229  89.9398232
  27.0650363 109.8880482   8.6885875  26.5991473 110.7148266   8.8135332
  26.4332056 109.3216705   8.2456017  72.7212620  53.8985777  84.0783596
  72.4816608  53.6766577  84.9781227  71.9043636  54.1991377  83.6801529
  49.2865133   9.5999670  13.9399290  49.6430922   9.4360608  13.0668795
  49.8821020  10.2427256  14.3251133  30.9621000  30.8168292  12.3550069
  30.4141569  30.1678777  12.7964270  30.7852221  31.6351128  12.8190708
  46.2687254  94.1450214  20.8339548  45.7416630  93.3984852  21.1187696
  46.3127089  94.7141933  21.6022897  99.6094322  70.2885199  87.5926685
  99.9404240  70.7550859  86.8252087  98.7788391  70.7191467  87.7949619
  26.5846181  43.2389879  25.2593136  25.9633327  42.9432726  25.9247375
  26.7560482  42.4607754  24.7290039  45.4873419  24.1796756  13.4761608
  44.7794437  23.8158107  14.0078688  45.6052780  23.5460925  12.7684212
  20.9543157   7.9521006   4.8936647  21.8435717   7.8319001   4.5604858
  20.5991912   8.6731207   4.3738121  35.7884049  29.5338988   1.3716102
  36.7174578  29.6826649   1.5475647  35.6140709  30.0285864   0.5709076
  94.1569614  63.7401628  91.9464493  93.7766933  63.0093431  91.4590836
  94.4994450  64.3259048  91.2712860   7.3712265  99.8369408  19.6598005
   6.8020481  99.1505051  19.3118286   8.1426871  99.3691444  19.9795640
  63.2027483  56.1589861  82.2196674  63.3342218  56.3650990  81.2942219
  62.5125742  56.7587090  82.5029182  75.3644228  83.7353992  85.0323009
  75.1424074  82.8204155  84.8598671  74.9275446  83.9359760  85.8600330
  56.7923164  29.4776344   4.0554312  56.6912937  29.0232277   4.8918173
  57.2256231  30.3008246   4.2808950 115.7705307  90.3923035  12.0609367
 115.1659679  89.6543598  11.9823539 116.0025501  90.6090546  11.1579311
  42.2458601  42.8267097  49.4450426  41.3908768  42.6589966  49.0486717
  42.2445822  42.3044109  50.2471876  79.0556717  71.4131689  77.1581888
  78.4354019  71.6252279  77.8557062  79.1828680  70.4671955  77.2302103
  80.4376411  88.9340401  88.1198788  80.3403473  89.7293949  88.6435032
  80.6513309  88.2524490  88.7570572  86.1184311  16.0730338  38.3580828
  85.3624344  16.6578531  38.3062744  85.9543419  15.5376589  39.1344070
  24.2814136  24.7239256   4.8033199  24.3285894  23.7690067   4.8495343
  24.1061687  24.9989080   5.7032681 113.5421085  53.3572912  94.4929600
 113.1786537  52.5280905  94.8037052 113.1823254  54.0146542  95.0884819
  73.7736368   3.6680767  10.6926727  72.8681993   3.9779297  10.7127452
  74.2733908   4.4105190  10.3531742  98.6722088  63.2524920  73.2707119
  99.2668152  63.2230473  72.5211716  99.2292976  63.0639601  74.0259218
 100.3046322  78.7726593  80.2404881 100.6281281  77.9387951  79.8995256
  99.5005322  78.5448408  80.7071209  89.2507267  26.3494849   8.2548559
  88.7105751  26.4838767   9.0335709  89.0827370  27.1191120   7.7110893
  67.8574562  53.3573151  89.8018265  66.9438314  53.0939054  89.9119759
  67.9230833  53.6155939  88.8824654  44.9972153  17.2511542  26.8987584
  45.4375124  16.4289713  26.6833806  44.2003727  17.2421813  26.3684797
  86.4764118  90.5267811  95.1082897  86.6219234  91.4542103  94.9214077
  85.5242729  90.4370594  95.1484776  59.8625326  55.4637003   9.8688966
  58.9350367  55.4526520  10.1052415  60.3119993  55.7186031  10.6746483
  22.3254299  15.3996718  20.1112318  22.2132134  16.3402379  20.2489734
  23.2417703  15.3032279  19.8519027  53.1698895  35.7716894  11.2214744
  53.5120535  35.9106207  12.1045685  52.2205830  35.7288647  11.3364196
  64.2089605  60.9945345  83.5752583  63.7931633  60.3764439  84.1763401
  64.3205786  60.5004930  82.7630329  99.2773438  75.9080076  92.3147106
  98.3324718  75.8090401  92.1978855  99.3655491  76.5154314  93.0492115
 107.8489017  49.9964952  85.7893372 107.6790047  50.0260019  86.7308807
 107.0079708  50.2142859  85.3872871  92.3417377  55.2464724  84.8017502
  91.8830109  54.6934128  84.1693592  93.1125927  55.5613995  84.3297005
  82.3610115  73.7488079  93.7775803  82.2661114  73.3994627  92.8914738
  81.4923763  73.6514139  94.1677284   5.3363734  79.3226194  78.3648109
   6.1772090  79.5746946  78.7465000   4.7737679  80.0851440  78.4999609
  47.0097971  24.5485687  24.3988872  47.9376602  24.7806931  24.4365978
  46.6537571  25.0975943  23.7002897  72.6883030  36.6015387   1.8369211
  72.4835491  36.1088181   1.0422305  72.8823185  37.4861360   1.5269583
  33.5390568 102.1702766  70.0654697  33.4141445 103.1126404  70.1775837
  34.2504168 101.9497490  70.6667709  30.4030371  22.3274279  27.2928452
  31.3259411  22.4840927  27.0930028  30.1386523  21.6406798  26.6807103
  13.8183129 105.8246422  21.3973856  13.5681188 106.2173367  22.2337055
  13.7079167 106.5295124  20.7592607  39.5268083  47.5567293   6.7782289
  40.4479694  47.3215485   6.6669405  39.5282006  48.5125256   6.8299645
 101.1624432  86.6608143  72.3581886 101.1383533  87.4306011  71.7897797
 101.2891483  85.9248352  71.7594337 101.5849876  20.7847333  84.5020866
 101.4719105  20.6056309  85.4355621 101.2819481  21.6860843  84.3927193
  85.8694839  61.0597992  58.1988764  85.7752609  60.5068445  58.9744997
  85.2068233  60.7334280  57.5901175  73.2413244  32.1830392  12.8991079
  72.4235630  31.6968918  12.7934539  73.8272619  31.8124366  12.2391355
 111.7426014  56.1424351  94.5432472 111.5404892  55.8911324  95.4444790
 111.0721970  55.7066870  94.0170097 101.8698311  41.0482740  84.3861008
 101.4715385  41.1510992  83.5217953 102.0291615  40.1078176  84.4660473
 110.4758644  34.8041725   5.3171909 110.2765179  35.5793643   5.8421367
 109.6718121  34.2853785   5.3412294  51.1455297  14.6259582   9.5831132
  51.5104675  14.1385317  10.3216696  51.3049793  15.5444980   9.8001170
  60.2718544  14.2192018   2.1354890  59.6851063  14.1362488   2.8872052
  59.7083616  14.0767443   1.3749543  65.3414249  68.7971115  55.9193468
  66.0556316  68.3102179  55.5081654  64.6344233  68.7755346  55.2744293
 102.3724461  66.4259052  73.8906908 101.5407848  66.1524057  73.5036707
 102.8446293  66.8457842  73.1716824  90.4633522  45.3831720  70.5796766
  89.8670769  45.8931208  70.0313759  91.2658882  45.3157711  70.0623512
  28.5806465  19.7447062   6.7375660  29.4144678  19.3919337   6.4268804
  27.9902196  19.6581745   5.9891415  75.0397682  14.1265011  68.8339853
  74.4199944  14.7881544  69.1411114  75.1017094  14.2759442  67.8905535
 103.1158066 106.1107063  14.9839139 103.7076283 105.5770206  15.5141568
 103.6593723 106.8350029  14.6738410  42.1400213  65.3094482   4.1363624
  42.3670053  66.2390852   4.1142794  41.8184805  65.1624775   5.0258797
  19.9752033  31.6832972  21.6990614  20.1053953  30.9929585  21.0488987
  19.8674178  32.4817681  21.1822891  39.1899228  21.3776112  29.6248841
  38.6693144  20.7578802  30.1358914  38.5623837  22.0440984  29.3452001
  78.2191277  75.1247549  95.6738377  77.3347473  75.3808689  95.9355831
  78.6513662  75.9493589  95.4515171   4.2505646 108.4494019  36.4863920
   5.0142920 107.8733826  36.4524317   3.6923963 108.0674267  37.1637177
  28.6027527 103.8701534  25.8917856  29.4258213 104.3276882  25.7201600
  28.1666875 103.8341713  25.0404429   0.8008144 108.5490417  59.1672611
   1.6047344 108.0489254  59.3080711   0.0993704 107.9552746  59.4349337
 108.0991077  88.3678913  79.2328453 107.8586769  89.2249775  78.8809586
 109.0365505  88.4374905  79.4133663  80.4112148  62.4829054  92.3998356
  80.5226326  63.4328651  92.3623848  80.4542828  62.2005033  91.4862537
   2.4250367  73.1436110  95.3603172   1.8338546  73.2497406  96.1056137
   2.0261420  73.6631393  94.6623135  90.9648323  81.6838837  88.2240677
  90.5064201  82.4803257  88.4919453  91.6091824  81.9827175  87.5823975
 106.4341927  78.4808350  85.9741592 106.2996006  78.8098288  85.0854111
 105.7581997  77.8126287  86.0871410  90.4200268  73.8188267  88.9912796
  90.1583862  74.6606016  88.6182022  90.8194160  74.0431213  89.8317623
  60.1551390  24.5912886  19.7051513  60.7142973  24.1407013  19.0722620
  59.3027449  24.1645813  19.6181083  48.7441492  17.4963975   0.5956711
  48.2109690  18.1600988   1.0332215  48.1622124  17.1179724  -0.0634004
 109.6113682  97.2474670  82.9204082 110.0170135  98.0939388  83.1079388
 109.3852806  96.8943405  83.7808895  21.8124676 105.1780224   1.9199516
  21.1808968 104.6077824   2.3583296  21.2833190 105.7075405   1.3234216
  86.4017296  62.9624987  89.7332764  87.2498417  63.3430624  89.5049763
  86.2365627  63.2640600  90.6265926  27.6352644   7.6610857  17.3654079
  26.8359852   8.1313127  17.1281910  27.6721406   7.7178860  18.3202088
  49.7890949  10.8591545  19.8667896  50.6147194  10.4360116  20.1024389
  49.1375637  10.1600313  19.9212325  57.6098824  28.8816309   7.6418453
  58.1273985  28.2554626   7.1355653  56.8066645  28.4083986   7.8589255
  49.4522238   4.2003587   4.9681014  48.6225653   4.6473303   4.8004228
  49.2618656   3.6065277   5.6942970  18.1607985  16.8167233   8.3740586
  17.9038274  17.5563622   7.8234857  18.7890387  16.3287413   7.8416866
  47.1989059  13.8508058   2.3529050  47.9688025  14.4187593   2.3832320
  46.9197750  13.8743997   1.4376125  53.1965828  27.0743251  28.0031037
  53.0212212  26.6336799  28.8345551  54.1476631  27.0301247  27.9045343
 106.5210152  29.5562434  84.1558075 106.8408108  29.4365931  83.2615757
 107.1831703  30.1054716  84.5754910  71.4207172  81.4773464  86.6388893
  70.8192158  82.0771694  87.0800686  72.2880220  81.7351151  86.9512558
  61.8603992  23.1004143   5.0994343  61.8642807  22.2058845   4.7587979
  62.5750971  23.1174254   5.7359505  67.8776026  34.8474073  15.3716469
  67.7364349  35.7668638  15.1460195  68.8235521  34.7744131  15.4984498
  65.0620508  10.5385697  16.0378122  65.7566118  10.2377701  16.6237605
  64.8296022  11.4065552  16.3676667  76.8515778  27.3894525  16.8435264
  77.0054197  26.5798521  17.3304665  76.6064882  28.0285192  17.5126719
  48.7094021  23.8301611  11.1118698  48.4577417  24.0475368  12.0094466
  49.0712786  22.9460478  11.1720252  61.3640070  34.2067528   0.5712327
  62.1345282  34.3044901   0.0117914  61.6659021  34.4652915   1.4420073
 113.0525303  47.7484512  75.1334286 112.9554176  47.0816278  75.8132410
 113.6942291  48.3625698  75.4902363  88.5394001  38.1431580  74.5856428
  88.9971066  37.3296165  74.7975159  87.6456928  37.8686762  74.3802929
  95.4338646  71.8899393  66.3839865  95.0798321  72.1603870  65.5367851
  95.3887749  72.6782370  66.9250822  75.0683594  68.4514475  75.9554148
  74.4614601  67.7136803  76.0154200  75.8662367  68.0755949  75.5834484
  60.0121737   9.2653525   9.8166084  60.3549099  10.1180041  10.0844669
  60.1466990   9.2400104   8.8692474  59.9004698  45.6873369  92.4679852
  60.0286245  46.5640259  92.1057415  60.2470493  45.7431173  93.3584976
   2.2261193  55.9462309  78.8435030   1.7439076  56.0539007  79.6633244
   3.0926490  55.6421375  79.1134787  56.4029598   2.2726919   2.0665817
  56.5715599   2.6550126   1.2053987  57.1946573   2.4599691   2.5709373
  28.1506491 105.0229263  20.2922773  28.5830259 105.5416203  19.6138668
  28.0223727 104.1633129  19.8912287  26.9833779 102.2385502  14.0708292
  26.0972524 102.3435020  14.4172347  27.1114516 101.2911320  14.0236557
  87.5828934  70.2541924  64.3112946  87.8833008  70.7468557  65.0750160
  87.1003056  69.5136547  64.6786308   6.7035931   1.8379614  18.2049263
   7.0968646   1.7149271  17.3409629   7.3815870   2.2800100  18.7159538
 117.7582073  54.0689278  93.5101414 117.1606350  54.4278240  94.1661358
 118.5144997  54.6553707  93.5287476 116.9794369 104.4135475  33.5699606
 116.3310719 104.8221874  32.9964876 116.5869713 104.4537258  34.4420791
  66.7639732   2.8578553   5.6499612  66.9769001   2.3038892   4.8989519
  66.0778666   2.3784319   6.1143398  79.8619795  36.6947150  67.8315544
  78.9333773  36.7616177  68.0539227  80.1122856  35.8140326  68.1108046
  56.0861635 102.8358650  20.0254774  55.7230806 102.8393841  19.1398203
  55.5496120 103.4656811  20.5068040  37.0102334  97.5357914  20.9408855
  37.4122453  96.9273186  21.5608692  36.0731721  97.4858570  21.1297083
 114.0146255  13.5662830  58.7063694 113.1214046  13.7723315  58.4308052
 114.3591404  14.3943524  59.0407944  64.7777462 109.9182415  91.0440445
  64.4494963 110.4561329  91.7645741  65.4927683 110.4317951  90.6682205
  78.1824255   1.6876222  22.9677153  78.4287214   0.8217291  23.2929826
  78.8981962   2.2598527  23.2442164  53.5816622  20.0929093   8.7220812
  53.0380440  19.9914181   9.5033699  54.4797039  20.0091219   9.0426093
  79.7096729  32.2245026   2.6257390  79.1232157  31.7095685   2.0715350
  79.1434908  32.5738668   3.3139360  52.5428438  25.3573012  41.9665384
  51.7190647  25.6043005  41.5462923  52.7448559  26.0909128  42.5472593
  98.8712311  26.2218237  20.8670068  99.4016552  26.0915542  21.6530848
  98.9568520  27.1550798  20.6722450  40.6894159  86.3500786  42.6858091
  41.1026573  86.2525749  41.8279266  41.3475943  86.7953014  43.2194901
  84.2416573  74.8584843  67.1780872  84.2822456  75.4251289  66.4076948
  83.3316612  74.9152756  67.4695015  68.7983322   0.7525704  25.1983714
  68.9385700   1.1351474  26.0645127  68.3939791   1.4548618  24.6889424
  55.2540207  18.3895671  16.9517779  55.6335402  18.6057448  17.8035200
  55.4617405  19.1428149  16.3988757  99.5527363  68.6074448  85.0817299
  98.9842987  68.0272722  84.5752621  99.3113136  69.4885397  84.7960377
  74.1590452  73.7130213  83.8533306  74.8969650  74.3220615  83.8254452
  73.4919643  74.1195059  83.3001423  91.3808727  72.3157740  86.7132759
  90.9278488  72.7300024  87.4477196  91.1285973  71.3938904  86.7654514
 116.7658043  43.6018991  53.4998655 117.6478195  43.8199091  53.8011169
 116.3393784  44.4495583  53.3739090  77.7135420  69.3681812  71.8027496
  78.6437750  69.1710329  71.9124174  77.4579811  69.7834015  72.6264668
  61.8849897  53.8287973   1.9943437  62.3867655  54.3845367   1.3980164
  60.9830189  53.8940096   1.6806151  55.9046602   4.8572332  35.9914470
  56.1931705   4.7341019  36.8957853  55.3134680   4.1227096  35.8265328
  92.4639034  71.1843300  20.8981323  93.3937359  71.4061403  20.8486795
  92.0489311  71.7439651  20.2417493 117.6381115  73.2808352  18.1614125
 116.8873034  73.8739061  18.1894553 117.3107386  72.5010204  17.7131391
 103.0765629  58.7854719  65.3673744 102.9299450  57.8428173  65.4456949
 103.2467842  59.0766335  66.2631845  64.2803431  81.3079262   1.4683406
  63.9455700  81.3166904   2.3650476  63.6507559  81.8313789   0.9725073
 114.4617081  75.0593519  66.1923695 114.6398449  74.5861053  65.3796339
 114.5286942  75.9832382  65.9511662  14.4462347  95.0041199  23.4704924
  13.6698031  95.4716587  23.7783718  14.9130702  95.6433964  22.9323363
  45.4201746  95.6448936  44.3838453  46.3339329  95.8461475  44.5857573
  45.4655123  95.0540161  43.6321545  59.1819429  23.2095194  11.1235237
  59.9495316  23.6350155  10.7414269  58.9475679  22.5279140  10.4936731
  60.3393841  11.4705443  16.6220737  60.2832365  11.6495788  17.5607038
  59.6962166  12.0592153  16.2270665  38.0507278  19.4861245  50.9151840
  37.6086044  20.0119829  50.2486753  38.7323642  19.0153825  50.4355955
  98.8670755 110.4555107  10.4162204  99.7771884 110.7480789  10.3679538
  98.5036827 110.6601954   9.5546621  90.5601597  93.1597137  81.5709305
  91.4734173  93.3540535  81.3601398  90.0998878  93.9864922  81.4266872
  88.4778976  93.3632755  74.2636871  87.8896141  93.7587547  73.6204433
  87.9477978  92.6907921  74.6914482 100.0916672  73.6484098  68.8702202
  99.7313404  73.2476854  68.0791378  99.3334389  74.0314341  69.3113708
  19.2160082 101.0905933  20.8404183  19.6678233 101.7892075  20.3671002
  19.9071407 100.4675674  21.0649395  53.5362434  21.7190909  16.5000784
  54.0610933  21.0718846  16.0290277  53.1060171  22.2257519  15.8112860
  88.4842873  48.5533142  71.0536671  87.7644825  48.1908226  71.5701056
  88.7376881  47.8429174  70.4642963  72.1913624  57.2114897  72.1802044
  71.4880610  57.7479935  71.8144703  72.3640060  56.5522575  71.5080118
  79.7380638  88.8025188  60.3492117  79.2889118  88.4664822  59.5735979
  79.7249174  88.0728149  60.9685564  97.5612450  33.3768535  90.9852695
  97.5685406  33.5723853  90.0482845  98.4804344  33.4270024  91.2475777
 107.4956894  22.5972319  11.2457025 106.6675282  22.4514198  10.7883930
 107.3323727  22.2950196  12.1391380  85.1424980  98.2530689  23.5451508
  85.0048351  98.7727547  22.7531838  86.0927486  98.2375717  23.6592865
  57.9430246  12.7995539  23.4618592  57.3541927  13.5228419  23.2465434
  57.5392389  12.0328224  23.0552721  94.8726559  58.9331722   9.0711743
  94.4899940  59.1131306   8.2124442  95.3332806  58.1016684   8.9586389
  78.9694643  40.1772785  72.9170942  78.4722567  40.7438469  72.3271656
  79.6829844  40.7302570  73.2354259  77.9834795  30.8146667   0.8514183
  78.0488920  31.5241170   0.2121733  78.6173964  30.1630640   0.5517609
 116.3759804  93.7886333   2.3266947 116.7937469  92.9321289   2.2366270
 115.4643822  93.5892391   2.5399065  54.7769547  42.8660393   3.3182195
  54.3680811  43.0356598   2.4695244  55.3325081  42.1012020   3.1678456
  59.5526075  69.2172337  83.5517216  59.8529816  69.9960136  84.0202427
  59.3232012  69.5364046  82.6789474  62.0095205  11.5596807   2.3794091
  62.8722095  11.7506182   2.7475655  61.6461658  12.4183345   2.1627966
  83.6273766  89.5199966  95.5554390  83.4142208  89.5976257  96.4853764
  83.0720615  88.8064861  95.2411842  21.9517910 111.1406113  39.6980619
  22.6084292 111.0431730  40.3876734  21.2933361 110.4754400  39.8985982
  20.8379316  94.6557713  87.7225208  20.7891178  93.9669991  88.3854294
  20.7744360  94.1903973  86.8884754  93.6533070  68.4463310  75.6929302
  94.2168808  68.3182621  74.9299097  94.2517281  68.4214067  76.4395905
  63.1446695  31.9116139  20.2262354  62.4653673  32.4017167  20.6894636
  62.6835966  31.4903975  19.5008266  98.4107494  64.8651552  91.4397144
  97.7177620  64.8180819  90.7810879  97.9449654  64.9424887  92.2723579
  89.5901489  48.7962818  64.3555450  89.6171570  49.7498941  64.4338131
  89.8221016  48.6242008  63.4429550 109.8650360  55.9818506  71.8723726
 109.0268517  55.6081390  72.1444321 109.7207260  56.2607002  70.9681320
 104.7533798  78.9705563  81.2274837 104.1041374  78.7108278  81.8811321
 104.2349243  79.2542267  80.4745102   5.2449387  91.8082809  11.0980952
   6.1581296  91.8998051  11.3700104   4.8505056  92.6582623  11.2935221
  28.6550832  10.6429446  15.1018274  28.7189126  11.2213576  14.3418300
  28.5773230   9.7649002  14.7287023  97.0248222 106.2921524  88.9401913
  96.2543488 106.1588860  89.4923115  97.3666954 105.4109097  88.7893200
 108.1299019 100.8365154  92.8195858 108.8768578 100.3431416  93.1585121
 108.1868649 101.6868305  93.2554150  86.8215466 101.6159725  72.8624678
  87.3864365 100.9454346  72.4783802  86.1863327 101.8164921  72.1750641
  63.5695648  51.4310455  15.5329847  63.9462042  52.1229029  14.9891984
  63.7041998  51.7325401  16.4314306 115.7542706  89.6637726  77.3869181
 115.1722336  89.1272926  76.8487263 116.5405178  89.7743988  76.8523169
  64.1142082  28.9284539   2.5434968  65.0383377  28.7267232   2.3967934
  64.0665388  29.8831415   2.4931778  34.7702181 110.8931520  86.6519737
  34.5711577 109.9841960  86.4274597  34.4301235 111.4016915  85.9157944
  65.8778286  26.5322661  44.1859484  65.7252216  25.6774044  44.5886326
  66.4225960  26.3432980  43.4219122  59.8566437  67.3704433  14.2417383
  60.3485823  66.9375038  13.5440350  58.9578915  67.0611334  14.1285670
 106.3364697 107.3827553  79.7864437 106.1980343 106.4548779  79.5964003
 107.2846222 107.4679089  79.8863792  80.2747154  36.5992594  21.8499136
  79.8925972  37.2840714  21.3010550  79.5231628  36.0953856  22.1621776
  83.2134533  35.7245541   6.1424559  83.8789749  35.3926659   5.5398238
  83.2150650  36.6715574   6.0031223  86.8932152  50.4384184  94.3102455
  86.9100666  51.2767506  94.7719193  86.2778568  49.9020386  94.8101139
 110.8304501  39.1825008  74.1044998 110.3918076  38.6639237  73.4300375
 110.3648281  38.9673495  74.9126673  96.8283653  53.6319399  70.4851913
  97.1504974  52.9252911  71.0447598  96.1798191  54.0864563  71.0228157
  85.5489063  42.2868681   1.3774878  86.4757156  42.4794817   1.5194245
  85.2912521  42.8653002   0.6596684  24.7717667 105.7320595   7.1864009
  23.8718700 105.8371449   6.8775731  25.1814628 105.1576900   6.5394992
 102.8909397  79.5944262  79.2738390 101.9396877  79.6974373  79.3012953
 103.1528282  80.0066280  78.4505939  50.3615046  32.0898414  19.3659234
  50.8435154  32.9145288  19.3044055  50.3401375  31.7573929  18.4685636
  86.3683987  81.7110348  74.7795963  86.4612865  82.6624966  74.7314072
  85.5382824  81.5288162  74.3392086  83.0832958  80.2145290  79.5224237
  82.8568840  80.5819035  78.6680174  82.5599670  79.4155741  79.5859003
  75.2199173  77.5694180  78.1486416  75.2259827  78.5238361  78.0759430
  76.0749912  77.3520470  78.5198927   2.1630040 106.7078304  93.0382824
   1.7931484 107.5248241  92.7036858   1.7200933 106.5695953  93.8755131
  51.0932064 101.7687035  12.8067470  50.8454323 102.4066257  12.1374941
  51.4961624 101.0518646  12.3168468  54.1441202  23.4332204   6.8708962
  53.7866259  22.6588511   7.3053849  53.3895302  23.8372350   6.4424163
  25.2898669  97.5216866  84.8569298  25.0824308  97.6524258  83.9316654
  25.2626157  98.4006214  85.2350235  19.8554873  55.0871468  52.7593231
  19.5910811  54.4678211  52.0790625  20.5547786  54.6376085  53.2338095
 116.7388153  59.4887066  90.4499626 115.9508038  59.8953247  90.0895023
 117.2522259  60.2214432  90.7901669  91.5439224 108.3466530  26.2115812
  90.9242249 109.0729809  26.2798238  90.9931278 107.5647926  26.1721230
  24.8837161  84.3704605  94.5831776  24.4354916  83.9703846  95.3283405
  25.6165481  84.8475647  94.9724770  75.3255796   7.6027644  47.3186255
  74.6983480   7.3251271  47.9862499  75.8206987   8.3088368  47.7340174
 115.5233765  83.2246971  78.7695169 114.6121216  83.3354092  78.4982347
 115.5502605  82.3555470  79.1696167 109.5659733  65.8286810  79.2258787
 110.0069141  65.1835489  79.7786903 109.7575092  65.5481339  78.3309841
  11.0245264   5.8682293  30.4207897  11.3170385   6.2739956  29.6046877
  10.7124221   5.0019908  30.1591492  94.4190884  70.5990934  87.4545860
  94.6902370  71.4927053  87.2444248  93.8105011  70.6993484  88.1865692
  75.6824303  70.1620054  87.8693199  76.6327715  70.1666975  87.9836369
  75.5439186  70.5376387  86.9998741  35.0471878   4.5784575  48.2443762
  35.0757480   4.5213407  47.2893095  35.1907444   3.6802450  48.5424328
  41.3853168  96.3248825  22.6227021  41.3315678  97.2749138  22.5188303
  41.6506052  96.1981678  23.5336351  66.1219311  43.5004568  11.7194426
  66.3040400  43.1609392  12.5956821  65.2704382  43.9299965  11.8011987
 106.1596584  24.1695762   7.3874593 107.0975685  24.1747427   7.5785613
 105.9146976  25.0946283   7.3650110  64.3344259  72.2990179  58.6938715
  64.9383259  72.4630880  57.9695702  64.5699549  71.4264441  59.0091181
  30.5127192  40.7113457  17.1448076  30.8351088  39.8612452  17.4441803
  31.2804341  41.2823248  17.1736217  84.2406082  16.0886836  21.7946696
  84.6714020  16.9190192  21.9976306  83.9229393  15.7708073  22.6398158
  10.8118141  61.3413239  89.9452209  10.3033555  60.6308842  89.5541000
  10.1592255  61.9995880  90.1840687  20.6763506  78.5019445  86.5963554
  20.0206208  78.0596876  87.1354866  20.1713371  78.9160204  85.8965492
  79.6465445  24.8955512   5.3038800  80.0290203  24.0945911   4.9455360
  79.4281149  25.4216361   4.5346254   8.1866640  49.6847868  91.6328335
   7.6754302  49.5166063  92.4244022   9.0927196  49.5188046  91.8931103
  15.1052737 110.9777260  33.0147147  15.2665651 110.7864475  32.0907927
  15.4729736 110.2277851  33.4822941  55.7844400  22.6347828  23.4448886
  56.5395546  23.1464911  23.1547403  55.0358868  23.2166004  23.3130121
  54.2966843   2.8932402  19.8745358  54.2126942   3.5000706  19.1390538
  53.5229158   2.3331797  19.8125196 109.7196865  64.4630861  90.7950878
 109.2636871  64.5908070  89.9632359 110.5977535  64.8125076  90.6429958
  94.3066502  93.2735729  66.7223692  94.0630341  94.1737366  66.9381762
  95.2215385  93.2012749  66.9943810  67.3016930  51.8778944  17.0210075
  67.1405983  52.1720648  17.9175258  67.6074171  50.9758425  17.1162057
  91.2626076  78.0342340  71.5590429  91.9431496  78.0088091  70.8863926
  91.2357616  78.9494514  71.8381214  44.1215563   3.8375053  10.5066216
  44.1694927   4.1888690   9.6175337  44.4124365   4.5584416  11.0650766
 110.2685452  96.7411613  77.4551201 109.3781567  97.0349121  77.6478624
 110.4853153  97.1632385  76.6237974  90.3963375  20.0253129  23.2300854
  90.0837517  19.7404099  22.3713923  90.1128292  20.9370542  23.2977724
 101.3920021  75.7933760  70.3265476 101.1415958  75.8496618  71.2486982
 100.9555149  75.0034380  70.0076246  47.2652960  21.7969322  15.9188056
  47.9469538  22.4659181  15.9822893  46.5223026  22.1659899  16.3962829
  56.1399937   8.4842157  18.9826155  55.3146172   8.9363313  19.1574836
  56.8155527   9.1278815  19.1960287 117.4735844  70.3564930  81.8404961
 117.6019702  71.1313915  81.2934303 117.1101424  69.7007322  81.2454128
  79.3139315  24.9562454  10.1155019  78.9763117  25.0588226  11.0052896
  80.2090359  24.6385264  10.2341080  71.9286537  26.0863042  18.3273470
  72.1271467  25.1668072  18.5044301  72.4175739  26.5694714  18.9934850
  88.0440235  71.3607788  86.2899399  88.9150906  71.0275555  86.5054321
  87.8344440  70.9564734  85.4480171  50.9619808  31.9600272  10.8278072
  51.3277864  31.0892844  10.9834611  51.3973951  32.2638702  10.0313628
  29.9876738  68.1499290   3.8663232  29.3681550  68.2025957   4.5940962
  29.9498415  67.2357082   3.5852620  55.9604740  56.1281061   2.6626307
  55.3624964  56.7394829   3.0925983  55.3888464  55.5465460   2.1613660
 111.2844753  75.2871466  92.8135395 110.3724670  75.1672602  93.0782986
 111.4062500  76.2364197  92.7969170  42.0980835   9.4096547  14.9944782
  42.1254349   8.5442799  14.5862985  42.9877234   9.7489816  14.8963618
   5.3090912  72.5296926  89.1210175   5.4147398  71.9855309  88.3406544
   4.4284675  72.8960133  89.0401363  47.0533752 101.7108727  30.8753109
  47.9030657 101.7419147  30.4356599  46.4548206 101.3611126  30.2152872
  70.7379627   4.0387994   6.4512265  70.8598089   3.7518954   5.5462009
  70.1171064   4.7648284   6.3907999  99.2335415  61.6766834  95.1742649
  98.5993671  61.5696764  95.8831978  98.7700176  62.1918488  94.5139790
  86.5704918   5.0898916   2.3567905  86.0913754   5.8051586   1.9383740
  87.2451687   4.8497647   1.7216706  63.4455156  38.3506680   0.5591134
  63.3110762  39.1649413   0.0742246  63.0788994  38.5248089   1.4260045
  53.9396381  12.3137605  24.9213767  54.2197037  11.3994801  24.8779464
  54.1980839  12.6021016  25.7967591   6.4007896  81.3672733  82.4798870
   6.2366909  81.8427086  83.2942963   6.7923224  80.5400181  82.7602100
 106.0844326  97.6631641  90.1130199 105.8705902  97.6709366  89.1800499
 106.2401581  98.5821724  90.3307247  35.6611824   4.3154716   6.1984527
  36.2999701   4.9813470   5.9439117  34.8140907   4.6935907   5.9624565
  90.4057026  18.4011698  10.9949970  89.8204422  19.1303039  10.7898867
  90.5377960  17.9571414  10.1573682   2.0669857 105.4300499  29.6479082
   1.6938461 106.2808228  29.8785329   2.2914609 105.5103302  28.7208700
 106.2833500  78.0063820  94.9932957 105.9122562  77.2177362  94.5976257
 106.2599468  77.8357077  95.9348583 100.3883743  92.9297352  78.7525320
 101.0363483  93.6339664  78.7322092 100.5464458  92.4827385  79.5840597
  21.0928845  40.5523252  15.6484962  21.3534951  39.7445560  16.0910165
  21.3200617  40.4063511  14.7301745  95.6745625  61.1992645  24.5015550
  94.8721409  61.6019106  24.1695499  96.3806152  61.6954422  24.0873933
  11.2397671 107.8677464  81.6348076  10.4306686 108.0380726  81.1525440
  11.9150066 107.8143311  80.9584713  51.3157701  58.7740088   0.2796067
  50.8940601  59.5368671   0.6751252  50.5893326  58.2210112  -0.0079970
 102.3801994  51.7908144  90.0509548 101.6657925  51.6173697  89.4379520
 102.6009464  50.9317160  90.4107571  60.2334452 109.9706459   9.4966561
  60.2667522 110.2157974   8.5719818  59.9197292 110.7577324   9.9419683
   5.9044850  52.6260042  73.1566525   6.2536991  52.5280762  74.0424824
   4.9596351  52.7165270  73.2803345  88.4452820  33.9275432  34.3012142
  88.8388634  33.1787181  33.8533449  87.6289368  34.0877867  33.8277912
  78.7326193  11.0057867  17.5767541  79.0419436  10.1048958  17.6713288
  78.3730459  11.0437655  16.6904724  24.5670509  82.7945232  90.2867317
  23.9745712  83.4995651  90.5477238  24.7380424  82.3133373  91.0963345
  75.3466749  96.4816093  75.7831478  74.9608135  96.5044594  76.6588354
  76.2884808  96.5615940  75.9342527 100.1412487  40.6017447  27.6567602
 100.9478283  40.9204054  27.2516418  99.6607208  41.3958740  27.8906059
  35.4911470 109.1397095  10.3924930  35.5330563 109.4228840   9.4791001
  35.6752563 108.2009125  10.3608882  98.5993195   3.4047011  19.8423624
  98.6980247   2.4763438  19.6310771  98.5371971   3.8387039  18.9914727
 105.4949188  65.4584455  94.1088486 105.8323097  64.5628405  94.0916634
 104.5486450  65.3560019  94.2103195  53.5449028  70.9611273  50.9087372
  54.3548012  70.5239677  51.1717701  53.2389069  70.4627275  50.1509809
  64.0808582  11.1211419  30.3857231  63.7376738  12.0146811  30.3923893
  64.9625397  11.2059021  30.0228405 101.3518143  74.3577194  89.1362476
 101.0100937  75.2460670  89.0347767 102.1329117  74.3369579  88.5833549
  29.8173738  43.1552553   1.9409280  30.0391579  43.7130117   2.6865494
  30.5228782  42.5092411   1.9068491  16.8933034  91.2013054  84.6747494
  16.5751278  90.4211426  85.1290035  17.5410748  91.5778351  85.2704430
  65.1534605  28.7620759  19.2436898  64.3119192  29.0088797  19.6272659
  64.9369383  28.4721017  18.3575392 111.2618256  81.7062378  72.4818039
 110.9265518  82.4619579  71.9994068 112.2136879  81.7969513  72.4376202
 117.3238786  97.9676628  70.2428150 117.3188643  97.3263168  69.5322609
 116.6309979  97.6747608  70.8347273  78.2977200   2.6528388   8.1616670
  77.7546120   1.9487478   7.8073764  78.8934231   2.8784627   7.4471992
   6.7139387 107.3568153  27.4531507   7.4427712 107.1816158  28.0484152
   7.1157199 107.8020668  26.7071223  63.5689926  42.1888971   8.1085062
  64.4475412  41.8541193   8.2882547  63.7155199  42.9789925   7.5884062
  56.0569143  26.3093901   1.9881159  56.6804790  26.8334031   1.4853163
  56.3847399  26.3440347   2.8867596  76.5178347  76.7585278  88.7888336
  77.2636127  77.1785879  89.2173195  76.7358732  76.7762089  87.8569698
  41.5782547   8.2721758   6.0692328  40.8708715   8.8912064   6.2499052
  42.2516680   8.4825337   6.7161489 102.7648449  55.9340334  74.2128754
 102.0350075  55.9633923  73.5942411 102.4398232  55.4056168  74.9418306
   5.5471605  97.2396564  70.2027655   6.0944015  96.4733124  70.0310946
   5.1255268  97.0499802  71.0409069  36.0086370  33.5292792  85.7090950
  35.2574849  33.3202267  86.2643433  36.7362380  33.6380482  86.3214684
  56.4537191  78.5572815  66.7302752  56.0572290  78.4849358  67.5984907
  56.9801569  77.7629089  66.6404390  33.3378696   7.0248079  46.5519476
  34.0015531   7.6175964  46.9045925  33.1882000   6.3892490  47.2518730
  42.1159077  12.9003263  95.7343769  41.8989229  12.3124790  95.0107861
  42.7602577  13.5051501  95.3666401  69.5753431   3.0810630  41.7193937
  69.1951370   3.7823918  42.2483683  69.0490961   3.0719087  40.9198809
  60.7414675  94.7136116   3.7122497  60.3566074  94.0613079   4.2975795
  60.0464964  95.3589821   3.5828453  97.3720741  37.0193648   9.2932010
  97.0834827  36.9318104   8.3847511  96.8430996  37.7355647   9.6445835
  54.6684313   4.3694615  62.4314499  55.5201530   4.7317228  62.6755285
  54.6888828   4.3328297  61.4751673  82.2210217  78.2716942   9.1482395
  81.8681717  77.9462910   8.3200854  81.5602112  78.8877249   9.4645727
 109.6383381 106.3080311  77.0065737 109.3553925 105.6495380  77.6410484
 110.4943657 106.5948486  77.3246717   6.4766407  53.1776762  95.6509781
   7.0257694  53.7271881  96.2101936   6.8723750  52.3079205  95.7070732
  15.1309907  98.3739853  77.6346064  15.2731824  97.8743362  76.8306351
  15.8265138  98.0823421  78.2240295  81.3812160  13.6845529  88.4314919
  82.2960567  13.7642658  88.1614208  81.3080788  12.7918816  88.7691593
  21.9975972  44.4276047   8.6602670  22.1519780  45.3654528   8.7736136
  21.7087913  44.1265726   9.5217776 113.4398556  72.0117521  35.8020353
 114.0153790  71.2469006  35.8001757 112.7693176  71.8053579  36.4531970
  22.1353102 109.3565750  69.6292019  22.4779987 109.0233517  68.7998867
  21.5464664 108.6683750  69.9388456  38.9108801  97.7932835  41.0109234
  38.5645175  96.9109344  40.8777666  39.7330785  97.8043079  40.5209255
   7.7959317   1.0556870  92.0745087   8.3435959   0.9402493  91.2979984
   7.0522267   0.4701056  91.9322872   2.7025768  67.0927143  12.9556501
   2.4047989  66.2048149  12.7576804   1.9018668  67.5719166  13.1688631
  69.5084572  69.0031958   9.5429933  69.1187620  69.8679209   9.4140744
  69.1392469  68.4670591   8.8412315  79.2206764  28.4442639  57.2265100
  78.8898182  29.3048692  57.4836588  78.6963701  27.8246880  57.7339172
  41.8650913  13.4407127  71.7250776  40.9484148  13.1972420  71.5960169
  41.9454765  14.2995918  71.3102341 103.3248806  65.3258467  13.7032843
 103.7386513  65.6985044  12.9247236 103.5387611  65.9401941  14.4054711
  82.3281288  58.5508299  10.6366253  81.8766880  57.9348707  11.2137127
  82.0773983  58.2794905   9.7535962  28.2629704  48.1247663  18.5886121
  28.3707094  47.5192499  19.3220758  28.0154490  47.5665045  17.8515184
 115.6755733  91.4772797  91.3359833 114.9227619  90.8862114  91.3478756
 116.4271164  90.9115314  91.5130424  22.8755307 108.4314823  95.6572437
  23.3683205 107.6923466  95.3007793  21.9584084 108.1703663  95.5739594
 113.3211040  43.8329697   2.2187690 113.3643818  44.7233248   2.5675172
 113.6498451  43.2814312   2.9286757 115.8505630 105.8364487  86.3299179
 115.7436180 106.7858601  86.2714195 115.7924843 105.6461143  87.2661972
  24.6975780   4.7155744  51.6295433  25.2591133   5.4888159  51.5746927
  25.1122403   4.1650668  52.2937918  68.5177326  32.3898649  93.0601883
  68.4734392  31.5728402  93.5569191  69.1468573  32.2113991  92.3612022
   8.9457464  43.5088682  14.1076863   8.7857330  42.6781034  14.5554101
   8.5877699  43.3803892  13.2292914  70.9896803  45.7307291   5.6981575
  71.4175606  44.8803759   5.7984197  71.7115784  46.3538647   5.6157476
 108.7441063  87.0273399  17.5914395 109.2830944  87.7848721  17.8191900
 108.2849789  87.2911167  16.7940319  36.6631889  84.0945244  87.7369976
  35.7793736  83.7812519  87.9292583  36.5779781  84.5541096  86.9016838
  93.7506866 100.2279377  26.3906097  94.2607212 100.1986599  25.5811405
  94.3943405 100.4204941  27.0724225 108.5881424  81.6907978  17.1227098
 109.5016956  81.8485355  17.3609734 108.1230927  82.4697781  17.4278986
  66.2418365  14.9970019  75.6505919  66.7066908  15.4870689  76.3288069
  66.5016079  15.4173279  74.8307896  71.2651348  12.5690746  87.0965958
  71.3552332  13.3775091  87.6011181  72.0995665  12.4798346  86.6361713
  72.1230268  14.5793784  88.6642361  73.0391455  14.4109571  88.8846779
  71.6906404  14.6959639  89.5102119  47.0237064   6.9768190  81.7331028
  46.5092278   6.4451391  82.3404408  46.9566441   6.5169919  80.8962727
  76.9885492  32.8652358  20.4560280  77.4734211  32.2710204  21.0287762
  77.4666262  32.8421712  19.6270883  77.1398783  10.6820381  75.1345444
  77.2663307  10.3589857  76.0266638  78.0181789  10.9237218  74.8405838
  83.4383965  40.0574303   7.8178269  83.8440800  40.7845068   8.2900673
  82.4984646  40.2289104   7.8757972  92.8717804  64.6555090  20.0798988
  92.4561119  64.1679192  20.7910252  92.1510601  64.8839998  19.4928908
  30.4837108 110.6175423  93.9726925  30.3500247 111.4465427  94.4321632
  30.5394149 109.9637318  94.6695900  83.6033821  43.2341957  22.1849513
  83.4997940  44.1518068  21.9329715  82.9155636  42.7744913  21.7034888
  80.8032990  10.7706189  88.5496616  81.3592148  10.1063538  88.1423092
  79.9553633  10.6716216  88.1167126   3.1889641  51.7773199  20.7157779
   3.7759188  51.9567966  19.9812698   3.6098549  52.1961117  21.4665771
  67.7025318  45.3095961  14.2951357  67.7635145  46.1449337  13.8317502
  68.6116552  45.0634813  14.4658709  84.6254730   5.9685516  37.0400691
  83.7892056   6.0510361  37.4984145  85.2581310   6.3961852  37.6172233
  12.8600228 107.5062561  83.8834858  13.5685623 107.6481819  83.2557392
  12.0601404 107.6588821  83.3803749  22.6165699 105.2965781  95.8533474
  21.9160008 105.1831433  96.4956625  23.4221768 105.2632138  96.3692029
  84.7581005  18.7656236  86.3953304  84.2531300  17.9810047  86.1817837
  84.2805290  19.4799674  85.9735870  82.1313667  20.1638389   0.8372134
  81.8804646  20.9798813   1.2700549  81.5049648  19.5175147   1.1629698
  63.6661923  -0.0246193  74.4348812  62.9662812   0.2702282  75.0174761
  63.2732547  -0.0105240  73.5621643  67.6732540   4.6455002  68.8788843
  66.9140673   5.0041139  69.3385172  67.4010229   3.7661266  68.6165428
  47.7094078 101.8223190  88.0360794  47.5834465 102.1689415  88.9193821
  47.8480101 100.8839607  88.1645298  30.9167910  15.7811117  55.9711981
  30.6085873  14.9561155  55.5962038  31.3973951  16.2031543  55.2590656
 109.9422932  96.1142254  68.1574440 110.7163620  95.6657791  67.8169394
 110.0291252  96.0530281  69.1087294  29.9724078  97.8657532  76.9693470
  30.6529546  97.2724533  76.6514015  29.4492531  97.3317146  77.5671387
  88.9419365   8.8624269  76.7336893  89.1776371   8.1183362  77.2877741
  89.7757435   9.2913145  76.5411949  31.2685513  98.3925915  63.6621904
  32.1907687  98.5198021  63.8848257  31.2718773  97.6750755  63.0286312
  61.4868450 101.3512325  89.8409367  61.4647245 101.7817307  90.6955814
  62.3730421 100.9955502  89.7747803  73.2567120  11.0030842  83.5129929
  73.4309721  10.3892529  84.2264843  73.2813978  11.8654871  83.9275837
 113.1137753  96.2057114  89.7830582 112.6465225  95.3956604  89.5787716
 112.4219799  96.8428707  89.9610424  14.4043398 109.7629642  71.3880014
  14.0751958 109.9772930  72.2609043  14.2096972 110.5383587  70.8615780
  31.9498444   8.8730484  87.8041077  32.3291731   8.5190773  88.6085033
  32.4438143   9.6762717  87.6396179  20.4790258  95.4803371  69.1055870
  20.1865363  95.5883598  68.2005930  21.3720202  95.8249569  69.1114378
  45.0328302  98.2701492  76.0023308  45.5529642  98.6935234  75.3193569
  44.1763639  98.1296539  75.5986547  57.0346975   8.6922109  85.6718445
  57.2648239   9.5952976  85.8902645  57.6124144   8.4675366  84.9424648
  94.2325020  64.7632122  24.5150042  93.3213425  65.0352478  24.4053864
  94.5833492  64.7368670  23.6248088  47.1739340   2.9514030  82.4385834
  47.7956533   3.4557608  82.9632854  47.0598888   2.1336411  82.9228210
  14.2795956  99.5820808  92.6297474  13.8017642  99.2655849  91.8630981
  14.2918885  98.8359070  93.2291603 103.0636215  53.7631989   1.3210474
 102.6224709  53.0957317   0.7955979 103.3507252  54.4179630   0.6845811
  32.6934719 105.0574303  70.8872747  31.9104099 105.5414963  70.6251192
  32.4539995 104.6462154  71.7178154  85.2347469  36.7880201   9.8941696
  84.8206997  36.7218590  10.7546461  86.1302376  37.0702982  10.0803304
 109.7186852  36.5794253   7.1719754 108.9916134  36.9440365   7.6766181
 110.4108810  36.4373040   7.8176481   4.2439613  99.5581245  68.9019775
   4.5670715  99.0379047  69.6376514   4.9663687 100.1497459  68.6914158
  54.8186398   7.2071612  85.8175564  55.3175592   6.5102279  86.2436962
  55.4208469   7.9506981  85.7905293  22.4137425  83.4026241  76.8939066
  22.0719409  83.5222530  77.7799606  21.8117881  82.7794170  76.4870977
  62.9476690  16.0522485  87.1780014  63.6306858  16.3356459  87.7857971
  63.2043982  16.4293063  86.3364887  80.2619171  10.8384550  72.9833269
  80.1825714  11.0769808  73.9069271  80.1430988   9.8887503  72.9701614
  59.7254229  22.1619725  76.1171246  59.9083805  22.0132184  77.0448303
  59.8377466  21.3029337  75.7101011  50.8188343 111.2782192  66.3474321
  51.6529274 111.7289925  66.2158060  51.0635519 110.4114532  66.6715479
  56.3684464  21.1241865  78.8871956  57.0303154  21.7988324  78.7354994
  55.7794237  21.5082574  79.5366383  54.0827084  19.6746612  67.5212955
  53.2159328  20.0762415  67.5817966  54.6581316  20.3875446  67.2439480
  95.7885647  36.5971828  85.6617832  95.9683704  36.4491343  86.5902138
  94.9648857  37.0847178  85.6521130  78.5167599  54.5912886  14.3505120
  79.0357208  54.1866493  13.6554027  79.1125393  55.2187538  14.7598648
  94.6946812   8.5790521  95.3666592  94.1495323   9.0875614  95.9670353
  94.9009895   9.1873085  94.6569443  61.2923622  36.3847280  61.9277191
  60.3782463  36.5821505  62.1318150  61.7206764  36.3239312  62.7815819
  60.4374504   3.3028218  79.9525928  60.3756428   2.5086123  80.4832935
  59.9226761   3.9519352  80.4320621 107.0701981  51.2863159  29.4766521
 107.4260902  52.0499372  29.9310160 106.3846207  51.6420317  28.9112425
  71.8809414  27.7032280  71.1300039  72.3253632  26.8591666  71.0507345
  71.7012835  27.7923465  72.0659637  14.0214729 104.4352913  75.5122995
  14.9596560 104.2895889  75.3905869  13.6808074 103.5844803  75.7885313
  47.7158117  99.9181747  84.7220516  48.0308867 100.7802105  84.9938107
  48.3355618  99.6380424  84.0485001  45.7364130  38.0955362  86.8377113
  46.1310625  37.5282288  87.5000191  45.9158468  37.6548433  86.0071564
   5.0714839  36.5886021  10.2426159   4.8056594  36.1946034  11.0734797
   4.5121098  36.1691952   9.5888352   2.6699942  93.2536221  25.7004952
   3.0909985  92.4430180  25.4142952   3.0080023  93.9223194  25.1048231
  68.6588621  12.5319839  88.9406109  69.3519926  12.2267449  88.3552647
  67.8867674  12.6055706  88.3796406 107.2263432  65.3607225  18.7690675
 107.9490376  65.3325510  18.1420469 107.6091671  65.7428932  19.5587659
  92.6305294  93.2967854  79.4650650  93.3114433  93.9680290  79.4202042
  91.8535042  93.7189770  79.0987158  51.6007948  89.0702820  93.6848831
  51.1789513  89.8720455  93.3759212  51.0784054  88.8005733  94.4402599
  40.8660316  16.7421877  88.8404655  41.0107899  16.9325185  87.9136181
  40.3391600  17.4762821  89.1562843 110.7684994 108.9064598  60.1261663
 111.6557217 108.6771011  59.8496437 110.6381226 108.4201813  60.9402752
  80.3936672  95.6481647  60.3980780  80.1972103  96.4418697  60.8957291
  81.0756302  95.9146881  59.7815323  37.2793579  88.1175137  81.4557838
  37.1763778  87.3598671  82.0316315  38.2250834  88.1968021  81.3311005
  63.8393307   0.9655304  35.7761335  63.3285141   0.9893327  36.5852880
  63.4067249   1.5967664  35.2011323  41.0162973  19.7900915  73.4925270
  40.8481550  19.9670553  72.5669765  41.9035959  20.1168108  73.6415052
  45.4711008 110.9417820  64.3402386  46.4004421 111.1698246  64.3166780
  45.4605103 109.9887276  64.4286156  99.7116268  60.9476428   1.4805765
  99.9179924  61.4029514   0.6642789  99.0060032  61.4634722   1.8707532
 118.2688236  70.7683754  86.9495773 118.7547970  71.5100431  86.5890312
 117.4574661  71.1524343  87.2818851  40.1790667  95.0570488  82.3395824
  40.0805664  94.6840096  81.4635849  41.1227703  95.0470066  82.4994564
  22.2113943  66.1579990  53.8876963  21.4178610  66.6779613  53.7605143
  22.2072983  65.5334139  53.1623602  93.4786224  37.9857898   1.2314133
  92.6400566  38.4459996   1.2667714  93.5930443  37.6284599   2.1120122
   5.8159876  19.6488476  23.2164383   6.2154025  20.0097013  22.4249315
   4.8784155  19.8059487  23.1045890  98.6919975  38.4350824  16.2892747
  99.1123962  37.8706264  16.9380295  98.7421322  37.9392838  15.4720223
  86.4562798  25.2521610   0.1959384  86.7059898  25.2482867  -0.7281081
  87.2881794  25.2309084   0.6689395 102.3524380  71.5620804  13.3997750
 101.5008640  71.6073084  12.9650271 102.5815487  70.6328821  13.3816588
  28.9021015 102.8512764  84.2880535  28.7288523 102.4417114  83.4404182
  28.1250119 103.3829021  84.4604683  36.8830490  30.5944443  89.8536682
  36.9139409  30.3551459  90.7799625  37.0810270  29.7811007  89.3894386
  15.8669209 102.0018575  95.7356036  16.0793709 102.0695302  96.6664721
  14.9609684 101.6933247  95.7185116  99.3514156   0.5671920  74.1295433
  99.7536564   0.4307296  73.2717514  98.5612392   0.0272368  74.1121817
 103.4635258  35.3713274  23.0288959 103.0680275  35.8403540  23.7636256
 102.7405834  34.8759556  22.6439357  36.4781952  91.4880943  28.8678718
  35.6542635  91.9275665  28.6575365  36.8541098  92.0103645  29.5765018
  39.0954447   8.1120503  93.6824322  39.0776110   8.9039576  93.1450367
  39.4924593   7.4485660  93.1181622  54.0888453  11.4993191  50.5796671
  53.5182619  11.9124365  49.9315882  54.9324751  11.4131188  50.1357222
  51.0937548  13.6625445  87.6310158  51.1788988  12.7376866  87.8625679
  51.2158060  13.6840320  86.6818714 101.8570137  59.6953392   3.1124902
 101.3350677  60.0193644   2.3784545 101.3548565  59.9398756   3.8898364
  50.6019640  33.1464863  54.5970726  49.9541330  32.6095200  55.0533772
  50.5704927  32.8410077  53.6904716  11.8968785  51.8562460  14.3905532
  12.2582793  52.4600267  15.0394523  11.0292113  52.2086573  14.1925812
  34.5515943  23.2531953  81.9722462  35.3236175  22.8272557  82.3447895
  34.1162348  22.5637937  81.4708328 101.2771034  23.7287450  77.6268005
 101.9972229  23.7364435  78.2573509 101.1098289  24.6531129  77.4429512
  51.8992758  38.2286286  55.3868484  51.0688305  38.2306862  54.9108410
  52.5510454  38.4800887  54.7324848  94.8354053   4.6109727  84.2160130
  95.4792595   4.2206925  84.8070812  94.3214226   3.8687572  83.8979435
  71.5585613   0.1049217  66.3569736  71.6306210   0.5029821  65.4894543
  70.6781769  -0.2703049  66.3759470  31.6090679  58.8584995  13.1204855
  30.7332015  59.2446184  13.1215847  31.6178560  58.2825089  13.8849413
  57.6092911   2.4094073  95.1300240  57.3021984   2.6999909  94.2712498
  58.1007290   1.6079476  94.9500561  56.3391924  12.6386523  72.0160246
  55.6771326  13.1214488  71.5212345  57.0417833  13.2729840  72.1582174
  75.0003576   3.2367477  38.3105516  74.3114519   2.6476800  38.6181855
  75.8148479   2.7667946  38.4893799  76.4711475   6.8868536  90.7729721
  77.3980713   6.9689280  90.9972572  76.4686632   6.4523709  89.9200630
  42.0850229 110.4881954  84.0397072  41.8361712 110.9793949  83.2567596
  42.6631069 111.0805988  84.5204449  17.8143549  97.8155041  70.1102495
  17.8847790  97.9320145  71.0577154  17.8394961  96.8671227  69.9830294
  75.0616074  13.2074177  53.1252909  75.3657866  13.0770314  52.2271204
  75.2179909  14.1356874  53.2987499  12.1775281  74.3623161   1.7354868
  11.7044580  74.2627192   2.5616330  12.8384209  73.6701107   1.7529735
  70.4862452   1.0749736  88.6325836  69.8021078   0.9888296  87.9686737
  70.7735872   0.1770866  88.7983036  38.2697201  41.2829256   6.9542778
  37.4556255  41.7485714   6.7628163  38.1407166  40.9264231   7.8331953
 109.1930294  49.8095512   2.8365999 109.9298000  50.4133749   2.7427459
 108.5333347  50.3095293   3.3172739 111.5044117  77.9288101  12.6188707
 111.0190678  77.2929287  13.1445360 111.9829845  78.4541750  13.2601166
  53.9768267  16.9918239  57.4638367  54.6190357  17.5295103  57.0004892
  53.1464100  17.1807098  57.0268440  81.0984516  23.2780647  55.9869814
  81.8762398  23.3060718  55.4297638  81.3393784  22.6930976  56.7053127
 104.2611790  14.3587494  85.2636814 104.4572926  15.2864802  85.3943825
 105.1037121  13.9655805  85.0361252  94.4378185  49.4440889   1.1311138
  93.7626362  49.4329309   0.4527050  95.2522087  49.6087503   0.6558324
  32.3884225 107.4186134  64.3251181  32.1990824 106.4982700  64.5077419
  31.5543914 107.7796936  64.0247059  67.8864479  99.0704060  44.0260363
  68.5439444  98.6804771  43.4499407  67.3727369  98.3267021  44.3410635
  50.7157850  17.2941148  72.2239828  50.1064253  16.5586257  72.2869778
  50.1986361  18.0565417  72.4837780  66.4234924  15.7478487  51.7025137
  65.9868622  16.5932178  51.5979242  66.0326862  15.1914513  51.0287762
  74.1421700  47.1387434  84.4776535  74.9692822  47.5558710  84.7187328
  74.3854475  46.2439299  84.2402649  75.8160830  11.5336430  95.8314037
  76.6505146  11.1488879  96.0995865  75.7789326  11.3898277  94.8857975
  26.1704850  98.0207157  69.6163130  27.1000576  97.8637028  69.7820616
  25.7891631  98.1413174  70.4859591  36.2270594  67.9979229   2.8520745
  36.4307404  67.2694635   3.4386691  36.9411802  67.9990578   2.2146872
  23.4786916  95.4211140  83.0324745  23.0130553  96.1973667  82.7212811
  24.2892241  95.4079056  82.5234604  21.0893893 101.5310383  84.7713757
  21.5547299 101.1399078  85.5107689  20.2188754 101.1339664  84.7991276
  27.4885845  94.4833851  88.3188343  27.7365494  94.6448994  89.2291451
  27.7802396  95.2646351  87.8489304 105.6753635  79.6097422  19.0125227
 105.2691936  79.0291023  19.6560383 105.9994888  79.0217495  18.3302951
 104.0879250  48.0723333  18.5261881 103.3219433  48.2096863  17.9688334
 104.8188877  48.4275866  18.0205011  98.6331463  19.4432807  66.2029648
  99.4106007  19.8108685  65.7826281  97.8988552  19.8855817  65.7770395
 106.5861320   2.1723439  50.3438425 106.8756580   3.0105859  50.7040596
 106.7440891   2.2486541  49.4028568  99.2634010  67.3463869   3.0108389
  98.4184170  67.5779819   3.3963108  99.2600060  66.3895798   2.9834980
  77.6061058  36.0757208  76.3821125  76.8694305  36.4259052  76.8830299
  77.2299051  35.3575683  75.8732271  81.5230083  23.7056446  74.6588182
  80.9616852  23.1462622  75.1956940  82.2728634  23.1525803  74.4395447
  96.7383575  21.2308741  62.0711374  97.6087379  21.5911269  61.9011450
  96.2796021  21.3081145  61.2345934 105.1650429 108.2958508  89.0165806
 104.2550468 108.5450459  88.8551807 105.6106949 109.1226768  89.2009544
  66.8444300  32.3691559  85.4623985  66.3317871  31.9218683  84.7890759
  66.2006617  32.8786039  85.9545994  86.8292999  10.3973424  71.0122681
  86.7016315   9.4576377  70.8823156  86.1015415  10.6624138  71.5746975
  96.1884689  93.6283398  93.8291168  97.0697021  93.9334869  94.0448475
  96.2488079  92.6739216  93.8699436   0.3495871  81.8164253   8.3312988
  -0.4917444  82.2401905   8.5010666   0.4918372  81.9341183   7.3920739
  91.0278797   4.5507061  84.2005539  91.0320568   5.2727938  83.5722160
  90.9252071   4.9750420  85.0523853  59.5487833  37.3112130  82.3548603
  59.2969847  36.5211797  81.8766594  59.0941620  37.2383428  83.1940556
  22.2450757  44.7849607   2.8772140  21.7921138  45.5488825   3.2342565
  22.5743890  44.3204880   3.6466625  40.7826519 103.6618042  80.0142384
  41.1496019 102.8008842  80.2152538  39.9865651 103.7123203  80.5433178
  83.8117027  41.9882631  79.3619156  84.7294235  41.7411232  79.4757080
  83.3751583  41.1762714  79.1043663  26.0287476 110.2909184  76.4493895
  26.8700600 110.2404785  75.9956503  25.5295467 110.9422493  75.9566450
  87.0486641   1.5992296  93.1006908  87.6787663   2.1039021  93.6149979
  87.3085880   0.6873047  93.2313156  15.4961073  86.8356609   7.9635412
  14.5441926  86.8108749   7.8662002  15.7474387  85.9212780   8.0937701
  53.6255741 100.6092167  93.0903339  53.2205248  99.7865486  93.3648968
  52.9972076 101.2835026  93.3486652 100.2438641  44.4017696   1.1656091
  99.9139595  43.5156155   1.3143343  99.4886780  44.9682045   1.3239318
   1.4403215  77.0597887   3.3836678   0.7544874  76.9867229   4.0473884
   1.1110086  77.7167082   2.7702823  38.0469561 105.3462982  78.2633400
  38.3506107 104.6299171  78.8208485  37.3966289 104.9431038  77.6882362
  49.0191650  31.9096732  48.8930225  48.3927250  31.9475555  49.6157742
  48.4987545  31.6315460  48.1393337  63.6817598 100.2952385  46.8447447
  64.0399933 101.1346531  47.1333075  62.9393101 100.5302906  46.2881899
  56.7973566  25.6024313  73.9680910  56.5383053  24.9456525  74.6144390
  55.9921741  26.0850906  73.7811279  63.5230970  89.1459942  81.5505791
  63.2193613  88.8580036  82.4114132  62.7263880  89.2069435  81.0235405
  50.5352783   9.3798524  73.6010408  51.0797691   9.0338534  74.3081808
  51.0148430   9.1630745  72.8015041  54.7223568 100.4541206  88.9805603
  55.4138613  99.9531269  88.5480595  55.1768064 100.9528446  89.6595192
  25.9775686 109.0014362  84.4929695  26.6040134 109.6062469  84.8904514
  26.5192294 108.3861446  83.9987469  60.9668827  11.3724923  85.8078194
  61.2099695  12.1613002  85.3231335  60.3433561  10.9233308  85.2371216
 106.9412613  75.8031273  19.3047571 107.0883179  76.5571547  18.7337542
 107.2016811  76.1068010  20.1743507  79.0952158  32.7422404  84.5548248
  78.6566353  32.4012160  83.7753487  78.3834839  32.9342937  85.1653862
 105.2774429  48.3732700  12.2006428 105.8180714  48.2224560  11.4252710
 104.7638702  49.1521978  11.9867265  86.0138416  34.6883631  66.5934992
  85.5999088  34.4868875  65.7542706  86.9247532  34.8808575  66.3711834
  77.1760988  39.8430252  74.9147511  77.3070669  40.6258869  74.3797684
  77.9102325  39.2722631  74.6877909  85.4205227  12.8772199  93.6153603
  84.7477722  13.5294509  93.4197998  86.1423874  13.0933022  93.0250645
  96.8341732  35.4479456  12.8516018  96.9585896  35.3499746  11.9075930
  96.5642357  34.5791006  13.1490517  81.8372822  16.8817341  88.8570404
  82.3134327  16.7450595  88.0379963  81.0972691  16.2766051  88.8077354
  83.8454056  13.9436114  86.9653606  84.3432236  13.7984979  86.1607838
  84.3840981  13.5538304  87.6539230  46.1744118  97.7766037  38.4143519
  46.3102055  96.8360996  38.5294652  47.0537806  98.1524086  38.4557962
  96.1400318   2.0728111  75.4604912  95.6505013   2.3110650  74.6731949
  96.2537384   2.8986499  75.9309053  93.3370113  77.4621630   5.7245934
  92.9043293  77.1647406   4.9242452  93.9214420  76.7424107   5.9625643
  20.1208711 108.1318378  95.2633286  19.5121253 107.5378227  95.7024288
  19.6843648 108.3580112  94.4420338  70.4751730  23.7861562  96.2788868
  70.2722406  23.2026005  95.5477905  70.2824116  24.6627665  95.9462833
   6.7397177   7.2501397  57.6335478   7.2054231   7.5100988  56.8387079
   6.1302841   6.5716118  57.3429918  66.9558287  30.3078461  66.4063978
  66.7610502  29.4073677  66.1467218  66.3480234  30.4870248  67.1238232
  77.1019650  45.3938627  74.8485088  76.9920397  46.3378572  74.9626160
  76.7268801  45.2114582  73.9869595  50.0325489 103.3951950  64.7898722
  49.5411348 103.4715557  63.9720011  50.8387375 102.9417896  64.5434666
  70.2853155  98.0415344  71.8689728  69.5464420  98.4693909  71.4362574
  70.2209330  97.1245575  71.6020536   6.1894667  86.9973183  31.6515589
   5.5670422  86.5057945  32.1874928   5.7395154  87.8189278  31.4547372
 104.9737740  14.3070602  65.7113647 105.6478119  14.3299794  65.0321198
 105.2210045  13.5696578  66.2693453  35.1866746 109.1306496  93.1659031
  34.6898818 109.8516464  93.5526657  35.7606363 108.8301659  93.8705349
   9.3203580  78.3880997   3.1554368  10.2479780  78.1958866   3.2925740
   9.1870999  79.2376614   3.5758254  28.3553815  88.8850117  11.6724646
  27.4795413  88.5374832  11.5040469  28.5194874  88.6845493  12.5939417
 103.4398460  42.6146650  86.4743996 103.1474495  42.3706865  85.5962086
 103.6626434  41.7828655  86.8923664  65.6962252  55.6316423  91.2769318
  66.1080933  55.9624815  90.4787254  65.6160879  54.6888733  91.1320496
  27.7101254  58.9503050   6.4707589  28.2741070  59.6077490   6.0634160
  26.8340135  59.1480875   6.1397874  51.4370251  12.1316171  77.9229164
  50.9611750  11.6218972  77.2671843  50.8953142  12.0745468  78.7100124
  50.0191307 105.8830738  65.9632683  50.2437019 105.0423145  65.5646086
  49.5395136 105.6506348  66.7583656 117.4531174  68.4517860  27.6422882
 118.3027554  68.5644531  27.2160792 117.6233196  68.6313677  28.5669589
  96.4281654  40.2257681  80.8563995  96.0176754  40.2062607  81.7208958
  97.3520088  40.0411701  81.0257053  60.7014132  25.1559258  95.9115124
  59.9084091  24.7336793  96.2417793  60.5158472  25.3248906  94.9878025
  64.1549158  33.9132738  72.2915554  64.4905090  34.4806862  72.9855633
  63.4620047  33.4043360  72.7123785  63.6551905  26.6413307  33.4433460
  64.5595551  26.8874192  33.2489276  63.1271315  27.3263073  33.0332327
  53.2182741  26.3261509  65.7077837  52.9853344  25.3995872  65.7665110
  54.0420389  26.3970542  66.1900902  16.6556025 103.0547619  88.0581474
  16.7720437 102.2333813  88.5356426  16.7096269 102.8052425  87.1356201
 113.3593464  19.5738792  66.1333656 114.0000820  20.0462437  66.6649294
 112.7385807  19.2162204  66.7681599  69.9807978  31.0050893  72.4004269
  69.9515676  30.9125566  73.3526945  69.2709255  30.4465699  72.0836115
   2.5367466  49.1630507  20.5349827   2.9351357  48.8845348  19.7103941
   2.9736015  49.9883652  20.7453108  98.4633541   8.3616835  62.2615910
  98.7637711   8.9030671  61.5316010  98.5714054   7.4620765  61.9529438
  45.5855608  44.7334719  21.1941838  45.8937979  45.3838205  21.8252683
  44.7262955  45.0541067  20.9201646 115.3653717  75.7396507   4.6525294
 115.0104046  75.6366301   3.7695712 114.9540806  75.0394201   5.1592302
  71.0002899  40.6629801  88.3755398  70.5881691  40.9588099  89.1872501
  71.6795921  40.0518751  88.6607170  75.6733799  23.6785388  54.7578859
  75.0182295  24.0145707  54.1462517  75.6168985  24.2626238  55.5141163
  92.7470779  30.8661842  53.5944271  92.6447201  30.7160521  54.5342255
  93.5628319  31.3611507  53.5183954  49.0908527  41.2160015  82.3987770
  49.7167253  41.0874748  83.1115150  48.3047438  40.7498789  82.6833630
  51.1395073  30.3064990  82.4623680  51.7535877  30.9521270  82.1126556
  51.5641642  29.4629669  82.3063183  84.6202660   5.8939272  70.6508493
  83.9757252   6.4962763  70.2794027  84.2833328   5.0230408  70.4404593
 106.7662621  13.6836326  84.2428589 107.4122334  14.1389740  83.7028408
 107.2799683  13.2832956  84.9443340  47.0054150   3.7118053  67.9714537
  47.6427174   4.3990618  67.7771473  47.1886730   3.0265647  67.3287296
 106.7892170  10.8539259  43.6636448 107.4330330  10.8581996  44.3719578
 106.4299202   9.9667573  43.6719084  52.4094629  19.4316840  88.9432430
  52.6921415  18.7152946  89.5116806  53.1309366  20.0600314  88.9730453
  45.7337093   6.8862617  74.3497801  45.8679247   5.9734678  74.6047831
  45.4786634   6.8424743  73.4282207  81.3177109  31.3250184  73.6422539
  80.4184055  31.0064387  73.7196922  81.5307522  31.2179112  72.7152300
  37.5633550   0.0258017  83.0698109  37.4243879   0.1843743  84.0034962
  38.0186415   0.8083743  82.7591228   8.9908361  83.5367584  10.8205557
   9.3464553  84.2907619  11.2909245   9.7353595  82.9433823  10.7214367
  54.2449951  11.3327754  86.3339615  53.5519123  11.1466837  86.9673920
  54.0037251  12.1787024  85.9565639  58.9295053  91.9408226  84.3914032
  58.7850094  92.7459240  84.8885536  58.5698605  92.1270752  83.5241032
  85.6450367  16.6121566  96.1179352  84.9766159  17.1204126  96.5774155
  85.4669094  16.7656577  95.1900673  22.2804785 107.0042038  79.6683741
  22.3625398 106.6707993  80.5618668  21.4325404 106.6773605  79.3676996
  90.7884979   3.3329672  93.2984161  90.0212669   3.4333041  93.8618946
  90.6184769   2.5319910  92.8026772  90.8618450  16.9672108  70.1759291
  91.7659950  17.2144496  69.9819756  90.4801655  16.7655420  69.3215990
 110.6732273  68.0107450  20.5341125 110.9839821  68.8992262  20.3601360
 111.1626625  67.7331591  21.3084745  13.5228610  73.0168200  24.2112589
  14.1623211  72.3100519  24.1229582  13.7650084  73.4586000  25.0251555
  91.3305950  22.8977537  45.6505823  91.8379879  22.6363587  44.8821735
  90.9022808  23.7127876  45.3888655  69.7675753   3.5746863  74.5654774
  68.9512491   3.1113967  74.3778324  70.4426193   2.8974000  74.5227575
  71.9326782   8.8690645  78.6003351  72.6898956   9.3354678  78.9543438
  71.6537476   8.2912254  79.3106413  52.6902008   7.4040747  41.0758448
  53.1462240   8.2382190  41.1875582  53.3770514   6.7877918  40.8215475
  25.8742023 110.2554798  91.6468620  26.3781691 110.6666374  90.9445858
  26.5341473 109.9614525  92.2747612   5.0213611  38.9021325   6.8643844
   4.3288231  39.5022440   7.1409535   5.6609398  38.9302325   7.5759894
   9.0217662 100.7104969  44.1478157   9.4916999 100.9761143  43.3573437
   8.6543953  99.8534870  43.9314699 103.4363079  32.3776031   8.5755414
 102.7444267  33.0325127   8.4826541 103.2474422  31.7314935   7.8950238
  57.7264071  93.3030796  63.7582064  56.9129372  92.8468418  63.5429335
  57.4774313  94.2259979  63.8080025  10.5567288  96.8969250  79.1390610
  11.2733567  96.9986153  78.5126925  10.9771681  96.9613647  79.9965620
  12.4778938  98.0487823  86.2048531  12.0384002  98.8393784  85.8917713
  11.7879844  97.3857880  86.2314034  42.3637772  60.9443712   3.5236877
  43.1897497  60.7519197   3.0798745  41.6887999  60.6866217   2.8958353
  10.9223342  99.2078876  91.5660572  10.4998744  98.6014652  90.9577751
  11.6236889  98.6947823  91.9673824  30.3977275  83.7940693  50.6503820
  29.5086718  84.0908051  50.8447075  30.3618598  82.8435993  50.7578707
  72.5007725   2.3122863  79.7027397  72.9199362   2.0155327  80.5105019
  73.1315327   2.9185027  79.3143129 103.0376244  63.1256676  45.9883738
 103.6320591  62.8003359  46.6644144 102.3001957  63.4940243  46.4749336
  64.5704937  42.9959059  82.8527069  64.0107298  43.6855316  83.2095146
  64.9585533  43.3841705  82.0685577  58.8987875  47.4505043  80.7927418
  59.8066759  47.7042627  80.9588051  58.3905506  48.2378721  80.9876251
  74.4898796 104.6544933  79.5779657  74.1614676 104.8544502  80.4545403
  75.2019596 104.0320015  79.7252035  54.2347670  37.0877051  75.1833534
  53.6960173  36.3859487  75.5487490  53.6051369  37.7525091  74.9043608
  63.9265680 100.0381851  73.7107992  63.6688375 100.5067730  74.5046711
  63.4015083  99.2379570  73.7238884  25.5191708 109.2402935  78.8838053
  25.6991172 109.7096920  78.0692387  26.3753939 108.9242077  79.1722584
  41.2898827 101.4161205  83.5809326  40.3464842 101.5773678  83.5961342
  41.6669559 102.1554756  84.0578175  95.5658054   4.4216374  94.2967415
  94.6932030   4.8126677  94.3401241  95.5803776   3.7882370  95.0142479
  39.1801476  99.8297501  94.8021507  38.6754823  99.8270130  95.6155014
  38.7996149 100.5408001  94.2865562 106.7199516  12.1991920  75.2013016
 106.2416363  12.7652800  74.5955038 106.5919018  11.3158906  74.8554516
  17.3853648  34.4832563  15.4755569  17.1117127  33.5660958  15.4883695
  17.6664209  34.6367621  14.5735168  66.5831375  57.1261215  12.1978116
  67.4639320  57.3989487  11.9409120  66.2333059  56.6858244  11.4232218
  90.3785801  20.7921910  84.8103905  90.8849144  20.8497119  85.6206703
  90.5043411  21.6421628  84.3885326  39.2280245 105.3574467  88.5537624
  38.8123727 105.2031136  89.4020844  40.1657295 105.2769470  88.7283134
  95.0631809  18.7124586  93.8208961  95.6855869  18.2681942  94.3966293
  95.5366802  18.8234520  92.9964542   1.3001141  34.6376944  46.3363552
   1.2709530  34.1111350  47.1351767   1.5461291  35.5130816  46.6353655
  15.6459463  99.0482616  69.2447901  15.8670497  99.2797756  68.3427095
  16.4844978  98.8196754  69.6458054  97.5173950  12.8727221  93.2493305
  97.1009350  13.0078840  92.3981380  98.3161354  13.3988464  93.2114124
  16.6734612  61.8911266  13.7233174  15.8978140  61.5005589  14.1258848
  17.1589446  62.2695351  14.4563568  61.1030674   5.9693706  95.4906082
  60.7727861   5.4547501  94.7541904  60.8346605   6.8670964  95.2949619
  74.8642015  24.1703701  61.9445133  74.9581432  24.9801397  62.4461937
  73.9251423  23.9856935  61.9614553  87.5385761  57.2231531  10.5197477
  88.1118584  57.8414106  10.9728873  86.6561985  57.5652075  10.6634259
  58.8578224  98.6141586  62.9682732  59.2592096  99.0019608  62.1906328
  57.9194164  98.7639713  62.8534365  61.4210939 102.5983047  80.3430271
  61.7747402 103.4860802  80.2879906  61.0720491 102.5342178  81.2320042
 102.4340153  16.5775836  76.3167667 103.0445480  17.3053181  76.4346123
 101.6530418  16.8387306  76.8047285   2.4550962   2.6023045  83.3048439
   2.7013659   1.7839092  83.7359047   1.5025377   2.6410040  83.3906651
   3.8119701  59.8647738   1.5213898   4.2459545  60.6312847   1.8960233
   3.0489433  60.2203655   1.0657851  95.7045174  93.4618282  29.8774195
  94.8721695  93.1519604  30.2343798  95.4590321  94.1543961  29.2639637
 112.6511002  10.1344383  72.2727633 112.8060341  10.4407644  73.1662893
 113.1850338   9.3438393  72.1946383   5.1305568   9.0970188  67.5555468
   6.0335279   9.3937451  67.4422789   4.8384324   9.5213079  68.3623123
   5.1810825  44.8462439  11.1737382   5.3420269  43.9198542  10.9944868
   5.0207323  44.8834085  12.1166801 111.2198925  65.1716709   1.9719464
 111.6301632  66.0346222   1.9151132 110.2828598  65.3456163   1.8828176
 100.7614899  48.5751057  24.6744728 101.5251637  47.9984379  24.6525764
 100.9739494  49.2773771  24.0597343   2.3813160  79.4625235  84.0580177
   2.2225676  78.8578129  84.7828388   1.5340574  79.5379019  83.6190414
 108.1911278 108.7561131  96.0081005 108.8840771 108.3658600  96.5407848
 108.5939503 108.8872147  95.1497459  70.8465099  30.2728391  84.8629379
  70.3074837  30.8863139  85.3622723  71.2859440  30.8170700  84.2095280
  61.8582439  16.9853687  80.7080173  62.7041912  16.5435779  80.7816982
  61.9866276  17.6348388  80.0166893  69.9184179  21.6109753  94.6240425
  70.0318718  22.0606017  93.7866688  69.3542671  20.8648849  94.4207764
  37.7802324 105.0614834  64.4937038  37.9123521 105.4353046  63.6224794
  37.8624868 105.8065128  65.0890064  54.6482754  23.1984568  70.7883215
  55.1634359  22.7205944  71.4383125  53.7430811  22.9418039  70.9643459
  42.6918983   7.3103362  41.8981791  41.9381809   7.1507990  41.3301134
  43.4400129   6.9769800  41.4027739  63.3223772  96.7904758  91.9849300
  63.3557320  97.6440048  92.4169064  62.9770660  96.1975765  92.6523590
  86.3270187  49.1088009  14.6280861  86.2797070  49.5773411  15.4614294
  86.7887592  48.2964897  14.8359096  76.8870354  11.0096800  61.8974543
  77.1469164  11.9195867  61.7533636  77.6432848  10.6097162  62.3268127
  84.4840813  25.7714844  48.2185888  84.5885277  25.1505423  48.9395237
  84.3453979  25.2218580  47.4472857  38.7142015   5.3947449  84.7483921
  38.4729958   4.5474005  84.3741417  39.0721130   5.1826775  85.6104565
  75.8488321  31.4374447  72.0537758  76.4767885  31.2313080  72.7461720
  75.9943199  30.7632899  71.3900137 108.4621811  47.8601599   4.5958596
 108.8188648  48.3757210   3.8725284 109.0973949  47.9689741   5.3035975
 103.1788445  18.2679570  73.4726572 102.3514175  18.3461261  72.9978037
 103.5345650  19.1565561  73.4818983  74.5300770  44.5177364  84.1334248
  74.2132807  43.8856840  83.4881401  75.2752113  44.0832710  84.5484543
  27.8989005  90.3617096  71.5057039  26.9602489  90.2337837  71.6428185
  28.3153200  89.7809124  72.1424961  54.4281101  33.9072704  56.9323683
  54.1393328  33.9870167  56.0232592  54.7846270  33.0210519  56.9935656
  90.7718945   6.0698575  72.6133919  91.3418579   5.6637025  71.9603872
  90.2585220   6.7087948  72.1189880   3.0187997   5.1046860  82.5431633
   2.7743301   4.2126706  82.7896881   2.1903843   5.5839080  82.5256824
  17.6190054  87.8287315   9.6307927  17.0460021  87.4943542   8.9407992
  17.3495388  88.7400627   9.7451913  65.1786613  26.7594028  51.3594627
  65.8435106  27.2576165  51.8348408  65.2306652  25.8777285  51.7284870
  80.5215931  20.1824307  60.1887703  81.3329124  20.4988885  60.5860710
  79.8842096  20.8753920  60.3613520   4.3874434  77.2737169  80.1813507
   4.1201195  77.8087091  80.9287167   4.6968633  77.9059553  79.5326853
  34.4408560 106.6584301  82.6936436  34.4535470 105.8932114  82.1187496
  35.2648354 106.6077137  83.1781197  54.8971272  90.9850788  91.8212795
  54.4009829  91.3196182  92.5683784  55.7766104  90.8323669  92.1668530
  78.4382105  38.2853174  69.9532175  78.9734459  37.7410269  70.5307150
  77.5625610  38.2543182  70.3385830  52.0144653  34.9122810  68.4380674
  51.4942122  34.7317553  69.2209959  52.9110527  35.0006866  68.7614059
  83.6999321  60.6887484  11.6307688  84.3180084  60.9806442  10.9606838
  83.3529091  59.8630381  11.2931263  18.1763148  53.0551243  23.8710904
  17.2979367  53.2601547  24.1914749  18.3925819  52.2188807  24.2835903
  97.4931717  26.7564821  72.8519106  97.7085209  27.5149775  73.3946276
  98.1805897  26.7354226  72.1861410  62.4323320  29.8359108  68.0139923
  62.2961569  30.6712484  68.4610939  63.3051300  29.5560575  68.2899189
 107.9497433 106.8188190  13.8848472 107.5270557 106.0657978  14.2977858
 107.6579285 106.7874527  12.9737520  69.3812561  87.3115444  70.8490372
  69.4438553  87.2546673  69.8955822  69.9566031  86.6165638  71.1687279
 102.2537327  34.4394183  77.8748703 102.6892376  33.9151740  78.5469818
 102.4542522  33.9904261  77.0536327  55.3254271  38.4713411  94.1411877
  55.6390429  38.4529877  95.0453663  55.6691504  39.2906356  93.7850475
  28.8229918  55.5141497  96.4852428  29.5454693  55.4324818  95.8626747
  28.8733149  56.4190674  96.7931747  59.0142918  15.1877284  84.1790485
  58.8741207  14.3042445  84.5196915  59.2676020  15.7024717  84.9452782
 109.2903805  56.4113331  81.1719704 108.9269733  55.7077026  81.7096233
 110.0298595  56.7439365  81.6806793   2.4693570  27.4388528  77.8197098
   1.8166780  28.0719113  78.1188393   1.9986430  26.6059589  77.7889061
  95.5673885  39.2910624  76.2912226  95.1045132  39.7114587  75.5664873
  95.3785038  39.8443341  77.0491409  87.3980427 109.8234081  81.8220806
  87.5628567 110.6272221  82.3149776  86.4621449 109.8519802  81.6233063
  86.6574478  34.2122102  78.8329649  86.5739441  34.8485947  79.5430899
  87.5800323  33.9574862  78.8468742  63.9878368  10.5747855  85.3286076
  63.5345078  11.0140193  86.0481930  64.9016333  10.5339241  85.6106281
   8.5503453 106.6509914  29.3651915   7.8924996 106.2838459  29.9556780
   9.3854856 106.4778900  29.7997117  18.6081386  88.2244205  14.2004621
  17.8972054  87.6087475  14.0222621  18.1698418  89.0044975  14.5404673
   3.7018281  49.2664194  59.6550608   4.3459895  49.0596294  60.3322077
   3.6342221  50.2210712  59.6723413  94.1693592  46.3070583  67.1056318
  95.0169659  45.9201622  66.8863201  94.3447399  46.8470001  67.8763056
  66.4234924  49.7874832  75.6782484  66.4506006  50.0951147  74.7722387
  66.2801504  48.8437986  75.6065845   8.6945176  17.4691772  76.7402124
   9.2737281  16.9003177  77.2473097   8.1244415  16.8662989  76.2629461
  51.2028694  35.5291486  52.3682308  50.5209064  35.7700777  51.7412424
  51.1441851  34.5758390  52.4313927  93.0834484  66.6061068  78.5880280
  93.2818031  67.5214911  78.7853956  93.7385845  66.3540030  77.9372787
  63.1118155  31.5630198  65.3053808  62.5590467  30.9090137  65.7331133
  63.5431337  31.0855317  64.5967150  93.7360001  30.1468682  68.3659554
  93.1840038  29.3727517  68.2551622  93.2563019  30.6963778  68.9857578
  99.0230370  55.1558638  76.3356209  99.4308758  56.0194778  76.3994503
  99.2229557  54.8616695  75.4469633  69.3191671  10.9211266  40.5018568
  68.8000393  10.7017457  39.7281599  68.8074017  11.5940487  40.9507513
  43.8118696  96.1723900  59.9942732  43.1874037  96.0838318  60.7142925
  43.4963989  95.5626392  59.3272591  93.2276821  25.7237792  48.6781931
  93.2248688  25.9935522  47.7598000  92.6132870  24.9906754  48.7143612
  43.9947271  31.2653208  76.9076824  43.4936428  32.0719910  76.7875719
  43.4790993  30.7536268  77.5310087  67.6530886  34.8818159  79.2068577
  67.4241352  35.5978799  79.7993612  68.0604124  34.2247987  79.7713470
  85.8611679  18.0763340  93.4841251  85.7293224  18.9190245  93.0496979
  86.7169380  17.7789116  93.1752014 109.5486641  26.4931011  72.2396135
 109.4587326  25.8455944  71.5404177 110.4651928  26.7658496  72.1970320
  79.4103575   4.5078745  88.0355358  79.8337793   4.6430257  87.1877861
  78.4796858   4.4245130  87.8278351  71.0029888  11.5818942  82.0950508
  71.3796616  11.8640208  81.2615395  71.7605591  11.3777280  82.6433563
  33.9581490 105.9449291  52.0178223  33.1963468 106.5230465  52.0586824
  34.6067286 106.4385033  51.5158606  76.2756491  34.3413258  65.4238892
  77.0865107  34.6688223  65.0346804  76.4669371  34.2799044  66.3597679
  51.4859581  41.4005995  84.9115276  51.5736103  42.3529243  84.8712635
  50.9008408  41.2450695  85.6529331  91.1114120 107.9959393  18.0400383
  91.7027378 108.3985996  17.4040961  90.2347851 108.2139969  17.7234888
  89.3324852  52.5900602  67.3969936  90.2838612  52.6942158  67.3802328
  89.1934204  51.7188931  67.7684164  99.1941166  27.2084689  93.2474613
  98.7859249  27.8770375  92.6973534  98.4929943  26.5803742  93.4211159
  74.1350269  39.0236521  72.3629475  74.3189001  39.4331741  73.2083511
  73.2065153  39.1981626  72.2091770 114.6702480  79.5147467   1.5399143
 115.3706741  80.0080776   1.1130023 113.9064407  80.0892925   1.4876899
  99.1384315  36.4992714  46.2924480  98.8438606  37.0762753  45.5877972
  99.2790222  37.0835638  47.0374727   5.1557666  83.4933567   9.6286094
   5.1772535  84.3670750   9.2382497   5.5190569  83.6139965  10.5059338
  98.5520649  90.5180454   7.8356457  98.8923836  90.4032898   6.9483775
  99.3026066  90.3458118   8.4041917  60.7774019  47.4346304  84.6572971
  60.4726982  47.9912806  83.9406872  60.5676460  47.9284477  85.4500008
  63.0942202  45.6372499  74.5480156  63.0466795  45.9987974  73.6629963
  63.7481117  44.9408340  74.4874382 110.1021194  60.8594942   3.3368111
 110.1815224  61.6575289   3.8593715 111.0054684  60.5818272   3.1848568
  70.5880260  41.3247347  82.0930004  70.0907469  40.5218506  82.2489548
  69.9238873  42.0124054  82.0455265  91.7242527  19.9899077  87.7241707
  91.5675259  19.4001496  88.4616375  91.8943310  20.8402324  88.1294632
 115.5201435  91.0294247  28.3647656 116.0022736  91.6668224  27.8379774
 116.1692238  90.6864357  28.9790034 102.9722118  61.8129015  82.9196930
 103.7580490  61.2744856  82.8258705 102.6522541  61.9276381  82.0248699
  76.1809444  12.2184312  70.5746889  75.5440712  11.5627897  70.2905083
  75.8922195  13.0297196  70.1567411  59.1544056  97.0340157  52.2203636
  58.7499189  96.9038486  53.0780792  58.4205198  97.2232246  51.6356945
  60.9317398  37.5831532  85.3960609  60.7302141  36.6560674  85.5230713
  61.1916876  37.8928065  86.2636852  48.8947439  83.3453941  17.6865757
  49.8310423  83.3745003  17.8833854  48.4905767  83.8871479  18.3643520
 100.0397873   8.9736313  88.8701153 100.9308243   9.1237170  88.5542774
  99.9839783   8.0253506  88.9879322 103.5507011  99.1445732   1.2095004
 104.2413807  99.7246265   0.8889802 103.0549526  98.9066887   0.4259983
  77.9805803  26.8398571  80.7235432  78.1536579  25.9178448  80.9137154
  77.8203821  26.8638492  79.7801447 114.0007877  38.7125349  63.6857700
 114.1536713  37.8369784  64.0410995 114.8721504  39.0307760  63.4498119
  82.0419216  32.6230645  84.3006516  81.3588619  33.2697988  84.4778442
  82.8562641  33.0606771  84.5487881  79.2174911  29.7353983  88.3694172
  80.0691986  29.8432899  88.7927151  79.2311668  28.8411808  88.0282116
  77.3725891  38.7875223  87.4999809  78.3150530  38.9156365  87.6075935
  76.9792891  39.5744514  87.8772068   5.6424230  94.4252491  17.7267778
   5.5892527  95.1141644  17.0643628   5.2572608  93.6571598  17.3049700
  90.8598137   9.7737312  73.5458755  90.2686596  10.2642620  72.9747772
  91.5663242   9.4851512  72.9681206  65.4971313  59.5761871  68.6230946
  65.6993151  59.6449661  69.5561695  66.2244129  60.0202274  68.1870651
  89.1177559  39.7282577  66.5436888  89.8738289  40.2910471  66.3767815
  88.3683872  40.2346802  66.2302876  34.2766380  18.1333411  64.4334650
  34.6910286  18.9414561  64.1310406  33.9669013  18.3385956  65.3155994
 107.8820896  29.3890548  67.9938126 107.4973583  29.6305251  68.8363695
 108.4542942  28.6486125  68.1952047  39.9963737  87.8354549  92.8622532
  39.6858072  88.3380699  93.6153507  39.6788979  88.3225060  92.1018505
   5.0305116  40.8252478  58.8213539   4.8190880  41.5868568  58.2814598
   5.1012498  41.1738253  59.7100210 102.0658016  26.4670396  83.8648224
 102.8139496  26.0689139  83.4198570 102.3177719  27.3826981  83.9844513
  88.1328583  58.4979582  65.0819111  88.1735229  58.1082010  65.9552193
  87.2822666  58.9361191  65.0545549  87.2148991  82.8088284  13.9399123
  86.8138313  82.8592205  14.8075759  86.4981556  82.9954433  13.3335435
  87.8223705   4.6704248  66.5215015  87.4976921   3.8760194  66.0975456
  87.4773216   5.3854215  65.9867525  40.0589800  50.0710440   8.8736242
  39.3194270  50.6732988   8.7925065  40.5580187  50.4036570   9.6196556
  73.5531950  45.6966162  80.3956890  73.2041740  45.9006453  79.5280600
  73.0753136  44.9131918  80.6679344  86.9707394   2.8471118  80.5999470
  86.1410999   3.0462131  80.1660347  87.6345253   2.9922378  79.9257326
  78.5296249   6.6044080  61.9223070  77.8351021   7.0177901  61.4094877
  78.0706549   6.1722207  62.6425791  69.9439621  36.4590931  82.8866291
  69.2535686  35.8161736  82.7246380  69.8679113  36.6624713  83.8188744
  49.6199179  37.7997494  89.4252872  48.9793301  38.4354234  89.1062164
  50.1699352  38.2971454  90.0305176  45.7118082  50.6325960  89.5895576
  45.7928038  50.3402424  88.6817074  46.0579109  49.9055433  90.1070976
  92.3641777  30.1422715  56.0747337  91.9279194  29.5112848  55.5022335
  92.6357746  29.6280217  56.8350124  45.0732851  50.7514572   6.3800621
  45.1820946  50.6943703   5.4307818  44.2226791  50.3460550   6.5484524
   7.4815506  12.3038316  88.4800148   7.5310028  12.3884416  87.5278473
   7.6897317  13.1781685  88.8092995  19.7567499   6.1868894  19.6103919
  20.7107186   6.2617606  19.5864785  19.5168293   5.9003109  18.7291753
  10.2926469  42.3552704  81.6345501  10.0706029  42.1855450  80.7190609
  10.6729162  41.5335703  81.9450855  49.9167109  45.5199862  94.5098019
  50.1965618  44.7681618  95.0319767  49.5535994  46.1334419  95.1485920
  50.6362784 111.6476106  93.0344868  51.4606535 111.1877418  92.8758812
  49.9967444 111.1870546  92.4912548 100.2194977  68.4131622  18.4580648
 100.5007267  68.0496454  19.2977071  99.3319225  68.0760860  18.3363581
  85.1884365  27.9507971  59.4596767  86.0214520  28.3516335  59.2113924
  84.8609447  28.5004258  60.1716423   5.7371271  53.2353878   1.0921099
   5.8735979  54.1445112   1.3587567   5.1173294  53.2896042   0.3646877
  39.8187947  74.0770626   4.3609208  39.3441892  74.7155762   3.8286790
  40.5186510  74.5826817   4.7741768  71.8277931  21.2718558  86.8544102
  71.8783283  20.7360935  87.6460171  72.5904989  21.0098577  86.3387871
  98.8817978   1.2758920  63.1362391  99.1746712   2.0730340  62.6946306
  97.9266453   1.3384026  63.1347656  88.4099579  17.8142512  92.0564079
  88.5411644  18.5053837  91.4072895  89.1969967  17.8440261  92.6003838
  81.1370277  36.3381028  83.1362915  80.7613659  36.9509244  83.7684059
  81.0001755  36.7567158  82.2864342  38.1962180  71.3638067  21.3802433
  39.0349126  71.2270975  21.8208504  38.4225273  71.8236542  20.5718136
  85.5000305  38.4219480  70.1169729  84.7806835  39.0530014  70.0939226
  86.1395264  38.7648153  69.4926929  89.4231796  10.2990925  80.3976345
  88.7261772   9.8044509  79.9666405  90.2264786   9.8335803  80.1647377
  83.6200809  11.8169332  68.4923315  82.6723576  11.9187641  68.5799503
  83.9782238  12.2169423  69.2847729  21.9413042  69.2485714   5.5164629
  22.1410084  68.3657455   5.2050632  21.7494440  69.7454023   4.7211146
  59.8208809  63.1997108  66.6864157  60.5031204  62.7199888  67.1561480
  59.1238689  63.3181763  67.3316860  68.4482193  41.7668867  67.5168276
  67.9643774  42.4508190  67.0538282  68.7735844  42.1971464  68.3075523
  32.4843025  98.7410545   3.0215591  32.0851636  97.9093170   3.2767722
  33.1134748  98.5055447   2.3397163  92.8888321  33.6136866  85.4853916
  92.5033855  33.8384271  84.6385384  93.8328838  33.6890650  85.3464222
  59.2751217  35.7773900  65.5314445  60.0915051  36.2450218  65.7077122
  59.1108656  35.9249520  64.6000576 116.9848537  14.4742858  79.9861956
 116.1533546  14.3041253  80.4287815 117.5873756  13.8261151  80.3509808
  78.2453871  59.4477654  86.0195255  77.4218369  59.2850256  86.4794350
  78.0145741  60.0665760  85.3266907 106.5454292  22.4345541  85.6546879
 107.3307610  22.8453016  85.2930546 106.6783714  22.4565578  86.6023540
  92.7270412  19.3449223  76.2038565  93.6323833  19.4224894  75.9028959
  92.6059818  18.4083462  76.3600588  87.9765415   7.9741979  67.7386570
  87.7264214   7.5851429  66.9006205  87.3626709   7.5986296  68.3697987
  43.2092047  73.4251833  11.6554141  42.7077389  72.7189350  11.2480104
  44.0952635  73.3206701  11.3087046  33.2896781  71.2545204   1.5505017
  32.3607206  71.4337206   1.6959599  33.3281112  70.3135920   1.3790208
  94.1103172  56.3122416  75.5716419  94.3117046  56.9700480  74.9060869
  93.6095524  55.6438494  75.1039696  78.4342670  38.8378620  82.3268700
  77.6354074  39.3650961  82.3357677  78.3736706  38.3248043  81.5210533
 112.9664230   6.2612027  70.9205866 113.3027744   6.5855616  70.0851917
 113.3415222   6.8506199  71.5748978  94.8703575  11.1465311  93.7817860
  94.6299934  11.7072856  94.5193577  95.5710506  11.6232777  93.3368397
  25.8182478  67.9190588   6.0812914  25.7776189  67.9475164   5.1253772
  25.5044174  68.7793064   6.3600713  72.5311279  57.5990915  93.5091591
  71.8829679  56.8997908  93.4249592  72.9759169  57.6167154  92.6617622
  41.1546659 110.3911495  79.5241070  40.3135538 110.7617092  79.2568111
  41.0202265 109.4439888  79.4917631  96.7688560  24.1966820  69.6504736
  96.2849808  24.0994096  68.8303328  96.4316654  25.0068140  70.0328636
  77.2032166  50.4139853  76.5006542  77.9279900  50.8226871  76.0274744
  76.8023252  51.1316681  76.9910097  77.5514555  44.7611570  90.0710678
  77.9385376  44.1255903  89.4690323  78.2816172  45.0460911  90.6205368
  49.0336180  21.4701533  76.8889523  49.6056843  21.1726761  76.1815071
  49.6124554  21.5512848  77.6469755  22.8139162 107.4663544   3.3673453
  21.9337511 107.8258991   3.2565877  22.8087163 106.6580486   2.8546593
  50.5842161  37.3135352  42.0634651  49.9621344  37.6637793  42.7010965
  51.3857555  37.1677756  42.5659752  88.9246071  80.2490597   1.2550516
  88.5681284  79.8824435   0.4458780  88.6386955  79.6432810   1.9387979
  85.4255009  39.7510672  79.9955225  84.6731472  39.2163372  80.2490139
  85.8490181  39.9765658  80.8237839  57.7543020  12.3129606  84.2726326
  57.6812267  11.8589365  85.1121330  57.0508575  11.9438076  83.7386608
 108.3692169  39.2712784  66.7796278 109.1989899  39.7323680  66.9025278
 107.9172516  39.7690201  66.0982990  94.7268295  38.3637142  81.8988228
  94.7409630  37.4136353  81.7831421  94.7778416  38.7140656  81.0095119
   4.9818870  79.9375057   3.5157052   4.1970631  80.4765415   3.4170836
   4.6514782  79.0803003   3.7845197 106.5592575  59.2148066  79.0083647
 107.2634506  59.3526316  79.6418905 106.9897270  58.8076878  78.2565737
  60.9504414  22.7920222  92.2336578  60.4734373  22.2115541  92.8267479
  61.8685865  22.5446630  92.3434544  74.3014860   6.4694065  82.4375248
  74.4683313   6.5571773  81.4990807  74.7959852   7.1852106  82.8366852
  44.1899109  29.6179867  74.5941973  43.8557100  29.9791694  75.4152250
  44.3466043  30.3838611  74.0418243 114.5615101 104.9979115  14.1034091
 114.3428326 104.2129230  14.6056080 113.8072014 105.1331902  13.5298753
  85.1838589  42.7517557  91.9354725  86.1236095  42.8799486  92.0645905
  84.7951794  42.9559469  92.7860451 108.7030888  23.2903385  80.2961922
 108.0818081  24.0177584  80.2630711 109.0212822  23.2880425  81.1989594
  57.7419233  30.4812860  70.8402824  58.2354164  30.4318547  70.0215912
  56.9549465  30.9778476  70.6159544  85.3117657   5.7143515  50.8400869
  84.4979954   6.0773444  51.1897230  85.9884167   6.0158020  51.4463091
  48.3740711  36.4464331  71.3859320  47.4536276  36.1971331  71.3030815
  48.3956671  37.0357442  72.1399069 103.6849499  82.5368118  21.9507813
 103.3772278  81.8658066  21.3414478 102.9518032  83.1477833  22.0244765
 109.9708271  21.6164756  78.4448242 109.7769451  22.1329880  79.2270374
 110.6285095  20.9834146  78.7327671  93.2360840  35.4542589  66.8411016
  92.3831654  35.1939225  67.1889544  93.0291557  35.9848189  66.0717392
 104.5681763 108.3215237   2.7227917 103.6259270 108.3878803   2.5678793
 104.9189091 107.9534435   1.9117825  59.1283941  33.0049849  91.2133598
  58.9749098  33.7209487  91.8298531  58.9916229  33.3977890  90.3512478
  76.6872644  17.2809446  56.0579348  77.3933315  17.8585744  55.7680178
  75.8929205  17.8060412  55.9603643 111.4698410  88.2202053  20.2375317
 111.7945194  88.8598251  20.8713245 111.1962509  88.7456512  19.4856751
 106.6358280  55.0887346  81.7246437 107.0292282  54.2659903  82.0154285
 106.7163467  55.6724930  82.4789429  89.9683475  36.1935067  75.9866238
  90.4141521  36.9440126  76.3793421  90.6712818  35.5757117  75.7855225
  98.8344669  10.0397086  58.8996363  98.7768269  10.6173646  59.6607018
  99.5151043   9.4073170  59.1299391  66.6688538  21.4492416  86.5867043
  67.5689936  21.7522073  86.4675426  66.5074873  21.5412927  87.5257015
  51.8426800   9.2100060   0.9004357  50.9332657   9.0107334   0.6779796
  52.0042038  10.0660777   0.5038472  67.5671291  78.1916523  56.9447517
  67.1661568  78.0806541  57.8068066  66.8626213  78.5352707  56.3953638
  66.2964201  10.1995134  86.9066811  67.0155334   9.5918572  87.0794678
  66.6993237  11.0665870  86.9523239  88.3651924  16.5776467  72.5613403
  88.9709854  17.2747993  72.3099041  88.8223743  16.1015332  73.2545471
   8.1074250 110.6555367  72.8863621   8.7933719 111.0579395  72.3536539
   7.5670719 111.3905621  73.1761742  95.9635067  30.3110361  54.4008589
  96.3279343  31.0937405  54.8141384  96.6167355  29.6297884  54.5603275
  30.1115179   3.6872220  25.6481194  30.3224325   4.5418951  25.2722454
  30.9613276   3.2660648  25.7772779   0.0752189  76.1116123   9.9207568
   0.5674606  76.6339254  10.5540967  -0.1926770  76.7391586   9.2494506
  85.8073425  12.2507203  66.4499331  85.1249409  12.3571157  67.1126842
  86.6203022  12.1873617  66.9512415  69.5130634   2.9583699  70.7821703
  68.5847998   2.9374543  71.0148096  69.8919153   3.6143219  71.3673449
  98.6615086  36.0334229  95.7713127  99.2545891  36.4452291  95.1429081
  98.4628773  36.7254019  96.4021397 101.1531162   6.7709738  84.6219063
 100.4962730   6.0786569  84.5479107 101.8948936   6.3517290  85.0580692
  65.4830980  43.1835985  68.1520081  65.3823948  44.1210222  67.9866934
  65.9058571  43.1356621  69.0094519  72.6079655  41.8625212  95.8492661
  72.1306086  41.0366058  95.9281254  71.9361591  42.5375652  95.9453201
  37.9076886  86.8261719   3.7219217  38.7154222  86.5442753   4.1512635
  37.3365068  86.0589600   3.7587854  86.1868668  30.2843380  77.3036718
  86.1934185  30.3157735  78.2603312  85.6590843  31.0390925  77.0428419
  96.5193939  76.6573143   1.4789698  96.0272121  76.9146776   2.2585544
  96.3940239  75.7102966   1.4183787   2.5199780  33.7793756  61.2387085
   2.2448774  33.8950968  60.3292274   3.0379099  34.5604229  61.4335012
 111.7736435  44.3179846  75.7410574 111.8479061  43.3679724  75.6505442
 112.0461750  44.4948292  76.6414404 103.9943790  32.3931861  78.9448452
 104.7301865  32.2351360  78.3533764 104.3522739  32.2384691  79.8190355
  57.6557875   1.6273054   6.3767970  57.6756573   0.7706892   6.8034649
  58.4239674   1.6283119   5.8057153  90.8300877  20.5668664  61.9932747
  91.4368343  20.6916618  62.7230120  91.3948917  20.4171443  61.2351036
  81.2179756  22.7869320  70.8298063  81.4295673  23.7080193  70.9816647
  80.5250931  22.5931096  71.4611292  87.3487759   7.4062949  61.6917849
  87.7243423   8.2788157  61.5739298  86.5971184   7.5449121  62.2680044
 113.3504772  41.9848394  78.1500435 113.5513020  42.2903967  79.0346527
 114.1603565  41.5726137  77.8494024  91.1542416  40.5778551  70.2308226
  91.3445854  39.7754121  70.7167101  91.5073395  41.2789631  70.7785463
  88.7012959  50.9091091  69.7375393  88.6418724  50.1314545  70.2924776
  87.7919674  51.1286831  69.5347214 116.4633465  38.4588623  66.7434597
 116.1207104  39.0436435  66.0675383 115.8465767  37.7270961  66.7621899
  11.8830633  80.5397892   0.9973485  12.6546478  80.4692841   1.5594137
  11.8135810  79.6824980   0.5772910  69.6302605   7.7222264  71.5842056
  70.2809477   8.3886558  71.8049049  68.9102793   8.2125783  71.1874485
  97.2223282  25.5588865  80.4140663  97.5276661  25.2381563  79.5654583
  96.9882584  26.4731956  80.2544403  94.1254616  52.6829863   7.6253229
  94.6128082  52.6567173   8.4487516  94.8010826  52.7180338   6.9481581
  10.0476551  71.3134813   2.1538708  10.3093696  70.3977156   2.2493069
   9.1067731  71.2769938   1.9817033  85.9103680  63.6615992  92.4836063
  85.9970093  63.3053017  93.3677864  86.3982391  64.4847727  92.5082302
  82.1428871   6.7861700  86.9129467  82.7227211   7.0656973  86.2045002
  81.5609837   6.1437702  86.5068150 112.2742748  16.4422631   5.4614979
 111.7474079  16.2811959   6.2442547 111.6331768  16.5438032   4.7579932
  76.3875055  53.5780525  85.3868961  76.0893822  54.3720436  84.9431229
  77.3304510  53.5524845  85.2243042 112.6565456  86.1433315  13.8117182
 113.0828667  85.8559895  14.6191359 111.7332935  86.2339878  14.0475190
  73.0623960  13.6269414  84.8023796  73.0124998  14.5803285  84.7331429
  73.9964962  13.4424973  84.9007034  90.3964615  25.9118462  51.8506527
  89.4969559  25.8174348  51.5372705  90.3107166  26.3547087  52.6948977
  52.2802019  -0.1717497  14.7757375  52.2111082   0.5975934  14.2104340
  51.3885927  -0.3173959  15.0920534  66.6355658  46.7836142  75.6676483
  66.3746452  46.6636419  74.7545433  65.8455992  46.5853310  76.1705112
 107.3238182  22.3630762  52.9078054 108.1343651  22.6945376  52.5213051
 107.1502972  22.9520154  53.6421585  64.2110062 108.6019230  61.2766075
  63.4584570 109.1188335  61.5641785  63.8308191 107.7859688  60.9511614
  10.1198149  85.4586983  12.4635673   9.6834582  86.3104439  12.4446952
  10.9342623  85.5960560  11.9797921  22.8970194  90.3487968   1.3549295
  23.5070705  90.3944969   0.6187377  23.4402895  90.0940609   2.1007156
  91.5458012  76.6525316  16.6587937  91.4121628  76.4175415  15.7405603
  92.1736622  76.0065460  16.9824064  79.6773338  45.3961420  83.3142948
  79.0087223  46.0156202  83.0219936  79.1814804  44.6593571  83.6713600
  21.9165850  93.2495403   1.9158928  22.1551490  93.8233948   1.1878740
  22.0198274  92.3642635   1.5668213  86.9296169  14.5972443  76.4990282
  87.2321224  15.4923928  76.3459730  85.9748459  14.6587443  76.4695358
  24.7088671  80.4498005   2.8834340  24.9198365  81.3756084   2.7625936
  23.8687205  80.3356266   2.4391930  74.4547558  26.6048265  79.0914154
  73.5068417  26.7375422  79.1004229  74.6112204  25.9488106  79.7706747
  67.6439095  34.9652743  82.6525307  66.9078684  35.1966548  82.0860100
  67.4654675  35.4209685  83.4751701   0.5225359  63.8685560  27.9519200
   0.6556593  63.1192684  28.5325027   0.1306330  63.4937286  27.1631551
  60.2121210   8.4248567  94.5413113  59.9689960   8.4848106  93.6174488
  60.5732727   9.2863166  94.7503281  87.3564148   8.7091213  80.1288414
  86.5885830   9.2130387  79.8591614  87.2365284   7.8523093  79.7192860
  76.9193077   6.8047345  74.2969131  77.3160934   6.0460758  73.8688564
  77.4630308   7.5443435  74.0256643  80.0039577  55.6011391  80.3712559
  80.0570488  55.9882259  79.4974232  80.3986263  56.2556505  80.9475231
  49.3999577  35.7561660  63.1487370  50.3454924  35.8810139  63.2300234
  49.0211868  36.3960171  63.7515259   5.0290388  16.4820600  74.9622679
   5.0090647  16.9218063  75.8122444   4.3158814  15.8450496  75.0053501
 109.4821262  10.5925679  80.2906322 109.6914291  11.1898899  81.0087013
 109.9771214  10.9317970  79.5448875  73.8466930  22.1441627  91.3578701
  74.2262840  21.3795710  91.7909336  73.6027431  22.7291632  92.0751572
  26.3867474  87.4307823  28.4413385  26.2633300  86.9077301  29.2334366
  27.3302674  87.5872135  28.4022117  14.6611476  96.1073494   7.8986293
  15.1127601  96.8766403   7.5515419  13.8736129  96.0287476   7.3602575
  81.6110897  67.7093363  86.2706852  81.5519047  68.6114216  86.5852833
  80.9255791  67.2432852  86.7493343 100.4359150  47.7351665  81.2527657
 100.0245667  47.1510267  80.6157398 100.9044743  48.3781242  80.7205200
 102.0590115  67.3134422  69.5901442 101.3368702  66.8046331  69.9587488
 101.7261696  68.2101774  69.5539093  85.7833958  43.5394287  76.9538641
  86.4584351  42.8613758  76.9255924  85.2496338  43.3143806  77.7158880
  71.8656206  39.7974873  68.8334274  71.5980101  39.8339534  69.7517347
  72.5155830  39.0955353  68.8010550  62.9525375   4.5263919  40.5083895
  63.8089037   4.5171916  40.9359312  63.0438995   3.9168403  39.7760439
  59.9272728  26.6737175  46.7564869  60.4045963  27.4535537  46.4732027
  60.3500700  26.4188457  47.5765610  69.6789455   7.2789383   9.6421504
  70.2138710   6.4885044   9.5693535  69.1664600   7.1486753  10.4400373
  13.8258934  25.7159638  81.2798214  13.6368108  26.5816259  81.6419125
  13.7640619  25.8340979  80.3319550  91.1789131  56.2542105  77.7033091
  90.5501556  56.9746017  77.7472496  92.0316696  56.6841841  77.6387882
  66.3700056  62.0082998  58.5301971  66.5526915  61.3220835  59.1720438
  65.8332109  62.6431751  59.0045595 104.5491028  53.0249929  79.3149233
 104.9070835  53.9049053  79.1972685 105.3143787  52.4759197  79.4855547
  24.1089678  77.7309418  30.2385640  23.8586640  78.3270168  29.5326829
  23.3606505  77.7388525  30.8353829  80.6949234  60.2789927  65.4710340
  80.0740910  59.8531008  66.0621500  80.1566124  60.8676386  64.9419308
 111.8869591  74.5435286  71.5085125 111.1387730  74.5826912  72.1042681
 112.3143101  75.3946495  71.6044331  83.4794521  11.2634218  57.8298330
  84.3255901  11.4576399  58.2330132  83.5029125  10.3206158  57.6661301
  35.2690983  93.6458206  10.3578472  35.5692458  92.8004456  10.0239539
  35.6348872  93.6981297  11.2408495  95.2688694  58.7610817  74.1001987
  94.4166279  59.1805553  73.9820337  95.9011364  59.4743443  74.0122890
 117.8449660  48.2666588  84.0909863 118.2956620  47.9184484  83.3216667
 116.9148041  48.1927586  83.8775158  84.7182560  34.2653751  64.1409540
  85.3227329  33.5901546  63.8328743  84.2540359  34.5487165  63.3532715
  26.2541533  80.3254700  14.0539455  26.4171648  80.2409935  13.1145191
  25.3943539  80.7422161  14.1113198  59.3424368  25.5751848  76.5266895
  59.6073532  26.3977623  76.1150885  59.6700907  24.8959637  75.9371710
 100.4771137  42.7046776  79.9700117 100.4374027  42.5542831  79.0255356
  99.6887398  43.2112169  80.1652336  58.7632656   2.7692348   3.4236667
  59.3315983   3.2023612   2.7867767  59.2972565   2.7033421   4.2153376
  78.9496851  14.6830690  77.1798754  78.3569336  14.8295069  76.4426994
  79.2462206  15.5591369  77.4264622   5.0701874  22.4649692  82.4944115
   4.2858332  22.9645133  82.7212906   5.7822591  22.9197884  82.9442120
 103.1083393  50.6006193  82.0393658 103.1062889  49.6434259  82.0404720
 102.9312420  50.8394575  81.1295128   3.4538394 108.0247498  12.0054460
   3.1499848 108.9320946  11.9802618   4.1008672 108.0083275  12.7106535
 109.4818974  70.7464504  70.7597017 109.8648930  71.6031790  70.5711126
 109.2103958  70.8019114  71.6759109 114.0687275  37.3000216  95.0887871
 113.1516266  37.5654316  95.1574898 114.5484066  38.1214142  94.9817657
  93.2926464   6.8378854  85.0127792  93.3735847   7.1361303  84.1068363
  93.7575531   6.0013902  85.0319958  95.3857327  21.7620444  51.2506390
  95.3901482  22.6345897  51.6441870  94.5150089  21.6790843  50.8617973
  71.1130238  77.1677446  62.7410603  70.5720758  77.3135042  61.9649410
  70.6976509  76.4298487  63.1873894  91.2014961  59.4331264  91.6513157
  90.7028008  58.9688873  90.9789944  90.5463886  59.9473190  92.1231937
  99.7471333  73.0570269  72.4852657  98.8111305  72.8583431  72.5108957
 100.1677895  72.2754478  72.8436136  97.6136303  59.6561813   3.5944560
  97.8562546  59.0090847   2.9321620  97.1216965  59.1579914   4.2471683
  36.2160707  90.4299831  18.7031007  36.8498373  89.9803162  19.2619967
  35.7911944  89.7281456  18.2100117  79.2983055  51.3599539  93.4205246
  80.0032806  51.8474627  93.8466549  78.9156771  50.8310604  94.1205883
  83.1873226  81.6395664  62.5746107  83.5824776  81.4039612  63.4140015
  83.1656075  82.5965023  62.5803041   6.5533006  40.3074932  63.5916376
   6.2415171  39.4449234  63.8654995   6.4659745  40.8530235  64.3733025
  39.3823934  13.6747444   5.9175313  40.2762032  13.4000826   6.1222231
  38.9952755  13.8833058   6.7677510  93.8307095  27.5887775  66.3682795
  93.6726952  28.4596920  66.0038996  94.5014095  27.2095847  65.8002901
 105.1312160  12.0104384  88.2848930 104.9171638  11.2147319  88.7719917
 104.5961189  11.9577324  87.4929810  71.8708515  65.1982832  71.6721773
  72.4677610  65.4047632  72.3914099  72.3530722  64.5711946  71.1332417
  14.7718263  70.9824371   3.9925092  14.0865803  70.4069328   3.6527112
  15.1901150  71.3440800   3.2111749  90.6620216 104.0832901  10.3856206
  91.3313007 104.7662926  10.3430402  91.0103989 103.3726788   9.8472077
  39.6434832   0.7759673  11.8961954  40.3546810   1.4029124  12.0279992
  38.8452864   1.2947179  11.9962406 113.6071777  33.5949373  86.6968441
 114.3262863  33.8448930  86.1166477 113.2822704  34.4245577  87.0466995
  63.3748722  51.9785738  80.3036690  62.6705885  51.9528103  80.9514046
  63.6062527  51.0602045  80.1647854 109.5861530  78.2298899  63.0218935
 108.9478874  78.9129543  63.2274914 109.2079830  77.4305725  63.3883762
  75.0122452  77.9617596  73.5107231  74.0639448  78.0666780  73.4335804
  75.1412630  77.5816774  74.3797016  79.7917747  32.6284266  63.8435459
  80.1206207  32.7477455  62.9525614  80.5534077  32.3329806  64.3423986
  87.9190540  46.5505075  60.3399229  87.9466629  46.8158245  61.2592030
  87.2669792  45.8503246  60.3121948  67.5658083  30.6349945  88.4700584
  66.7896366  30.9205961  87.9881668  67.5552988  31.1571622  89.2722225
  99.2281532  29.4513130  57.6620197  99.6788788  30.0585938  57.0752573
  99.7961044  28.6814022  57.6921749  34.9965668  85.4025269  37.1768641
  35.1051402  84.7936153  37.9073930  35.5022097  85.0132465  36.4634109
  81.1713696  31.7299056  78.5531855  80.8083344  31.6064405  77.6761484
  81.9543171  32.2630644  78.4154415  91.1755085  95.3205395  71.6876078
  90.3166866  95.3337193  71.2651253  91.4373875  96.2403870  71.7266035
  77.5394917  22.6603365  57.6241016  77.8466892  21.7694831  57.7921629
  77.7456141  23.1401038  58.4263277   1.2373053 110.3244972  16.3273811
   0.8096968 110.8677864  15.6653976   0.7339846 110.4801369  17.1265566
  35.3192687  81.7614841   3.5545862  34.6343994  81.6300869   2.8989029
  35.4439783  80.8974266   3.9471266   1.3666882  35.0632834  74.5334864
   1.1529925  34.3647146  75.1520061   0.6216651  35.0877047  73.9330053
 106.5997219  15.1452565  71.5845776 107.1273994  14.7096074  70.9152555
 106.1543369  14.4312453  72.0407057  83.7736702  69.4420338  84.2946148
  82.9997635  69.4893980  83.7333107  84.2156410  70.2810574  84.1644859
  69.3154860  39.7576451  79.4063425  69.6779203  40.6357241  79.5240021
  69.2758322  39.3943739  80.2910423  69.8997116  29.5513439  66.2470055
  69.0702295  30.0053096  66.0983276  69.9715853  29.4896078  67.1995068
 108.9112377  47.8868961  72.8679323 109.6121120  47.2357750  72.9002953
 109.2295074  48.5512114  72.2566938 101.2350082  13.1684279  60.4764557
 102.1921539  13.1725609  60.4864693 100.9862900  13.8867462  61.0581684
  39.6458268  89.5143509  10.9209120  40.5811262  89.3139935  10.8847499
  39.5963860  90.4567432  10.7606912  77.0668173  41.8429995  67.1867514
  77.4075413  41.2882280  67.8884363  77.8464699  42.1489239  66.7233086
  40.7223797   5.4715240   5.7232487  41.1473989   6.0696173   5.1085347
  40.5870152   5.9957194   6.5126336  90.3690910  33.2944584  73.8424015
  89.6424961  33.2428241  74.4633913  90.9849834  33.9068413  74.2447615
 103.4864044  38.2055235  89.2544079 103.6801624  37.4718547  88.6709499
 102.6447678  37.9804254  89.6508980  96.9427681  42.4108553  73.7634325
  97.5257206  43.1651545  73.6772108  96.2836838  42.5382853  73.0810833
 106.8195629  98.8166237   1.8343672 107.0341396  98.2285786   1.1102156
 106.3257122  98.2717323   2.4470973  27.4886703  46.9361401  77.7768469
  27.2095060  47.1402836  76.8843079  27.0717168  46.0969591  77.9721832
 101.4094448  34.1751599  93.5454655 102.1015739  34.8327875  93.6141205
 100.9885216  34.1798043  94.4051361 105.8902168  26.1712360  71.0527182
 106.4838886  26.9181919  70.9762669 105.1072311  26.5294194  71.4708900
  63.2715321  45.0736284  78.7750435  62.3323059  44.9630117  78.6272430
  63.4867334  45.8991003  78.3408546  80.8400154  73.4056997  77.8818703
  80.1822281  74.0996885  77.8378820  80.3762722  72.6178265  77.5982666
  96.7134190  65.4870415  73.8147974  96.3805676  65.5852652  72.9227257
  97.1879864  64.6558428  73.8032007  59.8845387  25.9378409  93.2030010
  59.1937971  25.2760720  93.1687737  59.4551039  26.7468882  92.9250431
  95.9278297  13.1550550  67.0551062  96.7466450  12.7487195  66.7711020
  95.4179096  13.2537019  66.2510633   4.1697180  53.4704018  93.9303112
   4.8817164  53.1850624  94.5029163   3.8471484  52.6635122  93.5289288
  62.0703363  27.5393414  96.4149666  61.5973759  26.7079186  96.3792229
  61.4221764  28.1703377  96.7279530  33.2888865  91.0695648  17.9781580
  32.4344921  91.3968849  18.2594180  33.5848141  91.7032051  17.3245847
  71.3396597   8.5464007  23.2855344  71.3940907   8.5651964  22.3300695
  72.1059227   9.0393996  23.5788321   2.4904981  94.7386837   5.9412432
   2.7741155  94.5191574   5.0537729   3.0923027  95.4283428   6.2213069
 108.8819695  48.6096573  63.5782242 108.8268185  48.0506945  64.3533039
 108.8955975  47.9978561  62.8421926  34.6827936  44.3987465  44.3172026
  35.3314519  44.1449690  43.6606407  33.8450098  44.3525839  43.8565302
  89.3790436  78.0444098  63.7461615  89.1428947  77.8678560  62.8355074
  89.2735958  78.9909697  63.8417482 112.2893143  39.2534065  78.4663868
 111.7698383  39.3121123  77.6645565 112.6235008  38.3564448  78.4701300
   5.8022749  47.1798658  65.0027275   4.8968706  47.1826792  65.3133202
   6.1316884  48.0526924  65.2169561 116.5164566  61.1280107  56.3075686
 116.9859600  60.4440784  55.8300352 115.6125069  61.0567951  56.0009193
  75.7052231  67.8513432  89.4793320  76.2011480  68.3357906  90.1393318
  75.4338503  68.5169935  88.8472748 115.4255104  53.6910439  76.4857197
 115.4995060  54.5013094  76.9899225 114.6149349  53.2883120  76.7971754
 100.3438568  21.0469341  55.5812550 100.7767105  21.8372631  55.2583885
 100.5217648  20.3860354  54.9120808  28.9666653  87.7544022   4.6815598
  28.9591360  88.7058830   4.5773530  29.8897219  87.5345516   4.8075104
  87.5525093  82.2514820  49.2384434  87.0404148  82.5648308  49.9839687
  88.1826782  82.9518700  49.0694094   5.1747358  78.5984421   0.3984072
   5.4946899  77.7030802   0.2880026   5.5617309  78.8910389   1.2235446
  91.5831089  80.6177330  72.2642660  92.0159340  81.2661839  71.7089319
  90.7239246  80.9966469  72.4498987  82.0223618  27.6968694  87.1828938
  81.5425205  28.2679081  87.7828121  81.6179180  27.8522396  86.3293648
   7.6461691  15.9292614  95.1032639   6.8556857  15.5574429  95.4945660
   8.3308387  15.2869904  95.2902031  85.2915382  23.5661554  50.1505566
  85.8909225  23.7486196  50.8742094  85.7884216  22.9930639  49.5666838
  17.1047628  90.6719494  10.2570426  16.5010321  90.9370995   9.5631862
  16.5427887  90.5114365  11.0151005  89.0972900  60.5897856  66.7794275
  88.2280350  60.3333092  67.0874071  89.2507553  60.0404739  66.0107040
 110.8919621  48.6445951  92.5320721 111.2040234  49.5124340  92.7884007
 109.9631214  48.6461163  92.7633572  14.2313802  74.2776585  14.5996976
  14.1991138  74.1957998  13.6465502  13.4596252  74.7985983  14.8216152
 118.3326586  24.3693781  83.3613396 117.6437770  24.3323040  84.0248871
 118.2947949  25.2653337  83.0265808 115.1086426  71.4662933  86.2503147
 115.2628613  71.0784292  85.3889179 114.1596127  71.5832710  86.2938786
  77.0236206  69.9048328  90.7606030  77.6542282  69.5014238  91.3571167
  77.5422573  70.5236292  90.2464676  80.4423237  36.3429880  76.5734911
  79.4876671  36.4125061  76.5779448  80.6335831  35.7163024  75.8756971
  11.6768181  46.6527319  75.1312733  10.9556186  46.9224072  75.6999350
  12.1762609  47.4553394  74.9809074  96.5955734  35.6799507  83.2131195
  96.3511848  35.9956431  84.0830898  97.5122356  35.9370613  83.1138039
  95.1416111  70.7904625  81.2401867  95.3903770  71.5801573  80.7598495
  94.9305534  71.1019897  82.1203232  91.3611698   4.4491211  45.5235815
  90.6255245   4.4800842  46.1352205  91.4719105   5.3553790  45.2360678
 116.2299728  46.4410353  76.5432978 115.6466484  46.3251209  75.7932806
 116.8390942  47.1266842  76.2692690  33.3813930  92.5698948  23.9127564
  33.8848281  91.9389820  24.4272804  33.3631635  93.3596039  24.4533634
  93.4341335  51.0693407  82.7779961  93.0748558  51.3879967  83.6060143
  93.3683109  51.8175411  82.1846104  18.3467853 103.3192253  17.6640403
  18.0274725 103.5370445  16.7883551  18.8446224 104.0901852  17.9360855
   6.4982539  45.9747028  44.2279768   5.8351791  46.3549900  43.6518288
   6.6757828  46.6590309  44.8732758  86.0349560  62.1969604  48.5621929
  86.3832474  61.9835281  49.4278526  86.6082478  61.7327261  47.9522324
 112.9507732  63.7602186  61.1730146 113.4728241  62.9687834  61.0413790
 112.0944214  63.4382105  61.4544582  22.3865652  32.3973083  59.9279499
  22.6043010  33.2812357  60.2237463  21.5388870  32.4921107  59.4935703
  59.6044970  42.4277353  75.1116896  59.7211027  41.6517305  74.5635605
  60.3863430  42.4509478  75.6634235  99.1421032  92.4657059  11.3705611
  99.8046112  91.8423462  11.6684413  98.7310600  92.7812195  12.1753752
  18.5241103  94.2947960  38.3256888  17.9785943  93.8920689  37.6500773
  19.4075489  93.9752865  38.1421638  59.1789150  63.6401939  77.8932285
  58.9828110  63.9370489  77.0046043  60.0811720  63.9209986  78.0459118
  85.8845520  57.0027828  83.9069557  85.1174259  56.4804029  83.6727142
  85.5310440  57.7330637  84.4148445  80.5270195  60.4436588  87.1293068
  79.8656797  59.8648357  86.7500591  81.3423729  60.1925182  86.6952896
 115.7335854  20.2109289  93.9742184 115.1761723  20.2523088  94.7512722
 115.2353001  19.6835983  93.3498287  88.2681847  20.4274654  70.5589533
  88.9040661  19.9280345  71.0712624  88.5843754  20.3645611  69.6576738
  69.8925066  22.9760408  63.3691216  69.2047024  22.3180580  63.2680511
  70.6682301  22.5735760  62.9786015  85.0805187  60.9480047  80.9056568
  84.5418930  61.0310698  81.6925526  85.3623486  61.8422222  80.7128239
  98.5241890  60.7373810  66.4799738  97.5711727  60.6664228  66.4255285
  98.7580776  61.3571930  65.7890606  74.6787262  17.6529777  92.6989460
  74.2156219  17.4087167  91.8976307  74.1688204  18.3789122  93.0584526
  32.2412181  10.3340983   4.2211550  31.3635373  10.7012510   4.3265444
  32.1143818   9.3876147   4.2868191  59.2426777 109.6242523  76.4040470
  58.7604475 108.8251495  76.6164589  58.7042999 110.0605106  75.7436991
 102.3477554  55.2413082  92.6292324 101.5361023  55.3856707  92.1428013
 102.2037411  55.6759167  93.4698296  22.4440384 109.2728138   5.9673959
  21.7184210 108.7129784   5.6911844  22.4611282 109.9789143   5.3213614
  69.2406750   8.5255116  86.5406895  69.5041084   7.8436106  87.1586227
  70.0575161   8.7991512  86.1234093  92.0231247  31.3581872  45.1552677
  91.1987114  30.9037995  45.3287601  92.4413872  31.4314032  46.0131311
  12.1102440 100.2210045  14.7323787  12.9595768 100.6495762  14.6265924
  12.3017621  99.4314480  15.2384877  45.9449816 105.6726646   9.3897766
  46.4893484 106.4523697   9.4991225  45.6812000 105.4380226  10.2794921
 109.6486568  75.9745359  69.6756411 109.9446964  76.2845469  70.5314970
 108.8461018  76.4680529  69.5066071  20.9589314  55.0179482  96.1261940
  21.2116408  54.6488810  96.9724560  20.6125379  55.8850431  96.3368702
 105.1786613  69.9559069  41.4631462 106.0117054  69.6542120  41.1008644
 105.0841999  70.8498669  41.1342955 108.4438610  73.1000566  67.2481632
 109.2105198  72.9184628  67.7917624 107.8223324  73.5195541  67.8431082
  21.3630223  19.8073196  78.9607525  21.9066930  19.6087384  78.1983757
  20.4650140  19.7650754  78.6320829 108.4364986  96.6734028   3.1534094
 108.6478233  97.6027012   3.0640957 108.0165482  96.6045952   4.0108097
   9.4862235  82.9901981  73.8284159   9.5409840  82.1180058  74.2189360
  10.2007329  83.4801483  74.2354298  13.5901737  84.2752838   9.2795706
  14.3244636  83.9545631   8.7559372  12.8536642  84.3011665   8.6687386
 113.1293488  59.3546247  76.9738770 113.6661911  58.5800362  77.1413517
 112.3328590  59.2089701  77.4843979  52.0295906  48.1806517  76.4083529
  52.0402002  48.0568981  77.3574638  52.5043583  48.9999294  76.2683201
  94.9472809   3.6010644   3.9075446  94.0386963   3.8424459   4.0876791
  95.4604626   4.3414313   4.2311683  90.4877663  68.0604172  91.3617516
  90.9741879  68.4984016  92.0601749  89.9028587  68.7354279  91.0175610
  98.1192589  51.7933416  87.0980549  97.3309708  51.2610579  87.2053242
  98.3103085  51.7522764  86.1610126  61.4158773  28.8718724  77.2639704
  61.4626122  29.7577572  77.6234913  60.7153606  28.9142036  76.6130352
 116.6756248  61.7223024  87.9785442 116.6999340  62.2860861  87.2053814
 117.0548725  62.2564459  88.6764717   1.0698647  67.2270727  80.8851433
   0.6745347  67.5871086  80.0912189   2.0127191  67.3068714  80.7406139
  29.0135121  90.2210808  33.3984208  28.7798691  90.6241417  34.2345929
  28.2560921  89.6809769  33.1729555  20.4367900  99.3356133  24.3347144
  20.6709766  98.5302067  24.7959256  20.3862119  99.9994183  25.0224948
  15.1229787  41.1573029  88.6320591  15.7802427  41.7396688  88.2511520
  15.5715525  40.7374287  89.3660355  60.4294348  62.6085520   9.2448443
  59.8992443  62.4554825   8.4627312  60.1863337  61.9005108   9.8413438
 102.8170681  77.5737000  47.8927088 101.9631195  77.5181007  47.4638605
 103.0202961  76.6714954  48.1395864 105.5578041 102.0437050   2.9456937
 106.3156700 101.7184544   2.4598129 104.8903179 102.1934509   2.2761653
  24.4891334  70.0348091   7.0913827  24.9186802  69.4979191   7.7573168
  23.5534883  69.9143934   7.2535461  67.4593449  54.7883081  93.3308601
  68.0888844  55.1561403  92.7106857  66.6267300  55.1999569  93.0994987
  99.0482426  50.7811689  70.6760025  99.8496437  51.2696934  70.4880428
  98.5741711  51.3299513  71.3007593  62.3232079   9.6028733  16.5077186
  61.9429731  10.4381931  16.7795527  63.1985664   9.8291528  16.1934340
 115.2189350  49.8987246  59.8418617 114.3394947  50.2761459  59.8610735
 115.7672882  50.5880880  59.4672680  20.9841681  45.9766960  54.0484238
  20.2073431  45.9335041  53.4908295  21.0490632  45.1042175  54.4367504
  79.6741962  34.5757651  71.5028048  78.8409853  34.1383219  71.3277531
  80.1315117  34.5652604  70.6619787  96.9985580  50.0665569  82.6490116
  97.1094608  49.1834784  82.2967243  96.9675732  50.6305647  81.8762398
 110.3265095  69.6781397   6.9731677 109.5975494  70.2584171   6.7537850
 110.7957649  70.1361704   7.6704776 113.2081509  18.2243752  37.4000478
 113.3585739  18.4830391  36.4908195 113.8350487  17.5177944  37.5548959
   6.0893667   5.0691140  64.9464607   6.5508997   5.7616329  64.4735575
   5.8507204   4.4352335  64.2700911  73.3149862  22.4570203  64.5599174
  73.1368589  21.8111920  63.8762426  72.7254105  22.2176433  65.2749872
  15.6558466 103.3135605  18.5415328  16.4925373 103.2161236  18.0869067
  15.3295004 104.1688538  18.2618976  28.8590336  89.0271091  21.7234874
  28.2859087  88.4874439  21.1789417  28.6902261  89.9236298  21.4336872
  71.6374493  15.5251288  14.4104254  72.3269415  15.5274630  15.0743723
  71.4282370  16.4499128  14.2791390  16.4128697  87.9654408  22.4509406
  15.6270337  88.5056305  22.3679852  16.3419378  87.3286438  21.7398214
 100.3617382  54.4333506  63.5095119 100.1770878  54.0840530  64.3813658
 101.2823200  54.2205715  63.3562803 109.3130970  30.5515504  28.1288075
 109.0124798  29.8327827  28.6848927 108.5108757  30.9189487  27.7577329
  64.7471952  62.2092676  86.3526249  64.3859196  61.9300890  85.5113316
  65.1563120  61.4215279  86.7108440  70.0836802 106.2269306  58.9716005
  69.4491959 106.9294453  59.1134787  69.5527554 105.4728413  58.7152910
  15.3001237  93.6928558   8.7729466  15.2062058  94.6033001   8.4927630
  15.6856740  93.7498665   9.6472085  96.4529991  14.1811669  77.7173948
  96.2526226  13.5053539  78.3649731  96.3479900  15.0059688  78.1916380
  92.0844936  34.7473574  75.3704548  92.6896763  34.3764257  76.0126305
  92.5351143  35.5231953  75.0369215  92.1655369  31.0941172  76.1587429
  92.5447559  31.9170856  76.4671946  91.2965775  31.0658693  76.5591860
  86.9524288  51.8611050  86.2395477  86.9646549  52.5591040  85.5846596
  86.6740704  52.2944880  87.0463467 107.3227692  54.7119856  46.3039637
 106.4952278  54.3550014  45.9815073 107.3014736  54.5514011  47.2473574
  92.1671009  42.8500891  71.3915730  92.5969028  42.7905035  70.5383730
  91.6604614  43.6610699  71.3484240  92.9533958  63.0076122  81.6689396
  92.8121471  62.5379324  80.8469391  92.1123219  63.4256363  81.8535233
  95.0122643  27.6318240  86.6869068  95.0260448  26.6996360  86.9038582
  95.2557468  28.0710149  87.5018024   4.2754287  28.4371185  69.1145849
   4.5206848  29.3623519  69.1096354   3.3214042  28.4426355  69.1922951
  59.2412281  92.5252056  57.0590591  59.7020149  93.3628368  57.0113230
  59.9054003  91.9030476  57.3557425 107.4436378  35.7003188  73.4510469
 107.2283554  35.2980590  72.6095772 108.2720757  36.1536574  73.2948351
  78.0862761  79.5935822  79.5100451  78.8466883  80.1063061  79.7841263
  78.4554434  78.7716961  79.1868591  34.9904561  83.6738873   7.3178184
  35.1877785  84.4095802   6.7381155  35.6088424  83.7673950   8.0424488
   1.1620607  51.0630560  58.1977701   2.0021048  51.2753582  58.6045742
   1.2996291  50.2041006  57.7983904 104.0890408  64.0855742  55.3721666
 103.8392258  64.9362421  55.0113535 103.7183475  64.0815163  56.2546635
  43.2993746 110.7732201   2.7289477  43.9402008 111.3411903   3.1567070
  43.8272381 110.1221848   2.2666325 105.3699017  81.6982841  77.2188377
 105.4914379  82.3552513  77.9042959 106.1276817  81.8083858  76.6444874
   2.9991674  73.5906553  73.8508892   2.3406482  73.3088398  73.2159376
   2.6736298  74.4295502  74.1772461 108.2607269 110.3229618  16.1344790
 107.4612331 109.8390102  16.3414574 108.9393616 109.6504688  16.0758054
  60.4290724  57.5643539  88.4027958  60.7682848  56.8958139  87.8076363
  61.1401033  58.2007027  88.4784603  98.8694286  70.5974102  74.4899082
  97.9413319  70.5965710  74.2556667  98.8762474  70.4986620  75.4419756
  97.0027924  29.0445209  83.1464481  97.8268051  29.5307255  83.1753063
  97.1291733  28.3222818  83.7617779 117.9637814  21.7373419  93.4283733
 118.6865902  21.1165905  93.3364964 117.2093201  21.1943555  93.6568260
  19.6276617 104.1727257   3.4063491  19.0518284 103.5746384   2.9299718
  19.7768176 103.7420273   4.2480606  97.4383450   2.5394550  59.4608784
  97.8492641   1.7530295  59.8199272  98.1641197   3.0400527  59.0882015
  43.0705309  15.2186918   5.6318420  42.2423410  15.0454152   6.0793996
  43.7097263  15.3113723   6.3382894 104.5126534  77.3387861  91.0637379
 103.8042736  77.8556395  90.6799412 104.2067719  77.1317196  91.9468021
 118.0676842  68.0885458  78.5872746 118.1003666  68.8918018  78.0677176
 117.2988892  68.1965733  79.1471910  85.0537205  64.0714836  95.1197815
  84.7832298  64.1396856  96.0354328  84.4247913  64.6133327  94.6432590
  96.7928219  59.0246105  85.5131054  96.8333817  58.0682707  85.5157757
  97.3622704  59.2904997  86.2350941 106.8596745  66.7001247  88.2257271
 107.2217274  67.5855541  88.1916904 107.4178600  66.1903811  87.6385021
  76.7778587  25.7714677  94.1202354  76.6698313  26.2248540  93.2841682
  77.1008968  24.9026155  93.8815403  85.2320480  30.5391932  64.4418955
  84.3553543  30.4428220  64.8138571  85.6036377  29.6576118  64.4729567
  12.8898478  91.1438751  91.6088104  12.5536251  90.4045200  91.1023140
  13.8203704  90.9515667  91.7244625  97.7424145  64.0972281  80.1459408
  97.7623844  63.6958981  79.2771673  97.3916435  64.9751616  79.9962091
 108.0557632  46.9587612  80.5642509 108.6914253  47.2651243  79.9174833
 107.8883839  46.0477924  80.3226948   8.1541073  56.4078283  94.1612053
   8.4538263  55.4997683  94.2039871   7.4347264  56.4525366  94.7910595
  73.9769220  70.1570892  81.2527847  73.4901571  70.2220345  82.0744133
  73.3140945  70.2725458  80.5719376 106.3245296  30.1206422  94.6132851
 105.5484867  30.1650381  95.1718712 106.0272408  29.6643615  93.8260937
  97.9034519  54.1090584  60.1007652  97.5153637  54.1342545  59.2261314
  98.5270119  54.8352623  60.1071310  92.6029205  61.0038090  67.4073124
  92.0874691  60.3338289  66.9582415  92.8658390  61.6086960  66.7136145
  85.3968716  95.3672886  23.6340284  85.3714371  96.3198662  23.7244725
  85.3838634  95.2159977  22.6889491 102.2749329  42.0338964  49.6031380
 103.1868458  41.8039751  49.4248533 101.7975712  41.7390394  48.8276291
 104.0819073  28.3661151  31.5346146 103.6834621  28.7992620  30.7797289
 104.3086147  27.4920273  31.2171125  63.6875486  44.8375511   7.0273554
  64.0421247  45.6704187   6.7161655  62.8238726  45.0598764   7.3750114
  58.9777851  87.2274494   8.7312651  59.0558624  88.0844116   9.1504830
  59.3851328  86.6204929   9.3492550 110.1435375  66.7542696  64.6354198
 110.4209423  65.8517456  64.4781828 110.5825806  67.0014572  65.4492760
  80.3824139  41.1731911  93.1076145  79.5430326  41.6300249  93.0531025
  80.2044678  40.4099560  93.6571884  10.0178349  52.8773212  60.0545692
  10.8733582  53.2961464  60.1488924   9.6790636  53.2091904  59.2231083
  18.1500936  26.8412209   4.0437838  18.4256494  27.2684646   4.8548111
  17.3342121  26.3961101   4.2727903 116.3880730  55.9401321  94.8228264
 115.6038666  55.9209251  94.2742920 116.7102528  56.8384266  94.7487164
   4.8552707  62.3797369  85.3194141   5.1487601  61.5265512  85.6390572
   4.2619196  62.6990461  85.9992695  36.3122630  14.9961030  15.0704050
  35.8137512  14.3744111  15.6007051  35.7034159  15.7173681  14.9113011
  64.5196772   9.8594218  19.9348497  63.9460993  10.0250697  20.6830502
  65.1778936   9.2495370  20.2680516 115.3226852 108.9842129  24.8751807
 115.0646973 108.8088417  23.9702392 115.6571770 109.8809338  24.8593855
  90.9035683  74.2706966  84.6418667  89.9572086  74.1315031  84.6063519
  91.2591743  73.4280157  84.9241257   5.4027253  72.7667475  63.1593037
   5.4672778  71.9354200  62.6892471   5.6055003  72.5444794  64.0679884
   1.7348923  72.4447012  85.3198814   2.0948088  72.6158285  86.1901665
   2.2598705  71.7191124  84.9820137  59.8982859   4.8304373   1.8322383
  59.1894817   5.4138184   1.5611324  60.6949520   5.3447551   1.7017497
 114.0355110  65.1667166  93.4672260 114.0389347  64.2309570  93.6686420
 114.8313618  65.5032682  93.8790321  47.4707174   5.3926700   8.3036536
  47.9049826   6.0129613   7.7180874  47.9649448   4.5794743   8.2002747
  91.9515228 103.9626980  57.6313305  91.2327480 103.4772682  57.2264194
  91.6333675 104.1739464  58.5090446  16.9962668  74.0363789  73.3888388
  16.8666458  74.9823570  73.3213568  16.1456203  73.6973476  73.6675692
   4.2972487  50.3290939  85.1700878   4.0743893  49.9218512  86.0071850
   3.8836196  51.1915779  85.2056885 108.2202435  44.4694424  79.4012880
 107.8494740  43.6954308  79.8251534 108.1988907  44.2640257  78.4666300
  75.2938557  19.1604471  23.6608648  74.4936323  19.5163155  24.0471721
  75.1156282  19.1359997  22.7207232 101.2704945  51.7770195  69.5593166
 102.1161556  51.4116669  69.2992830 100.7615566  51.8032169  68.7490511
  86.6263771  59.2279100  75.9547758  86.6353893  58.8482857  75.0761223
  86.5706539  60.1720285  75.8072186 104.1480350  62.7822351  69.1071844
 104.9077892  63.3643723  69.1184568 103.7836075  62.8469324  69.9899292
  52.4550438  11.1505806  12.9431331  52.6644993  12.0340574  12.6401031
  51.7146444  11.2705898  13.5378122 105.8090878  36.6512442  66.1711025
 105.5619907  37.4615479  66.6167307 105.3762436  36.7049074  65.3190470
  73.7841606  81.5254593  88.1143284  73.8756371  80.6428623  87.7553082
  74.2526770  81.4944649  88.9484501  58.6607981  17.0361805   7.3056078
  58.6252308  16.0963309   7.1277010  59.5504665  17.1859002   7.6254606
  31.7773700  96.3189602   3.8440600  31.2999010  95.7283688   4.4266912
  31.6748548  95.9321880   2.9745021  37.7621841 105.9170055  52.8519392
  37.1883059 105.3658772  53.3840609  37.1716690 106.5424824  52.4320602
 110.2897358  82.4273872  77.1678734 110.2587414  82.1009541  76.2685871
 109.4996643  82.0753193  77.5778341  94.3444633  28.9762831  72.7247286
  94.5078182  29.3877006  73.5734224  93.8401318  29.6268916  72.2362709
 111.4260578  27.1699929  91.4625645 110.9543896  26.5166283  91.9791698
 111.0376453  27.1111226  90.5896950  65.1842546  26.0139275   4.3534917
  65.3835106  25.7360911   5.2475476  64.8067045  25.2376056   3.9399573
  67.0416117   4.8462456   2.2734988  66.1025238   5.0254571   2.2262508
  67.0975065   3.9091477   2.4604619  76.2266541  58.6185741  88.3213615
  77.0430183  58.1259441  88.2370949  75.5507183  58.0173302  88.0085564
   9.1593724  45.2578545  87.1339798   8.8232899  46.1489773  87.2298241
   9.7622365  45.3077364  86.3921547  98.0567360  77.8516960  78.2244635
  98.2321835  77.7453709  79.1594219  97.4667263  78.6038446  78.1755066
  68.6408329  69.4948196  25.5994892  68.1656647  68.6918640  25.8132696
  69.5641947  69.2490196  25.6562066  69.7536993  59.7266817  95.6607246
  69.5850086  60.3068542  94.9183083  70.6873560  59.5247316  95.5995655
  29.7570252   8.8559866   2.3828582  30.6392741   8.7098700   2.7242029
  29.3993974   9.5523769   2.9336530  17.7879810 106.1511803  14.4517601
  17.4521422 106.5590763  15.2499235  17.7935767 106.8576050  13.8058698
  88.5230160  46.4581394  68.9679432  88.3583832  45.5174589  69.0330744
  89.0002537  46.5613365  68.1446409  41.6914082  99.3717003  17.7911365
  41.1141491  99.2987251  17.0310831  41.1056042  99.2991066  18.5446596
   2.1508776  75.0071287  81.4218521   2.5634694  75.0039911  80.5581474
   2.8806287  75.0909424  82.0355892   2.5982788  34.1606188  70.9695721
   2.1024245  34.7222376  70.3737974   2.4629295  33.2750988  70.6322813
  67.1061993  13.8721132  21.6404366  66.9746017  13.4184492  22.4729657
  67.3696232  14.7580218  21.8894506  85.7200336  38.3867145  59.5531034
  85.0055218  38.7322593  59.0180397  86.3951588  38.1402731  58.9208746
  29.0020370  47.7726650  65.1187992  29.0145993  46.9894028  65.6688643
  28.9158392  48.4982347  65.7371473  12.9015756  63.4781504  61.7180014
  12.7846372  64.4060183  61.9219923  13.7882519  63.2770109  62.0173025
  68.7255669  55.6122971   1.1402036  67.9166937  55.3157568   1.5573607
  69.3966532  55.0120926   1.4652024  50.4301357  89.0577888   9.0415192
  50.8628654  89.1639423   8.1943434  50.7868814  89.7621727   9.5826256
  27.3586464  93.4301949  12.3261952  28.0592561  92.7805996  12.2678196
  27.8127527  94.2728138  12.3270416 109.8515606  61.4227772  82.2629833
 109.4101906  60.6494665  81.9116783 110.6233501  61.0755682  82.7102280
  98.6045742  54.1149330  68.5027409  97.9148006  53.9010334  69.1309881
  98.9868927  53.2689524  68.2695484  53.8966036  31.5889573   0.1031997
  54.1415977  31.7838335   1.0077620  53.8125372  32.4471354  -0.3123654
 105.2632523  99.9273682  81.2614441 106.1069775 100.1645756  81.6462803
 105.1252651  99.0185738  81.5284157  95.7279873  50.4707289  86.9531059
  95.0195694  49.8375607  86.8370152  95.8129692  50.8943415  86.0989666
  32.5955176  11.2450504  20.8667254  32.7378106  11.9876742  20.2797890
  32.6799321  10.4753733  20.3039622 103.2151604  66.8620348  91.4461422
 102.2642136  66.9118404  91.5433788 103.3642483  66.9444227  90.5042171
  73.2431364  14.9411416   0.2016749  73.8837910  14.2901576  -0.0847064
  72.4074078  14.4745386   0.1932928  71.4257097  38.3458638  15.6521523
  71.8080187  38.0691743  16.4849293  72.0495558  38.0462027  14.9909019
 111.5518188  33.9148974  94.7516155 110.9432507  33.5244870  94.1243458
 112.3009014  34.1866064  94.2212486 115.5100441  34.2786598  58.9864779
 115.4478645  34.8330760  58.2086658 115.0487137  34.7684979  59.6672630
   7.2118926  57.6816416  78.2475996   8.1082326  57.8537846  77.9591990
   6.9555062  56.8905973  77.7735233  22.8263140  49.3506908  65.0709105
  22.4945140  48.7351561  65.7245636  23.6992669  49.5862246  65.3850889
  59.3056107  68.6399460  86.6928577  59.2282581  68.1027699  85.9043789
  58.5270214  68.4249496  87.2064781  95.1824856  49.7766685  91.4747334
  95.2124691  50.4197884  90.7664013  94.5982361  49.0909910  91.1511135
  85.2803135  78.4326696  74.9045038  85.0673485  78.8977146  75.7135868
  85.5340481  77.5556421  75.1920271 106.4875126  67.7126312  92.8664494
 106.0628796  66.9038486  93.1524277 106.6115475  68.2155848  93.6713600
  83.4368038  52.0668983  68.7920523  83.0231857  52.9274321  68.7239981
  83.2532978  51.6458654  67.9522371  23.0116104  61.0902730  96.4119232
  22.6529335  60.2977738  96.8113330  23.8954186  60.8426544  96.1402841
 100.0445461  64.8570633  78.2231188  99.9370956  65.4629374  78.9563274
 100.4187298  64.0687990  78.6166430  27.9324365  80.2083111  26.6805530
  27.1866989  79.6115208  26.6177392  28.4323502  80.0521183  25.8793521
 117.2138119  73.4201479  28.0519295 116.5109444  73.7523031  27.4934745
 117.4869633  74.1777563  28.5692787  14.5535564  45.8112240  73.5288906
  14.7935367  46.5897655  74.0313959  15.0936818  45.1122713  73.8976145
 108.4818745  64.5704079  59.1719055 108.4674454  64.5342159  60.1283121
 107.6447010  64.9692678  58.9346600 102.3896503  29.7306275  55.7847071
 102.6707840  29.3079925  56.5962315 102.6429272  29.1171622  55.0949717
 117.7256870 101.3552380  15.3203762 117.6765633 100.7331276  14.5945728
 116.8175888 101.6156864  15.4744732 115.0984192  72.9822636  77.8675652
 114.4067192  72.6809072  78.4566021 114.6703815  73.0587244  77.0148277
  80.2773285  81.1303711  93.6415482  80.4954147  81.4158916  94.5287609
  79.7028828  80.3751183  93.7674046  41.9405746   1.5205526  25.8344603
  42.7748489   1.6085911  26.2953949  41.9023657   2.2853673  25.2601504
  99.3086720  51.5962601  67.4258471  99.1363525  50.6546974  67.4264669
  98.6833763  51.9537687  66.7954302  90.6886005  86.3784027  77.8430796
  90.3993511  85.6160831  77.3416519  90.6591129  86.0902405  78.7553978
   6.3005334  33.2413960  42.6263905   6.6880238  33.1250167  41.7589045
   6.0359329  34.1610169  42.6491070   5.3993213  59.7295952  92.2226143
   4.4770613  59.4929552  92.1242714   5.8703238  58.9015341  92.1293259
  70.1219225  78.6807108  85.7705975  70.3352165  79.6121645  85.7146358
  69.1985416  78.6611271  86.0220242 104.0907288  54.0902424  72.7341747
 103.2061386  53.8167143  72.4914646 103.9696312  54.6219969  73.5208178
  66.5485859  68.3255816  70.3263807  65.7626152  67.7832079  70.3920412
  66.3143015  69.0121937  69.7019577  88.5692883  64.1030264  46.6217470
  89.0319252  64.8818970  46.3126373  88.9859390  63.8928699  47.4574900
  78.9459801  87.2003937  69.6633434  79.8689795  87.0933342  69.4334555
  78.8942719  88.0767345  70.0448847  18.3116853 104.5688343   7.2699040
  18.5088825 104.2932415   8.1651103  17.8955734 103.8050175   6.8703234
 114.7938824  57.7572966  65.1838827 115.2602577  57.4582672  65.9644651
 115.0936413  57.1731901  64.4873238  23.8921380   7.1598732   4.0483814
  24.0390420   7.4846071   3.1600127  24.6949196   6.6861707   4.2660454
 106.2571144  39.1983271  84.7782707 105.9181976  38.5831952  85.4286385
 106.1664200  40.0572538  85.1908875  96.4286804  90.0254154  92.2884369
  96.8176937  89.4074345  91.6695690  97.1677494  90.3406239  92.8086948
  76.4634502  -0.2146294   3.4099370  77.2457230   0.3317593   3.3342010
  75.9385288   0.0108574   2.6419252  18.0986357 108.6402988  13.2437193
  19.0245652 108.4437466  13.1014037  17.9579377 109.4717789  12.7908635
  11.1020243  59.1723633  71.0031509  11.2855542  58.8306999  71.8782616
  10.9576023  58.3926439  70.4670429  40.1292086  81.2100315   9.5791596
  40.0132942  80.8662319  10.4649341  40.8466625  80.6926250   9.2133963
 113.9214993  50.9592533  87.6737022 113.0256081  50.6807375  87.8635502
 114.2808723  50.2569389  87.1316338  78.4620523  19.1327608   5.6645101
  77.9325819  18.4489191   6.0746980  78.9236975  19.5476639   6.3931876
  67.0025539  49.4884586  20.3237319  67.5975704  50.2212238  20.1648498
  67.4814177  48.9168739  20.9239078  78.9571714  57.1370840  73.7129116
  78.4756517  56.4739752  73.2182837  79.4837856  57.5911236  73.0550718
  48.7937546  14.5381999   8.0056065  49.0984297  15.3646183   8.3803564
  49.3773174  13.8769352   8.3776480  85.3990936  49.0700340  74.6971464
  85.9162140  48.5140371  75.2799797  85.1970863  49.8446321  75.2219534
  50.9883547   4.3897101  18.3242428  50.8349562   4.7614801  19.1928554
  51.0615206   5.1502842  17.7476954  85.3816223  32.7821183  82.0286274
  85.5880737  33.6953020  81.8293571  85.7699013  32.6313400  82.8904533
  88.4213066  74.1613102  76.0925817  88.9219761  74.5464945  76.8117428
  89.0193558  74.1835308  75.3455400  28.9099956  46.3930750  83.9392471
  28.9962459  45.5250502  83.5451412  28.7070036  46.9709873  83.2036972
  84.2152786  71.8799829  94.2132568  85.1680088  71.9722176  94.2074966
  83.8882256  72.7769613  94.2818546  32.2711515 108.2602501  12.7946496
  32.2479415 107.6396275  13.5230148  33.1666350 108.5983944  12.7965486
  10.9507501  86.3441467  90.1167774  10.6750274  86.6223431  89.2433834
  10.1323509  86.2053013  90.5934048  55.0794077  59.3156624   6.2183934
  54.4606256  58.6302185   5.9663892  54.7251844  59.6700573   7.0339686
  19.8654974  86.4097023  23.9321017  20.5468607  86.8207169  23.4000850
  19.5971012  85.6424809  23.4265637  89.1582012  57.8445721  73.8869095
  89.3443871  57.1068478  74.4677067  88.2126617  57.8038836  73.7436152
  59.3490887   8.7599516  20.1737881  58.8698816   9.5785749  20.3020406
  60.2686834   9.0005600  20.2864218  94.5792103  57.8821182  80.0873470
  94.3790817  57.0211029  79.7201490  95.5207062  57.9877996  79.9507523
  -0.0044732  58.9386034  71.9820499   0.4336723  58.6274958  71.1899185
   0.6743851  59.4152164  72.4597740 104.0037823  87.0654774  79.1450310
 104.7981739  87.1893406  78.6255693 104.0681934  87.7196217  79.8408556
   5.4544282 105.0298214  11.9192255   5.7795346 104.2374325  12.3466182
   4.5034599 104.9817848  12.0171213   3.9946690  56.2444544  60.9084845
   4.9396268  56.1365461  60.8005857   3.8327807  57.1636629  60.6961632
   3.0162594  73.7459183  61.9891739   3.7815490  73.2451868  62.2717237
   3.3699313  74.4111156  61.3986969  87.8882313  72.6241970  89.6729469
  87.3830318  73.3998299  89.9166679  88.7647343  72.9590273  89.4835758
 109.9752045  49.7236109  88.2690048 109.8718929  50.5247164  87.7554035
 109.1059875  49.5599270  88.6349201 108.7086773  75.7861614  93.5320663
 109.0468788  76.3945198  94.1891479 107.7754498  75.7124043  93.7317753
  18.7882078 108.9347458  21.6346955  18.6898172 109.8408413  21.9271517
  17.8924465 108.6014938  21.5819240  87.2527122  47.7955532  85.8708954
  87.6786518  47.2102118  85.2446461  87.9751682  48.2550097  86.2989044
 108.2915401  31.8290782  82.7560997 108.2964802  32.0264435  83.6927223
 107.3725986  31.6543317  82.5529957  53.2318926  31.6988850  21.1624575
  52.8130865  32.4212027  20.6943893  53.7712812  31.2655926  20.5009842
  69.2966366   7.0235872   6.4133668  69.3333960   6.8532830   7.3545778
  68.4486675   6.6739416   6.1396378   6.3932925  32.8460646  75.8028936
   6.9957173  33.1872129  75.1418829   5.8771402  33.6060858  76.0715675
 106.0227013  96.9348240  67.7532721 105.3743839  97.4688339  67.2941828
 106.6409874  96.6704750  67.0720387 106.9500351  12.5053811   7.2846586
 107.0326519  12.1800160   8.1810647 106.6963005  13.4228373   7.3852932
  67.9247379  64.8648500  84.8825836  67.7435303  64.4217825  85.7114887
  68.6058187  64.3331528  84.4706821  19.8661649 100.1464176  14.3416834
  19.4985914  99.3158054  14.0396941  20.7361031  99.9182987  14.6694088
  39.0319586  24.9584866   4.3725955  38.2744884  25.3232074   3.9149380
  38.7633657  24.0712118   4.6109897  62.9030275  37.5454354   5.6295204
  62.9527473  38.4437513   5.9563041  63.8104439  37.2407603   5.6274390
 107.2527599  34.5792937  71.0176945 106.8630219  35.0655651  70.2911425
 108.0861568  34.2594838  70.6721401  64.2970562 105.2036667  17.5876415
  64.3809080 106.0333633  17.1177375  65.1286459 105.1060104  18.0514920
  93.1866741  61.7196035  90.2897739  93.4295750  61.0619593  89.6380520
  92.3011017  61.4749670  90.5583572   3.1537783  34.7899480  96.1256426
   2.5827181  34.1683716  96.5770390   3.1304276  34.5146889  95.2091723
  95.0126743  68.3653259  58.4972620  94.9335003  69.2724180  58.2020521
  95.5668926  68.4144497  59.2761517  37.0889997  50.9441900  28.5137057
  36.9118810  51.6597891  29.1242647  37.7233672  50.3914404  28.9700794
  90.9983444  55.0836706  80.5574131  90.4488468  54.4373035  80.1141453
  91.2961006  55.6650639  79.8577309   9.6118522  50.9627247  81.8036556
   8.9531773  50.3014612  82.0160389   9.6321219  51.5354776  82.5703239
  11.9011235  22.5955415  91.5557480  12.7212512  22.9330516  91.9159031
  11.2528872  23.2679725  91.7651653  63.4412003  16.6688335  32.0954752
  63.8175392  16.8818438  32.9494238  64.0524673  16.0381365  31.7149377
  72.8737211  79.2324162  69.5852900  73.4240294  78.9097643  68.8716459
  73.1950760  78.7739086  70.3616476  71.6001606  70.0435448  69.7197628
  72.0291615  70.7657909  69.2609024  70.8436537  70.4462910  70.1460505
  92.7209568  41.0166025  61.6359854  91.7795277  40.9897470  61.8069267
  92.8267765  41.7120504  60.9868383  15.8475971  63.2180691  56.4622021
  16.0084224  64.1612482  56.4901495  14.8975134  63.1395483  56.3761282
  97.0619392  58.1801605  76.2352610  96.4951324  58.5592556  75.5635166
  96.6724205  57.3262644  76.4233398  23.5887194  43.4773493  79.9903107
  23.9375758  42.7165174  79.5259142  23.7235522  44.2084932  79.3874168
 109.1705227  61.7934942  76.9271851 108.3396244  61.5971422  76.4944077
 108.9865875  61.6832972  77.8600597  98.7712193  95.6694698  88.1542206
  99.2046452  95.3337479  87.3695755  98.3594513  94.9003220  88.5480404
  17.1701133  83.8278866  58.6764479  17.9975605  83.4533978  58.9786482
  16.5460193  83.1040668  58.7296915  28.5517788  96.7265034   2.7311593
  27.7715850  96.5731812   2.1982209  28.3526325  96.3138866   3.5715866
  97.2846317  67.9843283  87.8623867  96.8644238  68.1765461  87.0241070
  98.0407715  67.4440956  87.6329708   7.5906205  51.0356712  71.6787100
   6.9499373  51.5032291  72.2145700   7.9733181  51.7112732  71.1189461
  98.0964375  64.3254519  66.1053085  98.7443542  64.9925280  65.8784914
  97.2799397  64.6439505  65.7204437  71.1708736  36.1959004  94.0008831
  71.7437935  35.4656196  94.2347336  70.4529905  36.1488247  94.6322727
  53.9239073   1.9592409   4.0433636  54.6663618   1.9304371   3.4399003
  54.2162800   2.5276664   4.7558534  99.0895653  39.4260240  58.6941910
  98.3359146  39.2662191  58.1261253  99.4935131  38.5652137  58.8040066
  35.4270244 109.2461777  25.1901698  35.5675960 109.2865181  26.1361313
  35.2858329 110.1564503  24.9299765 102.4387360  40.3398657  73.6045837
 102.6890373  39.7270346  74.2959690 101.5881920  40.6799364  73.8823414
  87.8028107  43.3123684  92.4116039  88.1676388  43.4852123  91.5437031
  88.4911537  42.8293943  92.8689384  49.4720411   4.6615610   0.9189748
  49.3776369   4.0896207   0.1572634  50.2215004   4.3043000   1.3953239
  98.5453129  77.9955673  71.2867594  99.0775204  78.7904882  71.2537336
  97.6569557  78.3089781  71.4565182  85.3583336  65.2446413  53.8476229
  85.2092934  65.2894926  52.9031610  84.4854450  65.3257084  54.2319679
 106.6064739  59.9848509  95.7891750 106.2339401  60.1102591  96.6619396
 107.3552799  59.4053125  95.9293938  95.9035206  74.8296785  78.2580900
  96.3702774  75.2024555  77.5101614  95.5784225  75.5897808  78.7405729
  85.7523251  36.2223768  17.7836359  84.9268818  36.5827441  17.4595690
  86.3707352  36.3568950  17.0655072  71.6739178  22.5972319  25.1606441
  71.6939163  23.5365725  24.9777031  71.6768074  22.5391793  26.1160779
 101.3703346  37.8640318  91.0090828 100.4482460  37.9464221  90.7658005
 101.5473175  38.6385632  91.5429497  71.9258928  23.6893654  14.6814322
  71.7316103  23.9595199  15.5789304  71.9450235  24.5069551  14.1840267
  96.3175869  37.5811124   2.8552440  96.7003345  36.9128847   2.2867271
  96.8778706  38.3477640   2.7345940 101.1340237  20.2551460  16.7710316
 101.3503265  21.1374998  16.4695370 100.3592110  20.0120974  16.2642622
  72.7132511  32.2041106  18.9306164  73.2358742  31.9729042  19.6984971
  73.3091784  32.0860386  18.1909132  54.7906876  28.7369251   9.1759545
  55.4494333  29.1490030   9.7349548  54.7451830  27.8325248   9.4861501
   7.7608252  38.6099219  67.7227592   7.7515817  39.2656994  67.0255470
   7.9765195  39.1041708  68.5135984 108.6454773  69.8369217  78.0791759
 107.7668095  70.2104044  78.1476498 108.4989548  68.9232588  77.8342772
   8.1156009  65.1200151  88.9358711   7.3181373  65.5522108  89.2416286
   7.8027272  64.3951273  88.3946800  76.8335390  71.0000134  56.2633610
  76.4032507  71.8440723  56.1268044  76.1988163  70.3545189  55.9523964
  13.1329620  51.9253254  53.1925488  13.8775373  51.9939470  52.5949430
  12.3644745  52.0154762  52.6290464  16.9179773  62.1037626  91.9153214
  16.7778599  61.2955570  91.4219666  16.6039336  62.7965736  91.3342762
  21.7140031  84.5473957  14.9613249  22.4205637  84.6314526  15.6015921
  22.1622610  84.4584179  14.1202664  95.5541515   9.1438675  89.4721413
  95.0203800   8.7682956  88.7719440  96.3070774   9.5255488  89.0208626
  86.3395977  35.9074044  76.2820387  86.7167759  35.6767559  77.1310186
  85.8205795  36.6926551  76.4559126  86.4601803  95.6683826  95.5153656
  86.6467857  96.4700603  96.0039711  85.5721188  95.4280758  95.7796192
  24.3673754 109.5347786   2.0811388  24.4081116 109.4430828   1.1292128
  23.4376001 109.4462967   2.2907133  91.1944485  38.3997345  77.8202343
  90.9480667  39.2945647  77.5861311  91.0699368  38.3572865  78.7683487
 112.8651428  64.8603964  77.9382229 113.3300209  64.0237379  77.9272604
 112.5074005  64.9240398  78.8237762  90.1078796  66.0915136  94.5065022
  90.8631420  65.8297014  93.9799309  90.3454781  66.9505548  94.8555470
  87.8156376  65.8675718  90.6288052  87.0482445  66.1859417  90.1534367
  88.2425594  66.6605806  90.9529972  80.3531647  11.8764114   9.5807534
  80.7599640  12.2141755   8.7828386  81.0719585  11.8191075  10.2102721
  77.9011345  80.7021332  83.1366634  77.3490143  81.2228203  82.5533390
  78.2692814  81.3386917  83.7494469  96.9246960  72.1717978  57.6855564
  97.0453835  72.5156927  58.5706568  96.2410164  72.7234459  57.3054218
  42.0140743   7.5923103  70.4886341  42.4077368   7.8866625  69.6672821
  41.1141062   7.3649681  70.2549458  33.6804461 101.4160824  18.4599531
  33.3166051 101.7181110  17.6277089  33.5545325 102.1528816  19.0578651
  79.6355677  14.8783827   1.2767115  80.1986217  15.2629650   0.6049261
  80.0996971  14.0888464   1.5550023  47.0818615  18.4823310  17.9769862
  47.4453306  17.8324389  17.3755193  46.4457083  18.9665079  17.4505651
  67.0872498  21.1656594  36.1622286  67.4644041  21.6348982  35.4180503
  67.3419285  20.2533579  36.0241270 108.0609417  81.9760418  78.6848593
 107.9900265  81.1319065  79.1305590 107.3931694  82.5225067  79.0992165
  98.0048180  77.8132868  81.4994431  98.0734634  77.8877687  82.4512672
  97.3556614  78.4724474  81.2538147  11.3061976  41.0751677  94.7433472
  11.0004139  41.0135841  95.6482983  10.6094742  41.5465975  94.2866707
  46.7966509  36.4723349  13.1764793  46.5316391  35.6083417  12.8610158
  46.5495634  36.4758253  14.1012323   1.1272266  72.8646421  54.6387434
   1.1670117  71.9084454  54.6569014   2.0386744  73.1404877  54.5417643
  24.0369296  94.7084141  19.1507208  23.0887103  94.7765160  19.2624068
  24.2825484  95.5124283  18.6930490   5.6048310  73.1060553  66.9783401
   5.2397799  72.3584652  66.5049648   5.6886470  72.7999687  67.8814030
  36.0550213 106.3542175  10.0763512  35.2763247 105.8674717   9.8062754
  36.7108154 106.1451626   9.4111747 102.2802925  16.9620085  40.9435844
 101.4269638  16.5563822  40.7901669 102.7839375  16.2925446  41.4066029
 101.5538502  55.3958178  89.2503071 101.7235661  55.1993179  88.3289909
 101.2804699  54.5594692  89.6271610 116.2319756  67.9764891  93.7575054
 116.7198849  68.6482334  94.2338848 116.2780952  67.2030830  94.3195915
 104.6931648  99.7097969  94.1971493 105.1681042 100.4358006  93.7926865
 103.8454819 100.0830936  94.4386196 104.8001099  89.3494225  61.8297386
 104.3047810  90.1464081  62.0186615 105.3408718  89.2134285  62.6077557
  13.0379665 108.5188293  69.1290951  13.2209206 108.8654995  70.0023508
  12.1984982 108.9099693  68.8871574  12.4621105  93.0755901  57.9585838
  12.2803235  92.7580166  58.8430738  11.8742001  93.8226509  57.8467846
 108.1030369  72.4737692  92.8573799 108.2651138  71.5620232  93.0996227
 108.9445877  72.7866650  92.5255489  72.7413845  34.5297337  29.2514825
  72.0593691  33.8688278  29.3710232  72.4329472  35.0623035  28.5183573
  76.1326599  53.6109257  79.4135332  75.5331278  52.9368782  79.0934515
  76.4978456  54.0029144  78.6203051  81.7969704  55.9236765  90.1159382
  82.3252964  56.3396406  89.4347095  81.9985771  54.9910831  90.0393867
  81.0813713  66.0229397  84.2804146  80.2461338  66.3599062  83.9562798
  81.2930202  66.5845108  85.0261211  99.0226555  62.1583223  86.0053349
  98.7830734  61.2336588  85.9434605  99.2958355  62.3948002  85.1189518
 100.6877136  66.1777925  91.0479736  99.7848988  65.8652306  90.9890556
 100.7462788  66.8668556  90.3861618  16.5239930  89.9150467  96.2492275
  16.1496544  89.0486050  96.4085293  15.7932663  90.4333878  95.9121895
 102.7796078  40.8242035   4.7374445 102.1319675  40.5261755   5.3761715
 102.2606182  41.1100388   3.9856547  44.8415947  84.8958969  13.3340669
  44.7299099  84.6084404  14.2402279  45.6273127  84.4394779  13.0331206
 114.6358967 106.8366432  75.0466871 113.7386799 106.5083122  75.1051998
 114.9451542 106.5374279  74.1916609 106.1950397  48.9619970  74.7675610
 105.8323765  49.4580984  74.0336752 106.1334801  48.0473614  74.4920874
  40.5235529  31.8605971   1.5972325  41.3646173  31.8349743   1.1409557
  40.6834793  32.4114347   2.3635453  14.7461665  54.5258379  83.0222034
  14.7213447  54.0218830  83.8356113  14.8047221  53.8646793  82.3325062
  92.3297691  40.4031897  81.9230270  93.0804157  40.2889585  82.5058651
  92.5153637  39.8309493  81.1784935 113.2478905  71.3320494  69.0146875
 113.8682270  71.0277462  68.3522606 112.9857635  72.2026443  68.7153816
 106.7070198  47.1849346  59.4713259 106.5245247  46.9500351  60.3811359
 107.3537540  46.5409565  59.1827965  23.6125231  44.7937584  67.2108555
  23.2808542  45.6913614  67.2340393  24.1041994  44.7411919  66.3912678
 105.3295135  75.4848623  76.4698362 105.8955479  75.9938955  77.0501184
 104.8281860  74.9207497  77.0586252  18.7511051  91.7389679  78.8796568
  18.8458300  92.5872803  79.3128252  18.2858849  91.9358253  78.0666065
  31.9377565 106.4503002   1.7361210  32.2093630 105.8162022   1.0725045
  32.2386742 106.0747814   2.5635663   2.5518042  48.7965441  75.9529257
   1.6439307  48.5654545  76.1493826   2.9265359  47.9988718  75.5793905
  34.3117309 100.3042030   4.2824772  33.6693549  99.9262524   3.6818612
  35.1473475  99.9263573   4.0082327  94.1130066  87.4282455  90.7653141
  93.7678623  87.9243374  91.5076065  95.0087738  87.2075272  91.0204697
   5.9355772  77.3485518  34.1859460   6.0073835  76.4897442  33.7693834
   6.3925016  77.2486258  35.0210905  95.6819916  80.1569939  75.5704689
  95.8721066  80.7591629  74.8511028  95.4065323  80.7238770  76.2908888
   4.5702711  74.6103430  79.7467804   4.6243614  75.5369616  79.9806261
   5.2396327  74.1879940  80.2851200   4.6295086  65.6937027  92.2288036
   4.7476223  64.7755432  92.4722481   4.2801958  66.1077118  93.0179882
   8.1896776  94.4252491  69.9100018   8.5653996  95.2996159  69.8073053
   7.7770627  94.4417763  70.7735491  19.4032788  74.9678087  74.2197847
  19.3123353  74.6159649  75.1053143  18.6747313  74.5824957  73.7329721
  96.8517971  40.4997253   3.1324738  97.1941948  41.0132265   3.8641262
  96.0666180  40.0785208   3.4821907   3.0800974  54.7104836  89.3183231
   2.9520813  53.7689447  89.4338322   2.9252473  55.0815964  90.1869583
  39.1471314  19.0232468  18.6954916  38.6048388  19.2321622  17.9348969
  39.8931932  18.5450411  18.3336329  92.6520920  21.8190742   2.3313715
  91.8055534  21.8190813   2.7781487  92.9085827  22.7408671   2.3042101
   2.1792617  54.8044920  81.9169712   1.3834178  54.2747116  81.8700790
   2.1347217  55.2282763  82.7740955 100.7927036  44.7650003  92.1489811
 100.7522678  44.5583820  91.2152290  99.9794006  45.2380323  92.3250580
 104.6902657  57.3846626  80.3049564 103.8868427  57.7248144  80.6987095
 105.2191639  58.1629515  80.1295471  96.7268467  27.6934910   1.2853678
  97.4199009  27.3088026   0.7487833  96.9288921  27.4098110   2.1769600
   9.3151337  99.4832802  74.6258879   9.7031182 100.2151680  74.1462612
   9.6647102  99.5661354  75.5131102   4.2186868  50.1378107  64.0429163
   3.5017398  49.6480274  63.6400127   4.0117484  50.1400328  64.9774790
   6.8082440  52.3961306  87.2712612   6.2844425  52.0736599  88.0046558
   7.7124935  52.3413467  87.5803947 111.2756443  71.5206003  94.5692825
 110.8532810  70.6798697  94.7453785 112.0094967  71.5531635  95.1829910
 115.6671143  96.0257816  90.3791046 114.7371769  95.8153534  90.4638004
 115.6882572  96.9759083  90.2649117  66.9676828  27.4428058   8.2945067
  66.3617897  27.5314450   9.0302175  66.5234518  26.8498182   7.6884884
  88.2863426  26.8031383  11.2221599  87.9847240  27.6343036  11.5887976
  88.7000942  26.3526630  11.9584489  44.9459219  99.3081570  40.4460669
  45.2265930  98.8783646  39.6381450  44.2536879  99.9087811  40.1698399
  65.8917427  78.3565617  89.7330856  65.8827162  78.2794809  90.6871414
  65.2719307  79.0610123  89.5438385  67.1652508  12.7893889  19.1639924
  67.4242973  13.5482633  18.6412704  67.1744776  13.1062579  20.0671768
  99.5914650  69.1528082  80.2340221 100.1652622  69.6626997  80.8058548
  98.7174129  69.2690134  80.6065369   0.7024657  73.6685944  71.9079733
  -0.0631154  73.2054281  71.5679789   0.4906737  74.5954037  71.7966318
  21.6116858  58.2203436  78.0083036  20.7303834  57.9086161  78.2141256
  22.1781230  57.4682474  78.1807327 104.6978951  49.5368671  72.4700403
 103.7521076  49.5083237  72.6146173 104.7926807  49.6239471  71.5215349
  18.6734462  75.7149363  84.1518497  17.9886174  75.5756998  84.8059559
  18.8802695  76.6472960  84.2163563  95.5407619  54.1491747  82.3402405
  94.7979069  53.8917875  81.7942142  95.9148502  54.9084616  81.8932724
  13.9146638   1.6330840  23.5456634  14.6285748   1.6117232  24.1829276
  13.7603378   0.7138290  23.3279800  86.9915581  68.9190149  84.5091057
  86.8753719  69.7353315  84.0229321  86.3514423  68.3190680  84.1262817
  13.5608578  58.6888695  79.7376919  13.8897479  58.1021833  80.4187679
  13.8049245  58.2626724  78.9160967  15.8081794  87.2468376  96.2494659
  14.9406445  86.9442844  96.5179253  16.0585332  86.6562843  95.5389690
  20.7361603  78.5725307  95.2242374  20.2107239  77.8301764  95.5226612
  21.0469890  78.9852762  96.0300064   3.0955350  84.6837139  69.0249681
   4.0131968  84.9402237  68.9336920   2.7161410  84.8394585  68.1600761
   2.1367322  63.4950733  94.6840668   2.0426317  62.5540304  94.8317719
   2.8582299  63.5684967  94.0593433  35.8455133  84.9730587  80.5875111
  36.1156058  84.4828415  79.8110008  36.2482023  84.5044899  81.3186264
   1.0167538  39.8643231  91.1958408   1.1858495  38.9387774  91.3719177
   0.5682761  39.8692203  90.3502274   9.5895302  99.7710228  68.6466312
  10.0969827  99.2693520  69.2846346   8.8275874 100.0803375  69.1365290
  26.3995647 102.2456551  57.7195835  26.5646005 101.5248394  57.1117783
  25.7783842 101.8870258  58.3534241  77.2093821  12.1962070   7.2652161
  77.8146553  11.9707155   7.9716361  76.7430115  11.3810682   7.0800799
 100.2531815  17.2415948  20.8918643 100.1698494  16.6414917  20.1508093
 100.6572247  18.0259323  20.5206490  91.9425964  27.6999688  18.4943712
  92.3500824  27.9114485  17.6544499  91.0615540  27.4040794  18.2653916
  60.2668571  26.1593199  21.7287612  60.3986311  25.5425358  21.0087299
  60.7557011  26.9398737  21.4680004 106.0432720  82.1331882  85.6306744
 106.8445492  82.6511288  85.5536175 105.7958317  82.2104263  86.5521049
  74.4552660  12.0926714  21.7452168  73.8790751  11.5453017  21.2117171
  75.2458620  12.1955824  21.2154984  95.2894211  94.9596310  73.6455250
  95.9767246  94.7472954  74.2769957  94.7122955  94.1960239  73.6538410
   3.7442654  58.1103325  76.9023323   3.1613937  57.7027512  77.5429344
   4.4917750  58.4136343  77.4175692  80.2986145  34.5843649  12.9695284
  80.3765106  35.0562859  12.1404004  81.1948204  34.5349479  13.3021069
 116.3187599  67.1380711  65.8044386 116.6612148  66.2836504  65.5418968
 116.7541695  67.7600241  65.2214909  78.7056971  11.7444468  84.8633480
  78.6586714  11.3894022  85.7510185  77.9135227  11.4214873  84.4339371
 112.8964138  78.0668545  81.6455173 112.1912575  78.7037373  81.7611599
 112.8754044  77.8529882  80.7127571  98.0658340  71.3848400  70.3454256
  97.1311855  71.2535810  70.5049086  98.2432365  72.2664976  70.6732035
  59.5254707   5.7929641   4.7552603  59.3268633   5.7598197   5.6910431
  60.4573488   6.0080606   4.7156632  94.0933132  26.4113545  73.1408978
  94.3821812  25.8329797  72.4350166  94.0429115  27.2770953  72.7357006
  93.1008625  61.1152887  79.6932840  93.7740898  60.6658602  79.1823864
  92.5060272  61.4795494  79.0377522 117.2469234  57.6504469  78.4540892
 117.8708458  58.2419157  78.8749409 117.6004028  57.5155878  77.5748301
  81.9507408  37.5995302  18.9653933  81.6771221  38.4543633  19.2979920
  82.4396992  37.7985144  18.1669199  39.5144320 104.6154594  28.6885166
  39.7217655 105.0181484  27.8452587  39.0791082 105.3088188  29.1844702
   5.7810581  92.8511238  52.6791191   5.8864135  91.9044495  52.5845671
   6.6747463  93.1849480  52.7573204  13.5330081  82.9624844  59.8440027
  13.7915254  82.1377277  59.4326878  12.9402697  83.3697128  59.2122936
  10.8289945  35.0935745  90.0995350  11.4717197  34.6046710  89.5856190
   9.9832940  34.8378134  89.7312832  85.3267670   9.9003291   9.4939458
  86.1798763  10.2715564   9.7189319  85.5017376   9.3379551   8.7393922
  24.7316432 103.7245941  11.4487684  24.9964046 103.7375736  10.5290055
  25.5350590 103.9175224  11.9320226  60.5910873  45.7914209   8.4172845
  60.5111456  46.2804842   9.2362225  60.2439737  46.3833714   7.7499461
  90.0979900  20.7513428   1.4941388  90.1780987  21.5397716   0.9573022
  89.9109936  20.0526547   0.8671614 117.3483276  94.0043068  68.6235476
 117.6910210  94.0448856  67.7307177 117.0115376  93.1125450  68.7105274
  81.1804485  91.5064430   4.4013157  81.2351322  90.8282280   5.0745612
  80.3187370  91.3806152   4.0040219   6.0073614 103.8687420  80.9260845
   6.0463893 104.4418335  81.6917706   6.8467557 104.0004635  80.4852867
  35.3601551  92.0879269  59.9054527  35.3839612  93.0371380  60.0265741
  34.7614717  91.9551945  59.1704798  21.8222570  61.5051556  86.4179516
  22.7307057  61.6513538  86.6817284  21.8856406  60.9677649  85.6283760
  10.9589136  63.5947704  95.3303909  11.0215533  62.9328489  94.6417904
  11.8474209  63.6613131  95.6801891  79.7874928 109.3782997  62.5350428
  79.7661543 108.5445118  62.0653963  80.6762505 109.4326687  62.8862953
   4.7275811  78.9455175  87.0900822   3.8381594  79.0149260  86.7431736
   4.8817161  78.0039787  87.1674061  55.0287819   8.0782461  65.4229069
  55.3414822   8.3162123  66.2957335  55.6144524   7.3751223  65.1421213
  23.2419229  91.7432117  93.0618572  23.2594037  92.6426220  92.7347755
  23.5028076  91.2101269  92.3108578   2.9776877  91.3332939  56.9508219
   3.0513364  91.8372059  56.1403370   2.6749375  91.9676399  57.6005793
  36.9504976  13.1495869  62.9481649  37.6570201  13.7228441  63.2455492
  37.3803353  12.3136306  62.7674818  30.1040316  93.4691048  30.6351852
  30.7333279  92.9320335  31.1166120  29.2485213  93.1328011  30.9020710
  68.2309914  18.1541300  39.2005444  67.9569912  19.0680933  39.1242146
  69.1445160  18.1532860  38.9147162  38.2408547 108.9105320  54.5054102
  37.8791761 109.7241688  54.1541147  39.1893983 109.0274525  54.4522476
  68.2367420  95.3509140  36.7598176  69.1456032  95.0514317  36.7823267
  67.8975916  95.0245476  35.9263349  43.8869429   2.3220818  22.8039336
  44.1315985   1.8340108  22.0177007  44.4210052   1.9387433  23.4996796
  66.2684441  21.9287062  52.7602530  67.1987104  22.0673370  52.5824499
  65.8971262  22.8102922  52.7942848  75.9211493  15.9818506  28.2384253
  75.6165075  15.1193964  28.5205579  75.1192760  16.4871454  28.1046152
  86.1535168  16.4925575  90.4629612  86.1663532  16.3982594  89.5105076
  86.6769505  17.2756696  90.6331921 114.2416382  16.4500153  68.2957840
 113.8172436  17.3006916  68.4074831 115.1098824  16.6589129  67.9511976
  38.1799150  99.0602589  65.8096409  37.9255080  99.0724945  66.7323351
  39.1369843  99.0640259  65.8250093 105.6423283   8.2608926  46.8817997
 105.8986855   9.1821444  46.9242954 106.4557648   7.7788103  47.0306253
  39.0159583 107.2837543  76.3416243  39.0009856 108.1582355  75.9526539
  38.2981992 107.2909641  76.9748688  49.0636873   4.0668309  78.7190247
  49.5913792   4.7193283  78.2585716  49.5813990   3.8424116  79.4922256
  81.3480091  12.7919698  46.9423676  81.2097836  11.9781220  47.4269056
  80.4742718  13.1747210  46.8628502  96.6294575   1.2304021  91.8440914
  95.7641697   0.8312179  91.7537594  97.0196915   1.1558984  90.9732246
  73.0924082  10.7192099   6.9991565  72.2636318  10.7624364   6.5221930
  72.8400040  10.7560730   7.9217422  89.4426632  17.0639122  62.9866743
  88.6499023  17.5898349  63.0923557  89.3366241  16.6392112  62.1354294
  29.4030666 110.8629704  64.3886137  29.1917181 110.3902435  65.1936531
  29.7134471 110.1856995  63.7876177  41.8178558  97.2442913  68.4544277
  42.1888876  98.1227589  68.5372639  42.2008657  96.7530155  69.1811943
  57.3713684  27.0992064  77.5844669  57.9974413  26.4012814  77.3916817
  57.8483629  27.6964068  78.1607151 108.6308193  28.4827209  47.2657156
 107.7618790  28.5898232  46.8788099 108.5326958  27.7522326  47.8764439
 107.1514320   5.1425099  68.8676357 107.0748234   4.2375892  68.5651779
 108.0392933   5.4027146  68.6222363  74.8251009   3.3611390  78.2681751
  74.5060110   3.5431167  77.3842621  75.6376314   3.8623667  78.3374166
  58.5409117 103.0577374  71.1844397  59.4915152 102.9860401  71.2707424
  58.3683968 103.9989185  71.2101412  16.2863457  67.3558664  14.5865870
  16.2760520  67.6115179  13.6642146  15.9595823  66.4561749  14.5894241
  86.5412903  18.0865979  45.6533813  85.8040047  17.7780902  46.1801338
  87.2147274  18.3145809  46.2942696  85.9165001  16.5169716  52.5022697
  86.4910507  15.7529223  52.4537325  85.0788307  16.1677873  52.8065825
  22.1359682  52.7510500  11.4615738  23.0656719  52.6779509  11.6772997
  21.7347217  51.9827557  11.8677223  74.7044563 111.1824608  37.7570081
  75.1873875 110.3692341  37.9042339  75.1790905 111.6180706  37.0490527
  27.9397464  86.8195343  78.2019806  27.4754739  86.9954872  77.3836184
  27.3299479  86.2881088  78.7138128  95.6303978  11.5171492  69.3943214
  96.5473557  11.7625594  69.5175552  95.4259205  11.7952716  68.5015345
   2.3523650  44.6344995   3.0887705   2.0466486  43.7445354   2.9134485
   1.5993726  45.0726509   3.4853277   0.0922448   2.7630967  59.1835880
   0.3524844   2.5101182  60.0693130   0.3203892   2.0075905  58.6419296
  20.0430465  48.1976604   6.8532741  19.3460727  48.8532972   6.8778491
  20.7595277  48.6271572   6.3859206  16.3107789  55.7897377  75.9598970
  16.6990912  55.4630375  75.1482821  16.1392188  55.0027609  76.4770699
  78.5531616  30.1879191  73.3493519  78.6371660  30.7081509  72.5502682
  78.7806654  29.2978120  73.0806828 109.5985126  86.5571499   9.9453735
 109.5774078  86.1674404  10.8193934 109.7780704  85.8217907   9.3595147
  92.1603775  10.2454185  37.6491451  93.0716419   9.9809271  37.7750897
  91.7385578   9.4763905  37.2658706  30.7102466  51.7825127   4.2364472
  30.8010340  52.0241547   5.1581830  29.7907829  51.9543362   4.0332377
 107.2891140  59.6303082   7.0440072 107.6836300  59.4480801   6.1911446
 106.3516617  59.7012043   6.8640214  94.2867565  53.6726809  15.0070798
  95.1415539  54.0418243  15.2290595  94.4429207  52.7307415  14.9392903
  57.0979548  24.9765682  63.9062738  56.3234520  24.5409822  64.2621469
  57.8340769  24.5605946  64.3549538  40.8205128  78.0949640  38.1535554
  41.0554266  77.2552872  38.5485125  40.4138613  78.5890627  38.8654065
  53.4813881  97.2142029  53.3623743  53.7803078  96.3566685  53.0598688
  54.2635489  97.6237679  53.7321186 111.3383675  91.5765285  95.7940769
 111.8870449  91.5360355  95.0107765 110.7029629  92.2672558  95.6059742
  39.2335033  83.4060574  88.4367180  38.4156585  83.6762238  88.0191422
  39.5482612  82.6793385  87.8990841  72.0365953  33.8835597  79.8006582
  72.3050356  34.6692681  80.2769279  71.2762880  33.5590339  80.2831936
  33.4281492  86.8994331  81.0675335  34.2281961  86.3850880  80.9598255
  33.7367463  87.7868080  81.2507725  97.9218483  16.9290042  55.7126379
  97.5592709  17.7085817  56.1333895  98.8224888  17.1705055  55.4964066
  16.2913239  84.1359901   7.6158023  17.2161078  84.3351841   7.7618450
  16.1858153  83.2401276   7.9360157  23.5409164 103.1766701  54.7044134
  23.8413763 103.9320278  54.1990423  22.6082015 103.3387756  54.8458242
  65.7467985 106.8158817  49.1323233  66.5142012 107.3717213  48.9968014
  65.0903654 107.4016476  49.5094156  85.0335693   6.2865067  67.6522684
  85.2199078   7.0735288  67.1403027  84.4265270   5.7849252  67.1080780
   6.4015514   6.7919010  71.2673950   5.5962288   6.8420619  70.7524490
   6.1040932   6.7855591  72.1771812  88.7415791  21.0577250  87.5419998
  88.9744854  20.1541543  87.3285770  88.3489418  21.3999343  86.7389107
  79.9151325  20.0221777  49.8362970  79.3283176  19.5013022  49.2880535
  79.9440432  19.5524418  50.6698084  43.3744955 106.5415192  58.2553434
  44.0412569 107.1598244  58.5542822  42.8401947 106.3717937  59.0311956
  86.5649033   7.8043801  70.1190376  86.1330223   8.2246190  69.3753242
  85.9255695   7.1678430  70.4388905  14.0446162   1.7711052  54.2338228
  13.2931828   1.6939652  54.8217249  14.4916856   2.5677061  54.5198059
  67.3151350  25.4159212  34.0137291  67.1127129  26.1970830  33.4989071
  66.6405916  24.7838759  33.7652421  99.3061924  36.3552928  57.0778561
 100.0368881  36.6275382  57.6330137  98.5758686  36.2354803  57.6848984
  76.1071873  23.1556320  48.8354921  75.3355694  23.6610603  48.5798025
  75.9986258  23.0118895  49.7755909 104.2613029   1.3837399  52.4680042
 103.5141468   1.3717085  53.0662060 103.9071846   1.7313416  51.6494608
  39.9730301  97.3210430  71.2409496  39.5975375  97.1220875  72.0986509
  39.8671770  98.2677078  71.1468983 102.1975994  82.3953438  73.4850883
 102.7680397  83.1600285  73.4070349 102.7920151  81.6468525  73.4334707
 108.3497429   4.5979020  30.1911139 107.6018906   4.7420639  30.7709122
 108.6737537   5.4769957  29.9950504  97.0845318  29.8210025  48.8320303
  96.9648361  30.7193375  49.1400862  98.0122089  29.7682381  48.6021233
  73.1938887   8.4529817  66.8002796  72.5407887   8.5113823  66.1029387
  73.2473707   9.3410838  67.1533298  72.3996449  35.7416844  81.7433739
  71.5236855  36.0435843  81.9837475  72.9134703  35.8343792  82.5456333
  65.2523327 103.8369465  72.4991083  65.5721378 103.1461620  71.9187880
  65.4020357 104.6472740  72.0120907  98.3653164  31.1069608  29.3054843
  97.6947880  30.6865811  29.8439074  98.4418964  30.5437469  28.5353184
  72.4344063  20.8965778  62.5804663  72.7260208  20.9921288  61.6737890
  72.0648861  20.0145340  62.6215219  61.8078709  12.1861100  67.5489950
  62.4427557  12.2064483  68.2650518  60.9583473  12.1138132  67.9840994
  99.3075848  36.3398981  42.8632164  98.6624432  36.8489766  43.3539963
 100.1002693  36.8761086  42.8818941  98.6575222  63.4841347  58.3200169
  97.9176807  63.0131006  58.7034130  99.1357517  63.8322496  59.0725756
  86.9624901   9.4891518  14.0737355  87.9019356   9.6722847  14.0618873
  86.8399239   8.8223338  13.3980417   2.5816983  65.2030659  82.7212048
   1.9769432  65.6713533  82.1456909   3.0107284  65.8917093  83.2290745
  15.1722193  23.0752873  67.8005934  15.2572727  24.0175891  67.6554585
  14.8612380  22.7311015  66.9633007 107.6708508  17.0453191  82.1082211
 108.2326508  16.2791264  82.2246838 108.1847382  17.6379502  81.5596390
  86.6064835  96.3977242  68.4149694  87.1954346  96.2477970  67.6754570
  87.0700359  97.0280266  68.9663839  89.3077087  22.4434781  58.6420488
  89.9344826  22.9908371  58.1689930  88.6520767  23.0589104  58.9700985
  53.8507986  15.4919136  32.6891017  53.8726330  16.3912022  32.3619413
  54.7677183  15.2172565  32.6960826  81.2814426  32.5892425  57.7303743
  81.8947411  32.5315070  58.4630108  81.1499977  33.5285759  57.6015043
  36.3514566  95.1621056  58.0087852  36.4255929  94.8295403  58.9032888
  36.5696192  96.0913944  58.0799007  30.6008887  46.9083405   3.1547228
  31.2331891  47.3911619   2.6224500  31.1121225  46.2047672   3.5545453
  78.6104679   9.0342504  67.8907299  78.6794329   9.9155027  67.5234842
  78.4080791   9.1753542  68.8155842  75.7343626   1.3325779  62.5240374
  74.8265457   1.3638422  62.8259039  76.1245346   2.1419209  62.8541231
  40.9417295 107.2444916  28.1911969  40.8935547 106.8242455  27.3325324
  41.8564701 107.1456909  28.4552288  96.1453533   7.3357254  16.1946774
  96.0783100   6.3818121  16.2369394  95.4378605   7.6507133  16.7572320
  36.3092041 106.5492344  41.2759209  37.1086526 106.1815929  40.8991623
  35.6311393 106.3642979  40.6261063 100.1347446  16.1401784  79.7999048
 100.0714016  16.3149881  80.7388687 100.1913071  15.1867199  79.7370625
  98.8150120  28.4304452  74.7009087  98.4533310  28.2912731  75.5761528
  99.2222404  29.2955852  74.7448254  93.0942631  71.8258286  10.9937310
  92.6323128  70.9945440  10.8851016  93.1709290  71.9351578  11.9415724
  94.6890259  40.6908703  74.2235279  94.0084743  41.3315439  74.0170956
  94.9488163  40.3351545  73.3736992   8.1778693  42.6049900  44.1393423
   8.2939702  41.9628096  43.4390926   9.0404099  43.0074787  44.2406416
  69.2431688 104.9847221  62.6803637  68.7938738 105.7020664  62.2334051
  69.2820406 105.2601337  63.5962582 100.5869102   3.9474392  78.2453203
  99.9686909   3.6368743  78.9068222 100.5415821   3.2923830  77.5488472
 101.6308022  28.3841467  50.8619261 101.0299015  27.8953409  51.4242601
 101.9872570  29.0677071  51.4293098  85.3863049  84.4609928   4.2604607
  84.4369984  84.5817757   4.2392311  85.7160950  85.2350712   4.7168264
  78.5960627   2.5850448  68.5060358  77.8467989   2.7585667  67.9361868
  79.2983627   2.3306353  67.9074669 109.2103481  11.1581004  62.6181269
 109.0574455  11.1027467  63.5614109 108.5063839  10.6381166  62.2304583
  59.0961504 104.5995522  57.9148912  60.0029230 104.8331070  57.7162647
  58.7195730 104.3598843  57.0681429  72.3809004  18.5680437  44.7676373
  72.6641512  18.1363189  43.9616489  72.2300434  17.8507781  45.3832722
  19.1185713  96.0161972  95.2655411  18.7216210  95.2215290  94.9089336
  20.0524783  95.8135986  95.3203487  77.2402430  18.4518492  83.1607056
  77.7360106  18.9586449  83.8038349  77.1863174  17.5737083  83.5377884
  27.2849298  99.5468044  75.3848839  26.4779639  99.0360260  75.4492903
  27.6150012  99.5873642  76.2824583  61.5710545   7.1834624  69.9664736
  61.1204720   7.9962772  70.1956892  61.8984747   7.3330307  69.0795374
  20.5198646 104.8209667  48.7865067  20.8497047 103.9250660  48.8557768
  19.6529102 104.7889519  49.1909790  63.2912445  15.2979183  74.3630266
  63.5470343  15.8341455  73.6125135  63.5023785  14.4020092  74.1003418
   6.4732563  23.9656687  90.2173519   6.7979687  24.0217710  91.1160374
   5.7056427  24.5373511  90.2039051  12.2241640 102.1653652  47.2837257
  12.6364660 101.9844627  46.4390278  12.1185696 101.3041973  47.6880264
  96.4717007  25.7516408  61.3624573  97.0769119  25.1039076  61.7235661
  96.9422340  26.1315942  60.6205225 112.9680729  22.4943209  56.2738466
 112.2595596  22.4390745  56.9150829 113.6690903  21.9583488  56.6447115
  86.4186192   3.8118148  39.0682483  86.6351604   4.7152838  38.8378429
  86.8683243   3.6623657  39.8999095  58.8081169  48.0435991  69.2422104
  58.5128546  48.2750511  70.1228237  58.2118940  47.3480606  68.9647675
  90.7295799  34.1251874  67.0824051  90.3614140  33.3922124  67.5757933
  90.0545788  34.8027825  67.1206856  92.1908474   7.6853764  69.3235302
  91.6479397   8.4103221  69.0137863  91.5636253   7.0123124  69.5877552
  77.1010208 111.1150932  94.7531700  77.7132034 111.8010330  94.4867992
  77.1575260 110.4602146  94.0573406  79.6691418 110.8469200  72.9749298
  79.1308022 110.0558853  73.0012560  79.5774317 111.1693192  72.0783329
 113.8615608  18.9956117  76.8752956 113.1878948  18.4105921  76.5286589
 114.0875626  18.6224294  77.7272892   9.5994890   8.0095983  43.6289692
   8.7913406   8.1480986  44.1228771   9.8824888   7.1288598  43.8748217
   4.3815666  96.8759823  13.4156322   3.4954217  97.0835400  13.1191599
   4.9120998  97.6164627  13.1216061 100.3263092  47.0491123  83.7928581
 100.5633736  47.4018431  82.9351807  99.8933411  46.2178278  83.5986042
 102.8612709  99.3048191   6.2920982 102.1817398  98.7388515   5.9258282
 103.2021999  99.7877693   5.5392629  82.8763390  20.8599520  70.7914114
  82.1702957  21.5018058  70.7155037  83.3330917  20.9058571  69.9514723
 105.6685638  22.9134798  46.7577934 104.7177601  23.0225515  46.7400980
 105.9094524  23.0598450  47.6725483   3.5471290  49.8569012  43.9368963
   4.3459946  49.3335724  43.8722897   3.4510258  50.0327349  44.8728848
  96.3885593  28.7062597  61.9273520  95.6962585  28.3891582  61.3473511
  97.1904373  28.3172917  61.5781593 112.3630714  37.4602699  43.4085989
 112.8980446  37.8074455  42.6948023 111.8009186  38.1916356  43.6641788
  71.9659138  71.3970709  16.0974979  71.9352245  71.3861227  17.0541430
  72.7716684  71.8698931  15.8891046   3.0505890  46.6702175  65.8127069
   2.4673396  47.0709991  66.4572430   2.5616869  46.7086744  64.9906826
  52.6092768 108.6117172  63.9426899  52.0919991 109.3191719  63.5577583
  53.2534885 108.3924198  63.2695436  31.7683363  98.3919907  79.4843292
  32.4651027  98.3549500  78.8290644  31.0315585  97.9369545  79.0764856
 105.4320717  11.6763294  66.6946602 106.2871265  11.4109147  67.0332813
 105.3967190  11.3027692  65.8140755  87.3527431  32.2596455  64.1667223
  86.6010571  31.6764283  64.2718506  88.0495930  31.8464971  64.6765661
  90.4703522  46.9624996  87.5250912  90.6092072  46.9573450  86.5780258
  90.5286598  47.8858137  87.7706909  24.6007776  63.2953501  67.4494600
  24.8315954  62.6407337  66.7903423  24.3396187  64.0640497  66.9423819
  79.0687370  96.7769909  40.6784391  79.2782211  97.0767307  39.7938466
  78.1776428  96.4341259  40.6104088  74.7730207  21.7120051  44.3161583
  75.3565550  22.3898792  44.6570539  75.0067520  21.6378951  43.3908987
 115.9797478   6.3411605  40.2358437 116.3582420   6.1827862  41.1006498
 115.7861900   5.4677004  39.8954964  11.4601910  29.6848392  83.7215519
  11.3786435  30.4263186  84.3213749  11.0072732  28.9673758  84.1646576
  92.7735519  30.0997114  39.6992946  91.8337536  30.0833845  39.5183301
  92.8334427  30.1052880  40.6546021  44.2477226 109.8310471  55.9202051
  44.7885847 109.1558361  56.3298273  44.8277569 110.5886078  55.8434010
  99.3609810  45.5787754  89.4930458  99.0501785  46.4418125  89.2195511
  99.4275665  45.0792217  88.6792660 103.1978893  10.8007693  47.6441717
 102.5238419  11.4278984  47.9060888 103.2571125  10.8958769  46.6935492
 115.1452923  25.0443554  68.3677816 115.3698826  25.4182315  67.5157213
 115.4527283  24.1390944  68.3206654  19.3766379   2.1036163  49.6951151
  19.2619479   1.2281965  49.3253613  19.7896421   1.9523112  50.5452681
 109.3593597  21.0201359  55.4719210 109.3461323  21.9317842  55.1804495
 109.1625214  20.5138230  54.6838045  79.9975777  21.8489051  75.8488560
  79.3421078  21.6869354  75.1703596  79.5450592  21.6559553  76.6699743
 115.9439087  45.2249622  62.5851488 115.3397846  45.6862116  62.0033264
 115.5668163  44.3499851  62.6770830  31.1080003  31.8705702  72.5480986
  31.4772844  32.3744702  73.2733202  30.1740146  31.8109679  72.7489758
  94.9764919  23.9106655  53.1392622  94.0262032  24.0101528  53.1966352
  95.3193378  24.7904158  53.2964945   8.2439345  14.6841538  89.6394825
   7.9906452  15.4857850  90.0971508   9.1842729  14.7811007  89.4891548
  33.6338854  68.5637712   1.0945576  34.4793415  68.2305336   1.3952035
  32.9968262  68.1779385   1.6958208  94.1846085  15.4416358  92.2034264
  94.3049431  14.5098400  92.0203686  95.0584984  15.8197534  92.1055889
  61.4689112  38.9167309  61.0432148  61.3233185  37.9730749  61.1106586
  60.7939053  39.3036747  61.6007757 116.8141842  38.1629610  80.1263237
 116.4711666  37.4949574  80.7199097 116.0528946  38.6983395  79.9026537
 110.7267475  31.0541344  53.8929081 110.4574203  31.5921736  54.6373606
 110.6915188  30.1557827  54.2214727  16.7559147  37.9474521  80.4257870
  16.8298984  38.7161827  80.9912968  16.9098532  37.2048068  81.0097504
  95.1759911  21.1776638  67.3966885  95.9246922  20.5812716  67.3988533
  94.4452095  20.6435394  67.0853996  96.8006516   6.7272294  58.1935692
  96.2112236   6.1739993  57.6809788  96.2219048   7.3475564  58.6368227
   9.6802503  37.5964022  79.1965389   8.7678903  37.8858972  79.2015600
  10.1369858  38.2530141  78.6707211  72.5563812  84.3424511  96.1667633
  71.8942642  84.7974300  96.6871834  73.3211994  84.2954159  96.7404175
   2.4420887 104.9223232   4.3393713   2.4732560 104.6777725   3.4144610
   2.5543404 104.0961075   4.8094758  90.7292461   8.5447818  36.1523938
  91.0184669   7.7362746  35.7294321  90.3940678   9.0834117  35.4356241
  24.8270631  81.7602730  28.6658478  25.1574159  82.5505161  28.2385159
  24.8039556  81.9830608  29.5964742  23.9135528  83.8001537  58.6820793
  24.2234731  84.5022964  59.2540646  24.6289396  83.6639214  58.0608749
  94.1062546  37.9509234  57.2907877  93.5921288  37.3147655  57.7879953
  94.0830994  38.7460947  57.8231382  94.9310493  46.2466383  88.4292316
  95.6571960  46.0821247  87.8276634  94.3563557  46.8457603  87.9527760
  99.0478897  46.5702581  30.1795316  99.1167927  46.3595915  31.1107159
  99.4029140  47.4562597  30.1075053  83.0091190  29.7582483  95.4101849
  82.6091957  30.3007388  94.7304821  83.8365078  29.4662142  95.0275803
  66.3160860  14.8229737  95.9239409  67.2627794  14.7589011  95.7979003
  66.1397230  14.2816491  96.6934199  73.9319849  35.4193521  90.7329273
  74.3544817  36.2012768  91.0883427  73.0071354  35.5243826  90.9562111
  98.8585854  35.3098989  69.4743109  99.6096897  34.8367405  69.8323393
  98.8606930  36.1478591  69.9369669 103.7459660   7.1190506  58.3906174
 103.8570881   6.8562555  59.3043041 103.7369156   6.2949550  57.9037714
   0.1572585  30.2248073  94.9732590   0.9493034  30.3827667  94.4595051
  -0.2672938  31.0809422  95.0282097  93.8801956   6.7506629  67.2910976
  94.3086624   7.5306129  66.9385052  93.2967663   7.0851564  67.9722452
   5.6875062  31.3159609  86.0758305   6.5390998  31.0676932  85.7161331
   5.3087473  31.8965435  85.4157543 111.8834591  28.4774351  43.1823540
 111.3982773  28.5738778  44.0018225 112.2391129  29.3493414  43.0105448
   0.0267207  31.9374061  55.1159191   0.4639613  31.1578298  55.4584312
  -0.2418626  32.4234056  55.8955956  36.2955856  84.7366905  12.9962659
  37.0359302  84.1880989  12.7370822  35.5328035  84.3091393  12.6069081
  52.8479910 100.8125401  42.2406721  53.1220675 101.7199707  42.1077013
  52.0226526 100.8795357  42.7208424   4.5197666  18.4848654  34.0139890
   3.7351143  18.2303512  34.4995570   4.8094925  17.6784754  33.5873461
  76.5522289   2.3045650  51.1732340  76.3695765   1.5321578  51.7082644
  76.5673637   3.0301312  51.7973804  94.9335289   3.7264559  87.9401779
  94.0724277   4.1088736  87.7713585  95.1493359   3.2571593  87.1343136
  16.6870618  41.5430927  42.9663181  17.0189524  40.6634903  43.1462622
  15.8700609  41.3978577  42.4891949  99.0149403  35.0925970  78.5129070
  99.6376133  35.0974631  77.7859306  98.4660816  35.8624053  78.3633137
   6.7584580  43.0010986  39.1114426   7.5061190  43.5986710  39.1234088
   6.4661008  42.9649925  40.0221872  46.9114590  89.7963619   3.2024342
  46.7565918  89.9703789   4.1308552  47.6990080  89.2524719   3.1888101
  93.3017349  97.1648693  12.9992068  93.6206532  97.8829479  13.5459125
  93.8381004  96.4138985  13.2533371 107.5187111  10.4759169  86.4168262
 107.0883369  11.2174726  86.8423939 108.0870724  10.1082349  87.0935822
 107.2281075  34.0360832  77.8882980 107.6630878  34.8827267  77.7872181
 107.1010208  33.9433193  78.8324785  82.5908089  34.0527916  66.2531281
  83.3313942  34.1362309  65.6524515  82.7481365  34.7197771  66.9214153
  91.3497829  44.5204878  91.1214161  92.3033428  44.5959234  91.1571121
  91.0407066  45.0355482  91.8666744  50.9285021 106.6766548  54.3459845
  51.3726330 106.0828876  53.7406588  51.6334629 107.1964264  54.7321129
  21.5271258   8.4618014   1.8187650  22.4520421   8.2409424   1.7093138
  21.1400723   7.6818687   2.2164159  62.0807028 108.3813572  76.3673639
  62.3139000 107.8560066  75.6019497  61.1263800 108.4463120  76.3315630
  81.4077663  35.4946232  57.0627642  81.3707638  36.3982940  57.3762035
  81.8056297  35.5583692  56.1945057  12.9481292   4.7212443  55.9464598
  12.4920416   5.0387031  56.7258406  12.5853610   3.8484013  55.7955408
  89.6505356   2.4847744  52.7111483  89.5936871   3.1621921  53.3850193
  89.9757862   2.9439345  51.9367981 112.1664524  41.8442059  55.9090376
 111.4655018  41.2622023  56.2025928 112.9212570  41.2680960  55.7881880
  20.6714797  65.7007504  11.4587295  21.3896465  66.2946033  11.2400770
  20.0417662  66.2487078  11.9271731  25.1116991  89.4532204  10.5540848
  24.5221186  89.4317627  11.3078523  25.2825356  90.3839684  10.4100502
  86.2509060  53.3099127  88.4822559  86.2792110  52.6865196  89.2080784
  86.7545891  54.0622568  88.7929249 103.9347458   7.3646963  44.8589230
 104.4128323   7.6536739  44.0816450 104.3591309   7.8219455  45.5849028
  47.9749680  15.9908855  74.3473768  47.5904465  16.7667413  73.9394283
  48.5260296  15.6092215  73.6640787  13.7791550  36.2293005  65.8488035
  13.2616329  36.8511176  66.3604116  14.2918813  36.7766714  65.2540541
 104.6886826   5.9494346  84.2777252 105.3665638   6.1609536  84.9195766
 105.1116848   5.3373647  83.6754990 100.2990627  40.1455879  94.1608047
 100.3323555  41.0725546  94.3971348 100.5251408  40.1272345  93.2308674
 118.0027866  32.0648670  66.3152647 118.3416271  32.7536750  65.7434559
 117.1010303  32.3281312  66.4989758  13.1767464  38.2458901  69.6503973
  14.1222548  38.1013513  69.6136093  12.9952919  38.8320303  68.9157200
 115.5792999   3.8482186  78.5881042 116.4780998   3.5562688  78.7402391
 115.5300331   4.7038990  79.0142679 110.3284550  11.7797327  89.8160553
 109.5284081  11.6044128  90.3114414 110.9687424  12.0384288  90.4788876
 100.7563019  52.8551817  41.1877298 100.4579258  52.5564194  42.0467663
 100.2665901  53.6626673  41.0315895 106.4869213   7.6930219  51.6086388
 106.7222691   7.6855266  52.5364256 105.9305668   6.9222349  51.4964390
 112.1100903  33.7857008  78.2074881 111.9938087  33.6756563  77.2637701
 111.6555595  33.0370688  78.5937214  76.5924549  19.9641955  71.6711140
  76.3732624  19.4861865  70.8713055  75.7460308  20.1579809  72.0739126
  91.3239670  12.0736837  78.6109591  90.9653282  12.9448891  78.7801123
  92.1447086  12.0528376  79.1030788 118.1452454  45.7312822  72.7580070
 117.9946878  45.0933743  72.0604134 117.2787966  46.0942364  72.9417515
  92.9910374  27.6271868  60.8378887  92.6243401  27.3380780  61.6734600
  92.5255680  27.1102262  60.1803732  87.1121693  17.1602690  75.8854675
  87.2218990  17.5923228  75.0383997  87.5679970  17.7294886  76.5054989
   9.6202981  35.3594661  77.6309586   9.6766829  34.7061992  78.3283091
   9.7503394  36.1968231  78.0761051  86.0605621  35.4244280  82.1092892
  86.7726326  35.5362701  82.7391052  85.4513073  36.1354995  82.3078251
  58.7098742  11.6460335  49.3657064  59.1067362  12.5034809  49.2123556
  59.0687275  11.3629818  50.2067423  80.1939392   8.4526640  75.2480268
  81.0795975   8.8157052  75.2427769  79.7332573   8.9547414  75.9202814
  96.8799246  -0.0638058  61.1427689  96.0978210   0.3575275  60.7863569
  96.7811382   0.0115536  62.0918703  85.7314205  41.9442129  73.8434362
  86.1131668  41.8169117  72.9749346  86.4779186  41.9048977  74.4412899
  82.1986675  16.1364841  95.5774403  82.7644539  16.6581059  96.1466694
  81.3320255  16.5311396  95.6744480  31.7069459  57.0503807  63.2092190
  30.8017397  56.7578888  63.1030083  32.2321987  56.3475990  62.8265476
  88.3905506  23.3711791  80.4247189  88.1009293  23.3437419  79.5127916
  89.3463135  23.3748245  80.3724670  87.3424053  23.9098740  53.5224485
  87.6887703  24.4908023  52.8451157  87.0336151  24.5004535  54.2095423
  81.1173248  22.8656864  62.1597672  81.2929344  23.7125468  61.7496204
  80.1954460  22.6933885  61.9682693  33.3166194  81.9351387   1.5412487
  34.0138197  81.9524384   0.8856251  32.5299788  81.7019367   1.0482509
  82.1972656  79.1233969  65.1037502  81.4312649  78.7201691  65.5122614
  82.8341389  79.2016935  65.8140230  62.8687382  90.9424400  68.7656307
  62.0031929  91.0471630  68.3705425  62.9176378  91.6366863  69.4227982
   3.2926866   6.1669803  94.6766567   4.1254050   5.9692800  95.1052952
   3.4325689   7.0187217  94.2628956  37.4321508   5.6935203  73.8111353
  37.3422551   5.9440094  74.7305918  36.8612957   6.3008708  73.3405161
  73.8606167  11.8924105  50.0039339  73.5326862  12.7883053  50.0818300
  74.7666693  11.9416571  50.3086948  92.8404617  17.9386687  82.4478054
  91.9604683  18.0956936  82.1054649  93.4252834  18.2455921  81.7549706
  88.9791489  26.6839409  61.7419243  89.0072632  27.6213193  61.9336653
  88.7210655  26.2778449  62.5694036  93.8243008  49.2988873  80.2537632
  94.7734547  49.3273211  80.3743649  93.4712791  49.7378159  81.0276794
  69.3142509  24.7276068  66.1837006  69.7257757  24.0353012  65.6664085
  69.2581511  25.4725647  65.5852652  30.6948400  91.1229324   6.6439825
  31.2359023  90.4159355   6.9956028  29.8422694  90.7168961   6.4874750
  16.3251436  16.6911614  86.4844608  16.8476927  16.4779830  85.7113361
  15.7107961  17.3597252  86.1814213  89.2704201  11.2804782  59.0485764
  88.5324001  11.6087198  58.5349512  90.0387669  11.4634633  58.5078478
   2.6922938  19.0852964  85.9379673   3.4803927  19.1072559  86.4807796
   2.3755944  18.1850326  86.0118389  97.8482437  19.8554349  71.9867706
  97.7105999  20.2562141  71.1284828  97.7989006  18.9137971  71.8221045
  19.2304599  94.4479561   6.7514175  18.3424139  94.4322777   6.3945407
  19.3748569  93.5582447   7.0735985  18.9176273  64.7566509   0.7522210
  18.8545322  65.3248930  -0.0154701  18.1721890  65.0074768   1.2977850
 112.2755909  42.0888853  43.2557058 111.3424492  42.3017263  43.2427692
 112.3026371  41.1337185  43.3119631  51.8175840  31.2163615  57.1579933
  52.0131159  31.8310070  56.4507389  52.2185040  31.6084433  57.9337311
  76.8653154  19.8628533  57.6135111  76.3067770  19.7977602  58.3881283
  77.6561022  19.3766165  57.8468847  91.9345379  36.1697507  83.5051918
  91.4640522  35.3407693  83.5927677  92.7802563  35.9265447  83.1285858
  58.3370590  44.9365473  74.8480415  57.8711462  44.8995352  75.6833792
  58.9730310  44.2228222  74.8966789  79.3783760  52.2419739  79.3335867
  78.7940741  51.4849329  79.2922020  79.4360018  52.4493456  80.2662754
  90.5230522   7.4384487  64.0056276  90.2025700   6.6527516  63.5626745
  89.8104954   8.0712986  63.9162111  86.6002274 104.7149086  76.5939808
  86.9239044 105.5009842  77.0339251  85.8346939 104.4523907  77.1051407
  40.1390553  88.6408901   7.0523202  40.1368761  87.7055264   6.8490642
  39.5448542  89.0271854   6.4089441  35.8544922 102.8246784  80.2555275
  36.4584017 102.1106911  80.0512218  35.3667212 102.9654026  79.4440413
  10.0342751  82.7272034   1.1488649  10.7179940  82.1158123   0.8750576
  10.4806805  83.3394718   1.7337357  37.3862791  92.3757648  51.9971085
  37.5939894  91.5199661  52.3722172  36.8484354  92.8048134  52.6625967
 101.1071968  28.4497237  67.9325819 100.3840637  28.4940362  67.3070097
 101.1440849  27.5288606  68.1911945  75.2519274  33.0331326  92.1858406
  74.6958160  32.3596406  91.7941952  75.2369547  33.7527990  91.5548992
  80.0500202  32.0172977  87.3261166  80.1446247  32.0312047  86.3737011
  79.6911955  31.1510134  87.5185394 106.3681030  21.5421677  93.6981487
 106.3508892  21.6956878  94.6428013 106.4735508  20.5947614  93.6113453
  38.1887174   0.7568371  45.8054638  38.3471775   1.5557516  46.3083124
  37.3851395   0.3944501  46.1785173  67.4750853  76.5999079  80.3598309
  67.8672171  76.6422415  81.2319946  67.6272678  75.6997108  80.0722408
  98.8677406  19.1351199  89.5394993  98.1457329  19.4226825  88.9807129
  99.6050453  19.0230882  88.9394474  76.2606192  18.6754739  78.4694004
  76.2888527  18.6106694  79.4239855  75.5489540  18.0900240  78.2105350
   2.0760867  25.1001501  80.8891392   1.4083566  25.7058644  81.2108135
   1.6214354  24.5666146  80.2373219  35.9282470  23.7495303  74.9156427
  35.6831026  23.0432105  74.3179417  35.2235436  23.7708282  75.5630779
 107.9803753  71.0537148   5.9834701 108.3361816  71.8270397   5.5457503
 107.4806976  71.4044523   6.7207235  90.7371902  17.1080458  84.2657280
  91.5963554  17.5001597  84.4216537  90.4642868  17.4584985  83.4178257
  24.5163536  82.4707508  10.8994579  23.5658669  82.3711681  10.9532011
  24.7266412  83.1252766  11.5654910  59.7796679  28.6003208  52.6809645
  60.1426935  29.3334603  53.1779051  58.8774252  28.8603854  52.4950552
  89.8500443   4.5708227  79.7418785  89.6726418   3.9199510  79.0628147
  90.2468872   4.0707722  80.4551125  77.9134417  44.5539236  64.4981718
  78.3284903  43.8351393  64.9749470  77.8704691  44.2472839  63.5924387
 109.4878101  51.9280672  50.5680323 109.7150421  51.3329792  51.2825060
 108.9001560  51.4187956  50.0098753  88.3989525  33.4951401  75.8498955
  88.0351162  34.3421650  75.5922079  88.7677860  33.6475921  76.7199278
 114.3916130  36.6331840  85.6736183 114.4748783  36.0985851  84.8839951
 113.5091686  37.0004630  85.6222439 110.8631897   1.1984251  60.4322100
 110.8650112   1.7777973  61.1941481 111.1596489   1.7519315  59.7097301
  39.9339700  33.5869765  62.7428722  39.7390389  32.9859042  63.4618616
  39.6630478  33.1146121  61.9556618  31.2855601  57.3815870   5.9437966
  30.5309725  57.0257282   6.4130443  30.9168720  57.7473736   5.1397443
 109.7660828  24.2595744  77.0143843 109.8120308  23.4307575  77.4910212
 109.8231888  24.9305558  77.6946449  51.2191916 108.1541729  91.3033962
  50.9998083 107.5688171  90.5785084  50.8247232 107.7419090  92.0719528
 100.1288605  27.6120472  86.3438606 100.7036877  27.2612929  85.6635857
 100.6468487  27.5570822  87.1469116  81.6202164  26.3049269  83.8026905
  82.2536755  25.7979989  83.2947731  81.4320755  27.0686436  83.2571888
  55.2300167 103.6756516  50.4967976  55.1688242 103.3105850  51.3795280
  54.3877745 103.4672832  50.0925159  33.2448459  78.1863880  46.7517138
  33.6254430  78.1143188  45.8763933  32.4373055  77.6746321  46.7046356
   6.7825621  26.2513018   4.7106275   7.1343392  26.9809675   4.2006519
   6.0878909  25.8880877   4.1613200  84.4683075   4.2285523  48.6917591
  84.9787331   4.6210131  49.4000435  84.4643688   3.2920742  48.8898087
 104.3959808  57.1264982  23.7233925 105.0271130  57.8461456  23.7197614
 103.7939835  57.3322678  23.0082011  23.2753110  31.0794878  77.8946304
  23.8277841  30.5239844  77.3447037  23.7014985  31.0676599  78.7516308
 103.5033607  14.7632992  28.3997726 103.0447102  13.9333296  28.5302305
 103.8857079  14.6907759  27.5252533  86.5007019 101.5826130  92.7308846
  86.9010448 101.7482662  91.8773556  87.1044922 100.9805584  93.1658554
 105.6098461  26.6439986  27.1910644 104.8522091  27.2189021  27.0829034
 106.1431026  26.8013740  26.4118958  48.8046312  28.8655257  11.3321233
  48.4109116  29.7369313  11.3753068  49.0531826  28.7602448  10.4137707
   2.2063340  44.4313049  75.3655243   2.1469112  43.8668728  76.1363125
   1.8006428  43.9220381  74.6638870  44.9146605  61.7431450   2.3060118
  45.7682085  62.1267509   2.1046710  44.3060112  62.4810505   2.2703300
  61.7252874   6.6676676  60.6683350  61.5106964   6.3349766  59.7968435
  62.4086571   6.0785657  60.9880209 114.7641563  49.5099497  79.0722370
 114.7683144  50.4363441  79.3130779 115.6142044  49.1822910  79.3659735
  97.8514576  32.7770591  83.1423283  97.2233200  32.4267650  83.7739658
  97.6618099  33.7147522  83.1107903 104.1831017   1.8002461  55.8466864
 104.0287781   2.5574011  55.2817678 104.7750664   2.1245056  56.5254068
  24.2386961  46.0838699   6.8101507  23.9952183  46.8268776   6.2579829
  24.1465092  46.4102936   7.7052391  73.0765009  29.6377277  53.1223869
  72.3539972  29.5151377  53.7381744  72.6601696  29.6321750  52.2604895
  69.0839672  25.6369305  71.7642069  68.5958719  24.9037981  72.1390533
  69.7797203  25.8106160  72.3982382  33.8002944  68.3147240   3.9797941
  34.7300076  68.1895208   3.7895629  33.6003876  67.6539564   4.6428558
  64.5330429  13.4346128  82.4014854  64.4029522  12.6862240  81.8190479
  65.1365566  13.1143188  83.0718708  97.8790188  25.3972244  54.3560362
  98.0411625  24.6462107  53.7851429  98.7252426  25.5721998  54.7677755
  70.0443983   9.0473807  43.6306429  69.1447449   9.3686908  43.5705090
  70.5361795   9.7801894  44.0012836  81.5175247  45.5082989  81.2581158
  80.8169842  45.3605366  81.8934345  82.0786667  46.1659861  81.6689682
 116.7643547  51.8115520  14.5962799 116.0185242  52.1626616  15.0827956
 117.2648430  52.5843668  14.3345749  95.4261017  43.5021114  71.7416954
  94.5212460  43.6261511  71.4551830  95.8602047  44.3281460  71.5285158
 111.8500423  15.4403329  66.0086203 111.2087536  14.7434795  66.1477995
 111.9312382  15.8651519  66.8625355  58.9374208 102.2914696  88.2632828
  59.7297716 102.7538776  87.9901505  58.9821720 101.4503860  87.8085232
  33.0723262   8.4706908  54.5738697  32.4023414   7.7882606  54.5333767
  32.9607868   8.9643502  53.7614059 106.3540363  38.5207343  90.6970310
 105.4315567  38.3070278  90.8370399 106.3469696  39.4318604  90.4037189
  30.7828546  10.5209684  73.1807423  31.2020159  11.3704062  73.0429268
  30.4577684  10.2711570  72.3157883  28.3168817  34.5209169  72.5109720
  27.8948855  33.6729527  72.6492023  27.5908971  35.1398849  72.4331379
  17.8381217  41.2836361  13.0542254  18.0181754  40.3454256  13.1140256
  17.8778267  41.5932894  13.9590836 105.6165504  12.6621735  82.0730877
 105.8851719  13.0685163  82.8970718 105.6448841  11.7217720  82.2493649
  74.5107508  33.5688210  71.8185043  75.0435829  32.7765226  71.8861914
  73.9039660  33.3887649  71.1004353  87.5560474  29.4651341  59.4269085
  87.7128410  29.3942404  60.3685141  87.0374966  30.2638412  59.3299150
   1.1398315  14.5793331  54.6924114   1.7207514  15.3014493  54.4530106
   0.9501170  14.1396904  53.8635874  93.7258625  15.3601325  83.7711239
  94.5827675  14.9343050  83.7461948  93.9236355  16.2899184  83.8834476
  77.9677391  26.1348414  73.8924217  78.4830332  26.8076706  74.3374014
  77.2626162  26.6185951  73.4622908  92.7271652  19.7443473  27.3101401
  92.0118332  20.3755951  27.2323036  92.3176861  18.9629269  27.6815367
  88.0250740  26.1981177  57.9661942  88.0486965  27.0609260  58.3800030
  87.7440834  25.6056547  58.6635256  95.1667976  25.5112958  84.0223217
  96.0984135  25.7230544  84.0813351  95.1413441  24.5560312  83.9670467
 109.1402531  80.7105732  34.9586201 108.3235359  80.8810902  35.4277897
 109.8256397  81.0214329  35.5500937  65.9702492  67.8751945  74.8189020
  65.4830885  67.3026085  74.2264032  66.2094116  68.6294651  74.2802811
  25.3875613   6.2000751  75.5247879  24.4731903   6.1286396  75.7987452
  25.7266593   6.9490176  76.0150194   2.9159844  69.8051786  48.4949923
   2.1898133  70.2824926  48.0936480   3.5045433  70.4890347  48.8146257
 101.4257812   9.9009967  73.8690329 101.0939312   9.6016431  74.7154951
 102.3267746  10.1708603  74.0468454 100.0214386  63.4397459  75.5025434
  99.3351269  63.3433056  76.1627769 100.4390144  64.2753458  75.7114267
  17.5446808  55.4439116  73.1107283  17.6215923  56.3474417  72.8042173
  16.6273820  55.3561211  73.3697414  99.1565323  56.2698889  61.7655230
  99.6087837  55.7403708  62.4222660  98.2270050  56.1508131  61.9605207
  89.2236328  37.7973390  82.8736019  90.0043011  38.3479476  82.9337978
  89.1294575  37.6167464  81.9383144 105.6376171  61.5983343  86.0792828
 105.7395649  61.9945478  86.9446468 104.7495365  61.8340969  85.8110332
 102.8194904  29.5216084  21.7940187 103.2115078  28.6599946  21.6519809
 102.2576427  29.4057441  22.5602651 111.7091084  35.8330202  58.8674974
 111.9139957  36.4099669  58.1317091 110.7526970  35.8232450  58.9050961
  77.0365429  26.9083953  57.0603323  77.0012426  27.3541212  56.2139797
  76.5533066  26.0937357  56.9223309 101.8155098  41.1255693  69.6518612
 102.5940418  40.8379841  70.1287413 101.9186783  40.7512522  68.7769461
  86.5026855  53.6935520  61.6137600  86.1617184  54.3775368  62.1900749
  85.9897709  53.7797451  60.8101940 109.2108250  31.9304347  42.4692869
 109.5455551  31.4937544  41.6860247 109.7092628  32.7460265  42.5202894
  14.2823207  10.3780210  66.8417978  13.3396208  10.5337322  66.7843246
  14.4433057   9.6560603  66.2342739 106.2210655  35.8318162  68.9293480
 105.7813454  35.3284383  68.2441568 105.7033062  36.6330910  69.0075588
  87.7465439  56.1029434  93.8021278  87.3054504  55.9844160  94.6433353
  88.6625767  56.2588739  94.0318966  79.7012234  28.0291033  74.9283266
  79.6883440  28.5998845  75.6966162  80.6229591  27.7951789  74.8191595
 112.7817345  48.0066633  72.1906710 112.7724743  48.0553293  73.1465864
 112.3383331  48.8057280  71.9058609  17.4986780  55.0641298  68.9504099
  18.4094441  54.7941208  68.8327980  17.1874166  54.5414019  69.6894026
  83.8028145  47.1562576  85.7321548  83.5044289  48.0657625  85.7302570
  84.6224689  47.1741295  86.2261963  99.7441006  62.8995466  67.8994036
  99.2620564  63.6215401  67.4961901  99.4497013  62.1212435  67.4263239
  14.8617518  92.4628830   3.6325088  14.2920125  92.0039272   3.0152705
  14.7932255  91.9578362   4.4427317 117.6864338  41.0383749  78.7488842
 117.3396683  40.1499033  78.6676693 118.5327911  40.9265137  79.1817808
  92.1556187  25.5200052  74.5803738  92.9063225  25.2316928  75.0995588
  92.5275326  25.7505035  73.7290335  83.4361935  28.1833553  67.7273893
  82.6847172  27.6378965  67.9597807  83.0527306  29.0204000  67.4655819
  27.6588368 107.8809738   1.7961857  26.9249058 107.2929478   1.6178241
  27.3760676 108.7281990   1.4519848  99.2005825   9.8611492  54.7578430
  98.4388733  10.4390264  54.8034716  99.6546173  10.1260543  53.9578962
  82.4495697  38.4099531  77.2805214  82.0484066  39.1541767  76.8317127
  81.8422222  37.6851177  77.1322823  18.9541769  32.5416613  71.1560822
  18.2706165  33.1772232  70.9438610  19.7620618  33.0548191  71.1710024
   8.9667809  21.7275853  96.2678914   9.4708359  22.5412030  96.2542743
   9.3121683  21.2443919  97.0185367   2.6020074  41.4133167  66.4390135
   1.9058767  40.8652735  66.8013430   3.2368934  41.4956665  67.1506071
 112.6793957  31.3175654  85.4625607 112.9389381  32.1246648  85.9069157
 113.1123734  31.3635898  84.6101189   2.7137437  38.1598139  68.3671951
   3.5134816  37.6927900  68.6091471   2.6518229  38.8735485  69.0020037
  94.2172146  39.9511576  84.0442371  94.4665432  39.2608953  83.4297466
  94.1106510  39.4995070  84.8814297  88.1819248  42.8611040  79.8329926
  87.5735092  42.1327257  79.7083759  87.9722595  43.2022429  80.7024193
  96.5690422  24.8072791  66.0480309  97.3781681  24.4449973  65.6870747
  96.1858559  25.3043509  65.3253126  74.5934057  36.5190291  94.0263271
  74.4726133  36.6280770  94.9695969  74.1699219  35.6844211  93.8255310
  84.3614388  47.8854704  67.2382784  84.8465157  47.1096563  66.9571257
  85.0389481  48.5171700  67.4794865 105.1773548  41.3448000  94.2676353
 104.6565723  42.1225882  94.4677925 105.8219528  41.6463709  93.6275005
  13.5710192  28.1584096  82.4178219  13.0278158  28.7298775  82.9605770
  14.4135749  28.6094213  82.3637962   1.1533365  27.1621418  85.2039433
   0.1963796  27.1836376  85.2058029   1.3745779  26.3129115  85.5861664
  18.8044667  48.3106279  85.4298973  18.3810663  47.8993273  86.1834145
  19.7336137  48.3312941  85.6589985 104.1204929  47.6005602  87.8678131
 103.2580757  47.6299238  88.2820702 104.1239262  48.3470058  87.2686195
  57.7537107  12.2583234  10.3436136  58.0992270  12.0266283   9.4815415
  58.0137110  13.1710362  10.4684567 103.4506989  27.0179510  72.0258665
 103.2254982  27.4818182  71.2194300 102.6507950  27.0478559  72.5507307
   2.7341360  13.8471448  78.9167500   2.7211183  14.6330941  78.3705378
   3.6062443  13.8440728  79.3112755  53.8390398 109.5815372  61.6855526
  53.2148647 110.0146008  61.1032343  54.4890976 109.1977310  61.0970402
  28.7799430 109.8463345   4.7004727  28.2549357 109.0574932   4.8358756
  29.6629882 109.5196629   4.5280021  99.7467804  74.2897892  85.5398083
  99.8854637  74.3902636  84.5980549 100.1441956  75.0707150  85.9250927
  85.5424023  67.9754686  80.1195145  85.5726147  68.9320946  80.1056671
  86.2687588  67.7047443  79.5579529  15.2094924 106.1176586   5.4027998
  14.2601633 106.0578823   5.2958751  15.4009211 105.5617428   6.1581379
   2.1817075  56.4840221  87.5139427   1.2331225  56.3600540  87.4815369
   2.4769941  55.8928680  88.2064533  78.9235783  32.7718234  59.4527674
  79.6470118  32.5944662  58.8515854  78.6342096  33.6554098  59.2252302
  86.1602402  43.6083508  86.2985039  86.0499573  44.5588589  86.3230991
  85.9246731  43.3170366  87.1793461   9.0352648  97.2211456  17.9264772
   9.3245298  97.8378010  18.5990119   8.6123812  97.7689552  17.2651863
 116.5850353  18.7288892  70.5436850 116.7278957  19.3412209  69.8219728
 116.0513115  19.2175198  71.1702681  68.0785322  28.4977746  72.0559025
  68.2804632  28.5241771  72.9911900  68.3965349  27.6426649  71.7662621
   3.2045728  36.8727803  58.0985212   2.9848832  37.4938297  58.7929773
   4.0884280  36.5752077  58.3141184  72.2057152  57.1558428   4.9568459
  73.0518293  56.7088461   4.9339944  71.8477297  57.0360756   4.0772256
 105.0270844  21.9346046  65.9481573 104.3508720  21.3319111  66.2575626
 105.5009651  21.4400458  65.2795219  18.0305338  61.2352085  79.3657732
  18.7421882  60.8277750  79.8595142  18.4713399  61.8135405  78.7433195
   8.8794655  12.8017354  78.7013912   8.4575748  12.7562714  79.5593977
   9.8052555  12.6374459  78.8807058 109.3046188  69.2917728  46.7139101
 109.3805122  69.0132093  45.8012915 109.9578094  68.7690115  47.1790028
  15.9637380  25.9001732  83.3410072  15.2017891  26.1715746  82.8291416
  16.6436911  25.7333255  82.6882839  10.4054165   0.5378646  24.1469765
  11.2424266   0.6461891  24.5985436   9.9114913   1.3282093  24.3652081
  25.5828905  50.8902550   2.9206690  26.4634871  51.1984587   3.1346571
  25.7234597  50.0572300   2.4706222 106.6696739  32.4017882  68.2763004
 105.7339764  32.5410223  68.1303024 106.7171669  31.9674063  69.1279411
  81.9884396  54.2871857  68.7270689  82.3907471  54.8810625  69.3608570
  82.0034409  54.7717857  67.9017353 105.5867958  39.3266559  52.9937840
 106.2446880  38.8389683  52.4982357 105.2678394  38.7033153  53.6464310
  81.8962097  68.7405062  58.9067745  81.6501045  68.2654285  59.7004747
  81.5986824  68.1799936  58.1901646  90.8504677  49.0734768  68.9713335
  91.1599064  48.6468554  68.1722879  90.1037788  49.6008587  68.6875153
  21.1302638  42.3485136  81.2113667  20.9558105  41.8363762  80.4217339
  21.9501567  42.8056097  81.0241032 101.2414265  31.6128731  52.0170784
 100.4711246  31.1321616  51.7141247 101.7718601  31.7359257  51.2298489
 111.7244720  33.4594584  47.0923471 110.8005333  33.6554646  47.2477293
 111.7300320  32.9663038  46.2719822 101.2471294  32.2078276  40.0366688
 101.1950874  31.9665504  39.1118383 100.7846165  31.5054631  40.4938269
 100.6155491  23.4651852  30.6253076  99.7508812  23.0612302  30.6988502
 100.7303810  23.9370966  31.4501381 104.6272755  50.6776333  44.2456484
 104.2732620  49.8579931  43.9005470 105.4120255  50.8389473  43.7218428
   0.7662691  24.3029284  87.0024395   0.1695219  23.5784340  87.1901417
   1.6159093  23.8839889  86.8652058 100.5321026  43.1220007  64.9837351
 100.9656143  43.7024879  65.6093025 101.1899948  42.4580240  64.7774649
  22.1030474  50.4758215  61.9899368  21.4004850  50.0635195  62.4925756
  21.6902494  50.7285213  61.1641169  15.7147491  50.0153351  59.2714739
  15.8270752  49.2609644  59.8498726  16.3499427  50.6572056  59.5889044
  12.3801482 102.2518444  11.7574084  12.3322403 101.9031906  12.6475608
  13.2409739 101.9795227  11.4395213 107.9671478  39.6522689  69.3438196
 107.8742886  39.7420931  68.3953762 108.1695175  38.7263870  69.4780445
 114.3109703  63.0400419  74.4473648 113.5707474  62.7493477  74.9801016
 114.9763012  62.3633003  74.5722103 101.5974236  44.5867491  72.2318697
 101.0980225  45.1698732  71.6602087 101.1444759  44.6312046  73.0739498
 111.8349552  55.9283400  59.0507936 110.9847069  56.3448048  58.9098787
 112.1054935  55.6357145  58.1804991 104.1430378  11.8850005  55.0142908
 103.6083031  12.1292818  54.2588997 103.8026047  12.4195564  55.7316399
  18.7755585  60.2597666  63.9859438  19.7153890  60.3311157  63.8190365
  18.5786986  60.9956217  64.5655966 116.5222931  56.6478348  55.0364637
 116.0845661  56.4332676  55.8602285 115.8559799  56.4994812  54.3654585
  90.9321499  37.9365754  88.7719631  90.9252930  37.4136186  87.9702854
  91.7670441  38.4040141  88.7458897  72.1317768 110.1054192  70.4000187
  71.7195034 110.8394718  70.8554745  73.0712891 110.2651978  70.4895830
   1.9391321  47.4731970  44.4168377   2.0877124  48.4130239  44.3125343
   2.4062102  47.2446012  45.2204609 112.2254086  33.4574533  81.0727310
 111.9011307  32.5574350  81.0405064 112.8449249  33.5150146  80.3453255
 112.9006863  57.9565001  91.5260315 112.1758747  58.4284639  91.9360638
 112.6108551  57.8075838  90.6260014 109.8975277  30.0125360  81.3498688
 109.3334770  30.5932307  81.8606281 109.3070126  29.5965743  80.7217884
  76.7439079  67.2977972  70.0633049  77.0274591  68.0025005  70.6457329
  75.7878256  67.3288155  70.0976038 117.4352455  15.8276689  58.6365604
 117.3104954  15.2354145  57.8950024 118.3410645  16.1261141  58.5549831
  98.6907768  23.3658791  65.2126360  99.0842056  22.8360868  65.9060144
  99.4134998  23.5500693  64.6126556 117.9682350  29.4947982  83.9806461
 118.1250286  30.0479269  84.7459507 117.3698711  28.8165164  84.2939091
  86.8187809  50.4787302  64.3965960  86.6007233  50.5764580  63.4697008
  87.6297951  50.9753513  64.5055056  18.3338940  48.1411982  53.1412935
  17.5033367  48.3832884  53.5509253  18.8487279  47.7584314  53.8516903
  14.5317328  21.8734932  50.7147551  15.1003873  21.2630272  51.1840057
  15.0529778  22.6722097  50.6336069 117.8128529  66.6727114  57.3919392
 117.0961475  66.0434675  57.3106098 117.4554443  67.3736954  57.9370165
  88.0541515  26.0808754  64.1746140  87.8301907  25.1743412  64.3850183
  88.2898331  26.4709187  65.0163698 102.7106380  41.8825865  63.7994528
 103.4348488  42.5025415  63.8854885 102.5136089  41.8729210  62.8628016
   8.1463718  61.6208172  83.2628155   7.6173651  62.4008131  83.0955124
   7.7001053  60.9217310  82.7849483 106.0852623  60.4405117  62.4228096
 106.2565804  60.7678747  63.3058214 105.1778412  60.1372242  62.4516630
 115.0285530  40.4018354  90.9968758 114.7414589  41.2360096  90.6254482
 115.7301521  40.1094151  90.4150867  72.2776127   7.1525836   0.9085390
  71.8910122   6.9055939   0.0684393  71.5638208   7.0545924   1.5387221
   9.3504959  42.6506901  75.4759693   8.8470531  42.2183275  76.1657810
   9.7133195  41.9321299  74.9580336   3.3493099  66.1773157  53.2316637
   4.1462716  66.6660976  53.0263042   3.6575919  65.4043388  53.7046337
  11.4053428  22.4482250  73.7994432  11.0730803  23.1544089  73.2452440
  12.1974695  22.8088951  74.1977978 111.2086582  36.0650516  66.7189169
 110.3170967  36.3792396  66.5684652 111.1165333  35.1164365  66.8076420
  16.1989188  68.7394619   6.1491203  17.1282125  68.8399935   6.3553649
  15.7480836  68.9475489   6.9674599 107.2145176  58.0221796  36.7577887
 106.6090202  58.6930847  37.0732164 106.8590832  57.7587605  35.9089613
  20.4539871 108.7083435  66.8166780  19.9009049 107.9289722  66.8706894
  19.9919832 109.3663597  67.3360968  97.8259945  17.9903436  60.4402113
  97.1600437  18.5584068  60.0528574  98.6113167  18.5359967  60.4821301
  51.2645197 108.3645153   5.3181291  50.3897953 108.1065178   5.0274009
  51.2884903 108.1272316   6.2451440  92.6527500  38.4890532  71.4710331
  92.2505283  38.5883188  72.3339319  93.5319710  38.8533998  71.5732622
  78.0634451  28.9543366  82.4370575  78.1059885  28.2607865  81.7787170
  78.9780045  29.1813159  82.6052761  63.9295006  11.1240280  95.7695770
  64.0435219  11.9760275  95.3484726  62.9829502  11.0375273  95.8826923
  14.9780798  43.1721163  49.9190378  15.0291741  42.2323370  50.0935078
  15.0875628  43.5813665  50.7773876 100.2087498  47.3138952  43.4259033
 100.4425144  48.0632734  43.9736414  99.8864365  47.7028036  42.6128244
   2.6142165  49.4420576  91.1862087   3.2531330  48.8900614  90.7353020
   1.9588763  48.8281250  91.5176296 103.9486217  21.0994530  72.8114271
 104.2695141  21.7446876  72.1814013 104.7322464  20.8118439  73.2798862
  97.0387650  58.2023430  78.9221716  97.3250198  58.2261038  78.0090857
  97.0718002  59.1154671  79.2073727  38.0884957  20.1942348  63.4569359
  39.0085649  20.2730417  63.2049561  37.8180790  21.0898232  63.6594915
 112.8601837  24.0336800  45.5412436 113.4959793  23.3191347  45.5035353
 113.1563568  24.6532512  44.8744249 109.2354202  48.1740808  52.6841354
 108.4082127  47.9123783  52.2798252 109.1705513  47.8611946  53.5864258
  13.5902524  81.3642406  16.9163394  14.5126522  81.1681080  16.7521977
  13.4924388  82.2828579  16.6657388 101.0985088  40.6046629  51.6412544
 101.4929390  40.9026766  50.8215952 101.3937664  41.2395811  52.2938871
  12.7032471  50.4198980  66.1675644  12.5506938  51.3608837  66.0809374
  11.9833922  50.0150156  65.6837130 106.7420101  76.8058825  89.6211052
 107.5722313  76.7441559  90.0934887 106.0986900  77.0252609  90.2950859
 110.3093815  62.6616192  58.3480310 109.7773266  63.4490681  58.4623718
 110.5706692  62.4180746  59.2360878 112.2835255  64.2552328  43.0665684
 111.5779400  64.2432737  43.7132788 112.0404053  64.9544430  42.4597454
  82.4194431  31.7771387  65.0259113  82.7389050  31.2611008  65.7661009
  82.3283195  32.6641679  65.3739119  97.8568172  40.6722021  75.6056166
  97.1292400  40.1036453  75.8577967  97.4621391  41.3230848  75.0252581
  81.1580276  52.3173141  81.9207096  80.8557224  51.5382528  82.3875141
  82.0231342  52.0770836  81.5889072   4.8350742   4.8808601  44.8087597
   4.8608583   4.6026462  45.7242727   4.8324320   5.8372086  44.8490381
  13.6289036   2.8338155  80.6898594  13.5626137   3.4559780  79.9654627
  14.5668745   2.7777204  80.8723259   7.5708830  30.1926017  74.7674608
   7.3652172  31.0001469  75.2384233   8.4140933  30.3672361  74.3494511
  65.8840942  12.3724258  53.0353260  65.6941938  12.1576297  52.1220732
  65.7192707  13.3131504  53.0993795 110.7034588  11.8087387  82.4538517
 111.0013485  11.7964756  83.3634377 111.5079117  11.7575896  81.9376469
  95.8936119  35.3501511  79.4195890  95.7927418  35.2084303  78.4783268
  96.6958809  35.8661127  79.4994926  84.0805149  44.3438864  80.6675148
  83.2477951  44.7745562  80.8607292  83.8379097  43.5717344  80.1564789
 115.3453159   6.9498706  82.8215599 115.8587646   7.7506232  82.9283237
 115.3166771   6.5651298  83.6975670  94.5653534  44.4217110  63.9887857
  94.8533726  43.5201931  63.8454580  95.2337456  44.7985697  64.5610332
  33.5111785  59.2174721  56.8064642  33.4888744  58.8504028  55.9227228
  34.4219661  59.4836569  56.9323349   0.8986329  42.2703791  36.6024137
   1.3690050  42.5262022  35.8089805   0.5977250  41.3790751  36.4255977
   5.0480884  21.2417603  90.4763794   5.0653416  21.2381434  91.4334202
   5.7109427  21.8858266  90.2273083  88.3329964 103.6405754  82.3301983
  88.1849003 103.4347057  81.4072037  87.5391293 103.3405209  82.7728939
 113.8929176   3.8892129  69.8601532 113.3811951   3.6540553  69.0861559
 113.3815002   4.5776182  70.2853298  44.9886990  10.3681195   3.0859315
  44.2799616  10.2795458   3.7231752  44.5431376  10.4868400   2.2471151
   2.4694254 107.4060059  47.1198463   1.8554503 107.5270653  46.3955450
   3.3249509 107.3267460  46.6979170  78.8569307  52.9360008  84.1557503
  78.8836288  52.8763390  83.2007885  79.3581104  52.1782446  84.4571781
  76.4171743  31.0902977  61.2725210  75.7618999  30.4412413  61.5285873
  76.7359924  30.7863736  60.4226875  88.4811974  42.5475311  73.9995956
  88.9753246  42.3087025  73.2153559  88.5936165  43.4951782  74.0741682
  13.1942642  51.1138630  78.0346012  12.8835130  51.2123632  78.9345837
  13.9355886  50.5120611  78.1016970  14.7354984  42.4679470  58.9746857
  15.1938653  43.2762718  58.7450361  15.3777564  41.9613504  59.4717741
  98.9075565  22.0093894  48.7563276  98.3553123  22.7530456  48.9976501
  98.6972332  21.3352299  49.4024706  11.0457349  49.7340631  46.5905380
  11.8147159  49.6015930  47.1449327  11.1567402  50.6152534  46.2335920
  22.5105166  53.1336403  63.0004025  22.5748658  52.3036671  62.5279236
  23.1216025  53.0411530  63.7313271   1.0154233  61.7453003  62.7369928
   1.0953467  61.4016485  61.8471909   1.5198119  62.5587463  62.7257919
  38.0698395  18.2955921  61.4832067  37.7583575  18.9598167  62.0980358
  37.7749276  18.6049330  60.6267214  39.6546769  89.0347767  22.3533058
  38.7436628  88.8969135  22.0939255  40.1259041  88.2912731  21.9772959
  62.8632355 106.4882565  59.9604940  62.7757978 106.3896370  59.0124130
  62.1678305 105.9397507  60.3235054  41.3793564  17.6408327  77.2186184
  40.8291054  18.3799243  76.9593859  41.5171576  17.7627122  78.1579733
  14.3880165   3.3178395  71.8826199  14.5280206   2.3809209  72.0197868
  13.4646821   3.4555238  72.0941114  62.7737045  93.0764484  83.1009007
  63.1855917  93.5179806  82.3581791  63.2912731  93.3489513  83.8585854
 105.9709644  52.2134495  65.7411671 105.5075169  52.8466892  66.2893105
 105.9497929  51.3998270  66.2449598  59.1852093  34.4183421  88.9205074
  58.7766933  35.2008629  88.5503578  59.9730301  34.7429442  89.3566322
  98.1702042  48.3100033  64.3290329  98.2518959  48.5042191  63.3953094
  99.0512276  48.4421778  64.6791315   8.1966376  23.8943028  33.4721446
   8.2713068  24.7822142  33.8218141   7.4156356  23.5357618  33.8937116
  22.5167656   3.4995362  68.2417393  22.5709867   2.5594506  68.0698919
  21.5793562   3.6924344  68.2248163  74.4061089  88.6258984  15.3448498
  74.9143457  87.9055595  14.9719667  74.2010450  88.3388615  16.2346768
  75.3202629  13.7400246  42.9211664  75.5367613  14.6189189  42.6098680
  74.3636799  13.7259042  42.9524899  89.5437336  39.7272086  84.9353600
  89.1787338  40.3885603  85.5232525  89.1437244  38.9058566  85.2210236
  86.7417622  86.2219620  86.3293171  87.5874138  86.4399433  86.7212200
  86.1769772  86.9622326  86.5512562  20.4033422 102.4829388  33.0245614
  20.6558442 103.0903053  33.7199616  19.4585168 102.6048756  32.9314494
  83.5329628  46.7030811  72.9437399  83.0160046  46.3838720  72.2040796
  83.0611610  46.3936615  73.7169743   2.4749960  32.0000887   5.7588619
   3.3550340  31.9531059   6.1324364   1.9197854  31.5515804   6.3966805
  80.2747631  28.6376071  80.1288700  80.4717159  28.4506512  81.0467434
  80.3673077  29.5872688  80.0526714  68.0107880  91.8309307   1.1911930
  68.4592199  92.4170113   0.5815620  67.4991369  92.4142647   1.7516953
  67.7375650   1.8398854  68.5363054  67.5459719   0.9031084  68.5807133
  68.5274315   1.8975849  67.9987049   0.4002940   2.7141842  77.3963547
   1.2132155   2.5266191  77.8656244   0.1582037   1.8801588  76.9938326
  77.2627163  25.4796791  65.1825237  77.5698328  25.0495172  64.3844843
  76.3558197  25.7191706  64.9917030  93.1584358  28.3279848  57.7826548
  93.8370991  28.9352918  58.0773306  93.6322308  27.5235558  57.5713491
  97.6130772  37.9401517  78.0644703  98.5319901  38.2061100  78.0313492
  97.1641254  38.5573936  77.4868202  55.7858133  67.8986406  15.4135585
  56.1305714  67.1836948  15.9485579  55.5675411  68.5854626  16.0435271
 100.7627678   9.3143475  94.6670723 100.8816910   8.3701897  94.5638561
  99.8557854   9.4716156  94.4046211 113.7705898  51.9285011  81.8572235
 113.6281395  50.9823132  81.8313122 112.9624653  52.2822952  82.2287083
  16.1090422  25.1467347  27.7965808  15.6751454  25.8202624  28.3203411
  15.6920290  24.3283057  28.0658531  17.1728349  82.9537106  11.5811205
  17.4227750  83.8310814  11.2913299  16.7530179  83.0924129  12.4300885
 108.2556725  59.9030733  51.5155745 109.0036774  60.2953386  51.0651922
 107.5821400  60.5829906  51.4981747  11.2684751  12.3595095  51.2548208
  12.0328975  11.9873989  51.6946220  11.6320181  12.8553951  50.5212212
  40.7129955  23.9105153  73.6415291  41.3943863  23.3976722  73.2068682
  39.9461913  23.3375907  73.6428785 108.7877274  31.9703579  74.1715002
 107.8443241  32.1272135  74.1313601 109.0336132  31.7572784  73.2712936
 105.4691410  23.2996941  15.4391801 104.7673607  23.6384630  14.8833179
 106.0461426  22.8300333  14.8369217 108.4895515  47.5159359  28.0682921
 107.6186943  47.5366402  28.4650302 108.8531399  46.6708565  28.3326340
   4.9821579  42.9029751  83.1558323   4.9812713  42.6317453  84.0738010
   5.9013790  43.0853033  82.9608440  18.7529361 107.1556473   6.9545388
  18.6212170 106.3636589   7.4757218  19.2263424 106.8557262   6.1785442
   1.2217083  60.2556372  56.5929699   1.2494195  59.4578743  57.1212101
   0.8189131  59.9831104  55.7685184  95.2577591  70.9576750  71.0482693
  94.6061516  71.4069939  70.5099821  95.4831982  70.1739454  70.5470943
 113.6869907  20.7715559  74.8802137 113.7456894  20.1193237  75.5783367
 112.8091049  20.6551719  74.5168972  95.8344173  45.2207088  84.0339851
  95.9682560  46.0670090  84.4607067  96.7182541  44.8822975  83.8906765
  14.0053523  40.7796335  50.8514309  13.7298954  40.6224346  49.9483013
  13.1903672  40.7819510  51.3534498  53.4983253  74.1249466   0.0609663
  53.0500937  73.6972284  -0.6686766  53.3959293  73.5178995   0.7939326
 117.5371933  45.7139301  39.1806865 118.1740189  46.3767099  38.9134669
 118.0553055  44.9177742  39.2986941  37.3637390   3.0966565  72.8662634
  37.0873308   3.8825056  73.3377218  36.8046045   3.0741569  72.0896721
 113.7998867  81.6155815  10.7926702 112.9831886  81.1171913  10.8217061
 113.5212135  82.5271797  10.7057369  20.1307988  85.3881836  37.5725389
  20.7183003  86.1363316  37.4660182  20.6877923  84.6235561  37.4264622
  91.3567066  86.8267059  85.7251644  90.9803200  86.8531418  84.8454666
  92.0170879  87.5196171  85.7240486  35.2481270   9.7621208  46.8718386
  35.5021310  10.3224933  46.1385632  34.3742013  10.0675333  47.1151638
 112.0049667  17.3631549  17.0988142 111.6759682  18.2043552  17.4156308
 112.1386528  17.4963284  16.1603975 105.6742382  32.9018354  75.8624125
 105.8472252  33.3821702  75.0527287 106.0826969  33.4315729  76.5470791
  49.6539259  38.6098242  69.7150660  49.7087574  38.3254743  68.8027239
  49.3339634  37.8408456  70.1867962  33.3426046  25.1496840  55.8973312
  34.0844488  24.5591187  55.7664347  33.3563089  25.7246900  55.1322079
 101.7900276  59.6858072  48.2013416 102.3109722  59.3864298  47.4562120
 102.3740482  59.5941496  48.9541626 108.1295681  33.3812094  61.0072470
 107.3698902  32.9433084  61.3911247 108.6085606  32.6827598  60.5611897
 116.6915226  61.3216782  59.0234804 116.7017651  61.2340546  58.0703545
 115.7732677  61.4845419  59.2391729 108.8363838  65.3835583  30.2282310
 109.2892170  65.9648561  29.6172714 109.4964981  65.1670218  30.8867121
  93.8278484  67.3896265  88.4486294  93.2482719  67.7845621  87.7972221
  94.1977119  68.1342459  88.9229488 117.1258736  64.7388983  88.5535812
 117.9195976  65.1018429  88.9466667 116.4907551  64.7208166  89.2694855
  56.4792490  84.9795246   1.2857488  55.7889891  84.8616409   0.6331564
  57.2302723  84.5058155   0.9282529  11.7600119  56.6720152  90.5142689
  11.0517311  57.3158884  90.5128098  12.0164502  56.6001225  91.4336681
  75.7153606  70.4079628  78.1869078  75.6365108  70.1443815  77.2700977
  74.8170567  70.5925035  78.4611702 105.8261490  12.8169346  77.7379274
 106.2726784  12.5323415  76.9405270 105.0605106  13.2985818  77.4247885
   5.0381482  41.6576624  61.5530396   4.1139835  41.7112446  61.7965174
   5.4780924  41.3558149  62.3477507 109.2724705  46.8838787  77.9564619
 108.6493015  46.1573219  77.9580975 109.6046543  46.9124937  77.0592070
   6.0581112  71.2637711  72.9034662   6.9821090  71.1792898  72.6682615
   6.0687917  71.6101599  73.7957287 110.0789261  74.7111368  74.7523689
 109.5463657  75.4967785  74.6283627 109.5446301  74.1450644  75.3094292
  24.8724985  64.3313885  52.8239584  24.0212584  63.9045477  52.9210377
  24.7818303  64.8706198  52.0383072  98.0564308  55.3578949  73.5008287
  97.3153019  55.8581400  73.1591940  97.8755569  55.2707958  74.4367409
  83.2345200  48.8568449  77.3684502  83.0470657  49.6302223  77.9004097
  83.4453773  48.1737137  78.0049324  77.4802732  15.2251565  19.1642833
  78.4035826  15.1983833  19.4153130  77.4899530  15.4851925  18.2431316
   3.8365892  42.0474958  46.1851025   3.8706240  42.5963831  46.9685507
   4.4016269  42.4943924  45.5548239 115.8087349  87.4833965  54.0315104
 115.4266930  87.6368046  54.8956490 116.3739395  86.7202759  54.1515589
   8.5466498  34.3102956  86.1266422   8.9926308  34.2725182  85.2805328
   7.6817465  33.9363003  85.9584141   5.5879688  63.5841417  51.4910889
   5.2168590  64.1749096  50.8357286   5.2482253  63.9080572  52.3252869
 114.5754814  60.8873653  89.3932724 114.0394115  60.3452921  88.8144684
 115.2486992  61.2555456  88.8210392  22.2616410  40.9896088  69.8470974
  21.8757367  41.6673374  69.2921257  23.1081223  40.8014154  69.4417715
  87.8563595  64.6218729  70.0549936  88.4386253  65.3031921  70.3911448
  87.4996090  64.9892616  69.2462969  31.6706562  87.6089954   5.5468428
  31.5297866  87.7740288   6.4791262  32.4954796  88.0517578   5.3471863
 105.0105095  78.3618069  61.1685610 104.1374397  77.9855585  61.2800694
 105.0154781  79.1291666  61.7407227  75.0844336   9.1737598   5.8149320
  74.3678141   9.6267182   6.2593603  74.7425508   8.2966256   5.6417757
  18.3960748  55.0249624  61.1610460  17.5757849  55.2387047  61.6056442
  18.8948965  54.5241451  61.8064833  21.4794207  46.5198898  68.3843660
  21.2651443  47.4527931  68.3878231  21.2282538  46.2196875  67.5108528
  90.1930141  82.4809170  13.6936629  90.3396416  82.3408985  14.6291447
  89.2745018  82.2483540  13.5577452   6.3967955  62.8694820  34.8453522
   7.1817458  62.9827595  35.3813124   5.7057428  63.3148813  35.3355551
 113.3125496  38.9290094  74.8077297 113.4012032  38.1858110  74.2110491
 112.3777294  39.1345024  74.7971153  19.8454034  22.0915890  50.5279016
  20.5718756  21.4816976  50.6563568  20.2428389  22.9584050  50.6110191
  92.1487236  59.6581697  56.3447332  91.5580463  59.0904379  56.8397236
  92.9236889  59.7402954  56.9005394  19.6766305  58.3460665  44.5056343
  20.6219625  58.2945919  44.3644667  19.5284653  57.8578377  45.3155184
  21.4745736  90.3829384  80.7845879  21.9640207  89.8913574  81.4441395
  20.6203127  90.5389881  81.1872292  15.0976324  71.4559317  51.3224220
  14.9156344  71.6960096  50.4138660  15.7909572  70.7987356  51.2622166
  98.5091782  72.0937490  77.8992748  98.1936550  72.5122166  77.0983028
  99.1451073  71.4456177  77.5963783  93.7050056  22.6814890  75.4290771
  92.7912045  22.9077983  75.2559328  94.0149021  22.2936225  74.6106911
  96.1748505   0.9902397   3.0709180  96.0583019   1.9249660   3.2410210
  96.0689926   0.5759259   3.9272878  99.9301815  23.5764694   1.3580455
  99.1190624  23.3686709   1.8218747 100.5999374  23.5914969   2.0417348
  87.1185398  18.7425864   3.3750039  87.3675632  18.1263232   2.6862073
  86.9709206  19.5689833   2.9151040  68.9973116  14.6347690  72.2736454
  69.5487881  15.2905059  72.7004004  69.2837858  13.8012409  72.6470041
  10.4871714  48.8515234  43.1281853  11.1560178  49.5028019  43.3396482
  10.0103486  49.2291689  42.3890924   0.5304190  12.7087712  81.3128376
   1.2024799  12.0685267  81.0790634   0.4740095  12.6592088  82.2670937
  61.1779165  99.3013859  11.3796759  61.8942118  99.8903179  11.1423528
  60.8461142  99.6492195  12.2074163  98.6090183  58.0557060  92.3134708
  98.8953400  58.8610697  91.8826103  97.6675797  58.0157137  92.1452141
  36.9130539 107.9980474   0.5593938  37.6973748 108.5389524   0.6515474
  36.3929581 108.4424167  -0.1101332  83.4704494  58.4972382  95.1266956
  83.4516621  57.6242638  95.5188656  84.3781376  58.6143684  94.8463249
  19.0374136  23.2405186  91.5026951  19.0420771  23.8732910  90.7844925
  19.6394312  22.5523329  91.2194824 111.0091877  68.9772844  79.3241739
 110.9857464  68.7922049  80.2630234 110.1535034  69.3620634  79.1344786
 115.9046650  68.8862324  79.9442720 115.5550385  68.4697819  80.7320309
 115.1296997  69.1280031  79.4371080  14.2750347  28.3971000  43.6625385
  15.0597513  27.8564167  43.7526131  14.5480061  29.1240501  43.1028414
 109.9908352  85.2503967  15.0192165 109.2494011  84.6450806  15.0090921
 109.9547768  85.6588459  15.8841443 105.9576416  56.5822268  62.8132057
 106.8816185  56.8188095  62.8940392 105.7617855  56.1030054  63.6183262
  98.6661720  50.3799772  80.0014973  97.7390575  50.1610518  80.0950527
  99.1259670  49.5634508  80.1967239  88.3608246  43.4390736  89.7656441
  89.0507030  44.0112066  89.4295406  88.6124516  42.5630951  89.4731140
  16.5516675  58.0296993  72.2196436  16.0263586  58.4417963  72.9055452
  17.2971201  58.6186028  72.1024942   4.8346677  76.4264393  88.6660194
   4.0520692  75.9606028  88.3714581   4.5004547  77.2364330  89.0513039
  82.1126747  80.8922863  91.6305733  81.5792179  81.0000801  92.4179935
  82.1665955  81.7713356  91.2556076  30.4104328 100.4729557  12.1150661
  30.2922606 101.1664391  12.7641809  30.5199218 100.9376049  11.2854016
 112.3092651  49.4453573  64.2706728 112.2412777  50.3238726  63.8967419
 111.6543865  48.9322376  63.7973118 110.4935551  66.8645573  58.6885929
 110.3204632  67.7791882  58.4656096 109.6793270  66.4081240  58.4766150
  19.3483865  62.8364038  77.6804590  20.2278447  63.2052279  77.5982857
  18.8063717  63.3798027  77.1084690 109.2601871  45.9214640  67.1817970
 110.1003933  45.7339716  66.7633200 108.6165047  45.4605246  66.6437960
 118.0527782  81.2135792  59.2015886 118.5081196  80.5768394  58.6507273
 117.4358368  80.6900406  59.7129774  67.2462702  97.9980183  -0.2304528
  66.6893291  98.6210632   0.2363108  66.9004440  97.1391106   0.0122428
  80.5884266  22.5266552  68.2578087  80.1451492  23.3289433  67.9819870
  80.6570625  22.6059151  69.2092466 108.8046265  29.0839863  74.8598289
 108.9442253  30.0039864  74.6354580 109.6279526  28.8081026  75.2626467
   4.7469568  41.5770674  85.7954884   4.6588916  42.3171997  86.3960552
   4.3212581  40.8491421  86.2484074  17.1751130  66.3658285  74.3130922
  17.5122893  67.1785831  74.6898842  17.2934365  65.7142496  75.0042295
   9.2110783  58.1420183  90.7219315   8.9803493  58.9451122  90.2549934
   8.6773401  57.4631405  90.3090382  13.8620496  29.3800402  34.8788881
  13.7831748  28.7762809  34.1403198  13.1902862  30.0429463  34.7191310
  98.2358170  66.4083195  84.1569138  98.0619526  65.5322695  83.8126087
  97.3748970  66.7413139  84.4102287  26.3072920  79.1642570  91.2042809
  26.8355203  79.1991138  92.0017719  26.9442439  79.0424299  90.5002403
 115.0930500  48.5758924  64.2306709 115.3732586  48.7174940  63.3264208
 114.1956806  48.9078617  64.2581129 101.1232281  58.4782839  55.1189184
 101.0636711  58.7610340  54.2063761 101.4195633  59.2559862  55.5917835
   5.2017874  62.8643942  69.0247250   5.2795178  62.1592093  68.3821487
   5.8496785  62.6494598  69.6957493  19.7806144  60.4177713  81.6036797
  20.3237867  59.6731472  81.8620110  20.4060078  61.1205053  81.4268303
   2.2616255  10.2627885  83.5233021   2.3340274   9.7837967  84.3488693
   3.0073830   9.9606121  83.0048752   2.9990631  49.3370008  37.3830676
   3.7309739  49.7052479  37.8779769   3.1604454  48.3935022  37.3831892
   9.4828451  48.8289213  83.8627148  10.2456832  49.3331766  84.1456223
   8.9181137  48.7953949  84.6348381 114.4714260 106.2252140  53.9385605
 115.0275421 106.9774818  53.7359095 115.0750160 105.4830170  53.9710903
   4.9712121  57.8971195  66.8904161   5.2702916  57.2675610  67.5464964
   4.1411158  58.2262230  67.2351837 103.2710457  54.5742130  86.9232655
 103.4193230  54.4201660  85.9902477 103.2036972  55.5258560  87.0011616
   1.1283865  33.4540868  82.3792267   1.3139296  33.2170749  83.2878685
   0.6512230  34.2816281  82.4402046  69.7038996  17.8195623   1.9309205
  68.7959158  18.1113151   2.0126600  69.8686564  17.8106883   0.9880418
  94.8313332  76.1341381   7.9155904  95.1793003  76.0339832   8.8016605
  94.7008514  75.2375746   7.6067519   6.9076419  63.0244827  43.4909010
   6.4521879  63.7765217  43.8693619   7.8325880  63.1862974  43.6767054
 110.0329876  11.4824104  72.9307604 109.5252037  10.6711137  72.9170990
 110.9226418  11.2120008  72.7035236   0.6601054  39.1356635  70.6711292
   0.2465327  39.7839499  71.2411451   1.4912927  38.9342880  71.1010218
  13.6321199  91.5794754   8.2272291  12.7675962  91.8728352   8.5149270
  14.2298937  92.2632980   8.5293621  10.6140649  48.4209299  60.5280733
  11.5273011  48.1356192  60.4993105  10.6574738  49.3351650  60.8082867
  25.3199601   1.6073463  44.6062136  25.4377865   1.2487457  43.7265778
  24.6489834   1.0520695  45.0033283   0.4268759  41.0672045  82.3122597
   0.9227554  41.1041880  81.4943600  -0.4286081  40.7210016  82.0582485
  64.5789909   1.2177944   6.1936557  63.9225721   1.8828097   5.9860420
  64.8452902   0.8701769   5.3424931   0.4983915  42.5768042  74.3669796
   0.2635984  41.9072056  73.7245369  -0.3410405  42.8930521  74.7010088
  22.1156335  83.8077068   1.7051794  23.0119538  84.1422081   1.7359827
  21.7235160  84.2427540   0.9480724  14.7082210  80.4299927  21.6957545
  15.5198228  80.7230282  21.2814236  14.4730926  79.6312380  21.2235975
 104.1103840  66.7369652  58.5388994 103.7638283  67.3462439  59.1907501
 104.9206352  66.4064837  58.9268541  24.1699314 107.6489830  10.9560633
  24.4682097 107.9822731  10.1097894  24.5079350 108.2777596  11.5937364
 100.4345798  68.2735348  89.1848087 100.2278614  67.6157713  88.5208416
 100.2347851  69.1097069  88.7639427  95.9081078  69.1613770  69.2502356
  95.5425549  69.1940928  68.3661938  96.7563820  68.7311077  69.1428757
  23.4707928  74.7438192  48.0258656  22.5250030  74.5966291  48.0189419
  23.7001348  74.8710203  47.1052933 104.0600014  49.5435953  66.1572504
 103.8514519  48.8867712  66.8215656 104.5711422  49.0680361  65.5024147
  82.2184658  28.5572171  54.3193054  81.8937683  29.3445253  54.7562885
  82.6783371  28.8847065  53.5463238  87.7985859  30.5277276  86.9577599
  86.9188690  30.3409910  87.2855759  88.2171822  31.0213852  87.6629639
  76.4832973  19.7294486  27.1761227  76.4129210  20.0890470  26.2918329
  76.2753868  18.8006723  27.0742416  48.4234619  79.0556049  11.2485659
  48.0387068  79.9027729  11.0238302  48.5293579  79.0853214  12.1994269
  89.0247882   4.9831966   0.8027143  89.5747126   5.7664779   0.7858343
  89.4108904   4.4052413   0.1445932  42.6426554 110.2651215  28.6945486
  42.2975063 111.1215019  28.9469790  42.2088718 110.0672340  27.8645444
  86.0174847  87.6162910  72.8501987  86.8180561  87.1353054  73.0599022
  85.8004189  88.0834007  73.6570024  87.8953266  16.0114992   9.0447313
  87.7552891  15.0711334   8.9336777  88.8460064  16.1069202   9.1023725
  49.9537420  82.7622509  94.2825699  50.6779194  82.2719765  94.6717167
  49.1679764  82.3771191  94.6704865  87.8697777   8.9965779  20.1188278
  88.0449677   8.3715862  19.4153190  88.0562782   9.8517704  19.7314095
  82.2133923   5.4266626  38.4253883  81.4558792   4.9421093  38.0973458
  81.8420982   6.2226260  38.8059330  96.2115097  22.1681881  35.7567739
  96.6488457  22.9176331  35.3526688  95.3682518  22.1120214  35.3073335
  82.7224159  71.8654680  71.5027618  83.4108925  72.5266552  71.4316607
  81.9544029  72.3508453  71.8040800 111.5180302  34.7555470  89.7025013
 111.8225861  35.2743483  90.4470253 111.8975639  33.8882208  89.8436928
  17.8084540  79.9175978   5.4971260  18.0250096  79.1709614   4.9386704
  17.2295976  80.4585361   4.9599665  81.8523026  98.6867523  77.0482635
  80.9520435  98.8967037  76.7999029  81.9075108  98.9259529  77.9734468
  56.4101362  98.5035419  47.9440212  56.9475031  99.1670704  47.5113487
  56.0711145  98.9416218  48.7246513  99.9664974  22.0773625  60.9487247
 100.7923889  22.4723029  60.6691456 100.1520061  21.1392903  60.9916019
 100.7316971  16.6349566  55.0708580 100.7080746  15.9129083  55.6988096
 100.5321121  16.2264454  54.2285299  98.6184120  21.7839360  76.3893795
  98.8542938  21.4188552  77.2422028  99.4228268  22.1963167  76.0745955
 106.8267632  26.2023330  88.8107014 107.0123291  26.8811250  88.1618309
 107.6140881  26.1687589  89.3540573   8.3506078  22.4586964  72.8524399
   8.6652732  22.8552318  72.0400524   9.1468787  22.2452402  73.3388805
 101.8093872  42.5647259  53.0646992 101.6856480  42.6950598  54.0048790
 102.5870323  43.0806017  52.8516865  78.3249044  10.5170107  41.0020447
  77.7622080  11.1047399  40.4978800  77.9868412   9.6415621  40.8135319
  39.1973996   6.5944701  20.4096866  38.5287070   7.0796609  20.8930802
  38.7089419   6.1164612  19.7395015   9.6692240  34.6726418  51.5486574
   9.9377632  34.0484571  52.2228336   9.5721358  34.1432357  50.7571173
 105.4529953  15.7933915  54.1091967 106.1313915  15.9113228  54.7741079
 104.7054482  15.4382360  54.5901012 100.3256035  32.0486450  84.2662811
  99.7101498  32.5017571  83.6899662  99.7712231  31.5219402  84.8420143
  68.7934446  95.8852005  71.3419247  68.2122135  96.0410404  72.0863152
  68.6921310  94.9529266  71.1500120 109.8107243  15.6801581  74.7543383
 109.7562313  15.3205156  73.8689423 109.1016293  15.2495503  75.2318239
 108.6619473  36.2314320  75.7791519 108.0871868  36.8237567  76.2639475
 108.0937862  35.8323455  75.1202488  64.5858288 110.0606537  66.6806698
  65.3648138 109.7332001  66.2310171  64.9264765 110.6628609  67.3421288
  94.9803448  20.2962160  81.1530972  94.6291256  20.6208277  80.3239441
  94.5905685  20.8647084  81.8172741  79.7151041  38.5643363  16.6143835
  80.2509308  37.7729511  16.5611720  79.8624897  38.8942242  17.5007701
 113.0857658  13.9940691  68.6470318 112.5964642  14.2047381  69.4422865
 113.6498833  14.7541285  68.5044861  84.2715073  16.0027635  83.8204479
  84.9405003  16.5740144  83.4431553  83.4501839  16.4764345  83.6889458
  82.4283314  82.7704144  30.6552458  81.6306400  83.2750225  30.8142710
  82.3323727  82.4466515  29.7595882  96.1865425  56.6314173  71.7312717
  96.8075275  57.1554089  71.2252665  95.5623817  57.2687435  72.0783520
  61.1674261 103.0752659  59.5404196  61.9428921 103.4491920  59.1220093
  60.4310894 103.5229778  59.1237736  86.7150021  95.2566624  28.1725335
  86.0118389  95.8906937  28.3132482  87.0609474  95.4710102  27.3061609
  15.5942321  25.1961446  85.9694386  15.8154225  25.4771733  85.0815582
  15.0609255  25.9092808  86.3205051 111.8762970  56.6895533  53.2434750
 111.9361401  55.7342291  53.2466078 111.1087513  56.8832254  53.7816191
  99.6596909  30.8939815  74.3051863  99.3211460  31.4720225  74.9889135
  98.9626026  30.8642006  73.6498880  17.4062419  10.1148713  91.8809986
  17.9761052  10.3702164  92.6064587  17.0903063   9.2434603  92.1198654
  80.8603001  17.4152410  53.8491583  81.1807251  17.9651701  54.5640945
  81.6439533  16.9827700  53.5099173  88.6737919  21.8381190  40.0563717
  88.2332993  22.6853800  40.1222897  89.5364857  22.0440507  39.6963906
  31.0993600  24.3828106  56.9276714  31.4507222  24.0297294  57.7450514
  31.8666720  24.7118378  56.4594793  95.9641075  14.8761642  55.9792471
  96.6854858  15.4529929  55.7280064  95.6750202  15.2101207  56.8284416
  34.8731780 101.7327309  46.6457224  35.3966308 102.5264263  46.7565203
  33.9735103 102.0488358  46.5625763  27.7730203  34.5227218  75.5215549
  28.2451844  34.6290827  76.3473749  28.4199262  34.7304416  74.8473167
 111.4620590  21.1468458  92.7182865 111.3421345  20.6125379  91.9331932
 110.8606625  20.7684684  93.3596802 111.6809940   8.9005256  83.7161541
 112.0149994   8.2468188  83.1018734 112.4440765   9.1523832  84.2362499
 104.1658974  20.2230525  43.6237907 103.6447811  21.0061979  43.4467220
 104.9944019  20.5589390  43.9658356  28.1528711  16.3914156  66.9576931
  27.6942611  17.1443021  66.5847731  27.7259016  15.6311941  66.5627337
  75.6295824 106.7253685  13.5517645  75.3339148 105.9300709  13.9948404
  76.3493347 106.4341736  12.9919481  19.0522993  31.9312119  32.1234179
  18.7663102  32.7164507  32.5901556  18.3801532  31.7908454  31.4565229
  96.6840935  50.2832842  56.3164473  96.0875320  50.9937286  56.5522861
  97.1573639  50.6117535  55.5520153  48.3326721  96.9316006  62.6610041
  47.5876951  96.9046307  62.0605803  47.9408169  96.8670940  63.5319328
  36.5744424  49.5507669  60.4703617  36.3769722  48.7696791  60.9872150
  36.7351317  50.2341938  61.1210060  87.5918007  21.9656587  55.8462477
  88.3653355  21.4362812  56.0402346  87.9436970  22.7883816  55.5063534
  74.0482426  19.0600407  39.4977283  74.3504667  18.4952891  38.7864280
  73.2846832  18.6069322  39.8553634 101.9619465  24.7151279  71.6053200
 101.9613838  24.1747665  70.8152294 102.7772045  25.2140546  71.5536833
  45.6279230 106.6344166  75.6976223  44.9060583 107.2316837  75.5016088
  45.2345133 105.7626247  75.6597042  89.2454910  20.2445555  14.3190122
  89.2878437  19.5776415  15.0043333  90.1133060  20.2287102  13.9154327
  20.8951259  24.7487950  51.1529589  20.8559275  25.3718138  50.4273224
  21.5048909  25.1445103  51.7757177 108.2641411  34.4066453  57.0910025
 108.8524532  33.6519933  57.0660448 107.4147511  34.0401411  57.3368549
  98.1605148   0.2125944  87.0341396  97.6232910   0.8025928  86.5054512
  98.1924343  -0.5997309  86.5288353  31.1755896   4.7515586  73.2490826
  30.7363057   5.5366445  73.5760403  32.0841503   5.0226349  73.1176758
  15.5874574   6.1598462  64.3351364  16.3456094   5.9001058  63.8117123
  15.6439102   5.6193537  65.1231194  95.0162888  59.8747778  45.6370544
  94.3982697  59.3427563  45.1358128  94.7889519  59.7079754  46.5517807
 102.4240780  98.5559559  53.7890768 102.8561878  98.8765717  52.9974174
 103.0757141  98.6706066  54.4807816  86.0194302  15.8932889  79.1172123
  85.8564186  15.0695765  78.6576939  86.0979843  15.6425917  80.0376511
  75.8584690  91.6394138  53.3098269  75.3326893  91.1656189  53.9542723
  76.1806202  92.4074650  53.7815809  84.4439316  53.4340620  72.8240681
  83.7149048  53.2714272  73.4226513  84.8471165  52.5750160  72.6987028
 101.6061687  38.6907530  54.2779970 101.5350533  39.4321418  53.6767340
 101.6719055  39.0909791  55.1450205  23.4156013  27.2316933  62.5715351
  22.4605346  27.2341037  62.6353836  23.6453247  26.3102031  62.4518967
  89.1546917   6.8563068  43.5259485  89.4248199   7.0328498  42.6247835
  88.2923603   6.4493817  43.4421396  13.6826682   3.5325137  84.3115997
  13.9949429   4.4173786  84.1225815  13.8812029   3.4014195  85.2387619
  93.2834721   0.2736673  48.4208202  93.3096981   0.9268208  47.7215862
  92.4980545  -0.2418882  48.2376575   7.3894477  20.9548664  35.2670717
   6.7934942  21.7022252  35.2167892   7.4424541  20.7532263  36.2012887
  81.8129921  32.8308034  31.9553375  81.7574120  33.7215495  32.3013306
  81.3722134  32.2910333  32.6115322  23.3947849 109.3555260  60.3278017
  24.2676282 109.6293926  60.0460672  23.4226060 108.3991909  60.2981377
  61.8234634  93.3049488  38.2431602  61.9323635  92.8868008  37.3890424
  62.3725605  92.7894974  38.8339448  99.3117046   4.0574345  70.8133554
  98.5662556   3.6902925  70.3382254  99.4423008   3.4618342  71.5512133
  15.4295838  18.4775567  27.7166533  15.2842748  18.4952235  28.6625957
  14.8081255  19.1160667  27.3669004 103.5239887  47.8236628  81.7322922
 103.2081509  47.0209026  81.3175011 104.2803955  48.0834103  81.2063503
  23.4142613  46.2835312  70.3484249  22.9851341  45.6724501  70.9473133
  22.7819252  46.4093781  69.6409273  23.5950685  60.4504919  78.5094976
  23.0067968  59.8357391  78.0710459  23.0576062  61.2272644  78.6643839
  87.7691746  42.8592968  66.4320564  86.9455910  42.7044678  65.9694958
  88.3896637  43.0974340  65.7432032 113.2350540  15.6370199  55.5320740
 112.3962021  15.3997934  55.1367569 113.7692738  14.8467433  55.4526520
  69.4171429  27.4764633  69.1307926  69.2640257  28.4180021  69.0514708
  69.9967241  27.3909950  69.8877716  96.5591717  34.1126776  73.0106401
  97.4535942  34.3147373  72.7360010  96.1651421  33.6871862  72.2491121
 108.5482788  40.6064415  95.2114201 107.8014278  40.0407076  95.4073429
 108.6950397  40.4927444  94.2723942  85.5133343  15.3010035  65.4986668
  85.5175686  14.8779988  66.3573170  86.3043499  15.8399737  65.4932833
  20.3025794  12.4830627  27.9871869  19.6013725  12.7569795  28.5783815
  20.3285694  13.1638360  27.3148012 117.1131516  20.1731300  60.5428648
 117.5420856  20.7081199  61.2107182 116.6471195  20.8036661  59.9938011
  14.3790269  36.9300127  78.9940548  14.8244071  37.0165634  78.1512165
  14.6326339  37.7143383  79.4806242  18.7418079  11.2587166  79.2471600
  18.4276807  10.5220199  78.7229156  18.0649543  11.3853955  79.9120331
 115.1603222  16.0685647  59.7976685 116.0008049  16.0760307  59.3396759
 115.2770901  16.6826820  60.5225515  59.3209600 101.2182903  68.2860613
  58.8709927 101.6270638  69.0254307  58.9834166 101.6772079  67.5168419
  89.1328430  81.7250538  75.8639097  89.4092178  80.9883022  76.4089251
  88.1777668  81.6641331  75.8452320  69.3131304 108.3732414  40.3289032
  68.7672186 107.7257538  40.7749653  70.0400829 108.5296535  40.9316540
  18.8079751  14.6632481  23.4400797  17.9510033  14.9347568  23.7688875
  19.3404710  15.4579151  23.4744906 102.5883293  26.4747500  54.3929625
 102.7186394  25.7857966  53.7413502 102.8870296  26.0863090  55.2152300
  95.0641632  21.9031286  48.2661963  94.3896580  21.6608810  48.9006948
  95.4161739  21.0673356  47.9599762  99.5328140  16.1943746  40.5920458
  98.6522484  16.5424025  40.7324314  99.5124245  15.3237677  40.9893608
 115.7344437  55.8479214  74.5227098 115.0132561  56.2900877  74.0748262
 115.3687477  55.0051260  74.7914028  92.9097843  21.1744952  49.9526501
  92.4307156  20.9604144  49.1520882  92.4970436  21.9771695  50.2713728
  97.5244331 101.2959576  79.8031998  98.3453846 101.7363644  80.0230026
  97.7828979 100.3987026  79.5925760  94.6763611  31.5325594  82.0226479
  93.8522053  31.1102509  81.7804623  95.3526878  30.9144711  81.7455292
  94.7844028 104.5003986  67.8251600  94.0314865 104.5121288  68.4161043
  94.8082066 105.3807068  67.4500465  83.1905937  11.4599681  50.1004791
  82.2764969  11.4204562  49.8192453  83.6739826  11.7019260  49.3105268
 104.0169239  27.8554392  42.1699238 104.5350933  27.3572946  41.5377998
 103.1094170  27.7132320  41.9007683  77.4965811  52.2140312  11.8656206
  78.4023619  51.9189119  11.9588971  77.2581863  51.9760180  10.9696567
  83.0482864  19.3361998  51.4247847  82.9914665  20.2838898  51.5467882
  83.9700031  19.1296113  51.5796423  88.8393497  92.3153400  65.2521992
  89.2515469  91.5883923  64.7854376  89.5462132  92.9472923  65.3833961
  82.1782780   3.8506526  55.1844883  81.4814281   4.5068604  55.1799917
  82.9879570   4.3611532  55.1907349 102.1757030  29.7302318  64.5734167
 101.3476086  30.0658441  64.2301226 102.2266388  30.0819302  65.4622030
  48.4263193 110.4703386  55.6832600  48.1757223 111.2170429  56.2271976
  48.9918577 110.8450167  55.0079775   0.3953958  12.2693145  84.0858936
   0.6286445  12.5639093  84.9662590   1.0614854  11.6176462  83.8670731
  69.1103315  46.4271402  69.9429989  69.2306757  46.9913435  69.1791773
  68.2412243  46.6540003  70.2737904 113.1219482  21.3870144  53.6071301
 112.9060745  21.6879439  54.4897842 113.1821442  20.4350281  53.6866808
 111.8584061  36.4986157  70.2221107 111.8523979  36.8538475  71.1109304
 111.7437649  37.2632360  69.6578026   5.3959131  15.5773485  58.5402632
   4.8817274  15.7219398  57.7459431   5.1012969  16.2594199  59.1437626
 107.3013592  31.2681651  26.4860725 107.5904942  31.8276501  25.7652330
 106.9406700  30.4921746  26.0571527 100.9206104  34.5865798  12.3821557
 101.3569641  33.7632823  12.1630323 100.6185627  34.4653773  13.2823277
 105.3724194  27.0131922  64.7300911 105.3830528  26.3356733  65.4061747
 105.0614929  27.7976346  65.1819897  19.2268324   4.3143550  65.8672237
  20.0042820   4.2117015  65.3183460  18.5112715   3.9635909  65.3369713
 106.2449932  20.1751566  71.1236525 106.1557770  19.3959773  70.5748796
 106.3408089  19.8325539  72.0122910  42.6447535 108.0022717  50.8496571
  42.5795937 108.9304638  51.0742617  41.7668295 107.7661133  50.5501413
 108.5386848  14.5624053  69.7451162 109.0623093  15.3388488  69.9430704
 109.0386581  14.1017616  69.0712690   0.8607156  21.3220787  74.8538494
   0.6871222  20.5648756  74.2946148   1.7787778  21.5365863  74.6883821
   8.4159106  41.6414881  67.8066492   7.9010522  42.4484301  67.8065443
   8.9616603  41.7056894  68.5904026 104.3747807  78.6793423  29.3572640
 104.4887352  78.5863638  30.3030968 105.0826168  79.2643261  29.0870976
  94.6864319  26.0575533  81.3355827  94.6785736  26.1286616  82.2901058
  95.6084156  25.9293079  81.1125469  99.6787453  55.3874350  51.3318825
  99.3745613  55.3424931  52.2383499 100.2880859  56.1255455  51.3200331
   7.3674381  15.4893780  64.0045452   7.2971088  15.5528307  64.9570465
   6.6882712  16.0776353  63.6745167   8.0297011  47.6817369  61.7412567
   7.8726125  47.5192642  60.8111191   8.9476049  47.9494858  61.7859459
  17.8181112  13.8274598  85.5140877  18.7532878  13.6534619  85.6208706
  17.7469420  14.2319512  84.6494770   0.5868899   5.1748598  76.0165310
   0.3647505   4.3898439  76.5171719   1.2708842   4.8876050  75.4116583
 116.8707657  18.6233175  40.8649969 116.1596680  18.0874872  41.2163639
 116.4283276  19.3351603  40.4026556 103.6050606  18.1831431  80.0766182
 102.9775906  18.8722014  80.2950668 103.4874249  18.0410790  79.1373539
  75.7290602  15.6943452  31.9713807  75.9174156  14.7944391  31.7050695
  74.7859716  15.7033134  32.1349144  12.6214314  23.8010979  30.7290411
  12.0036280  24.1469121  30.0848651  12.2445059  24.0414214  31.5754461
  73.5031462  89.6942902  37.2564411  73.7990093  89.4402790  38.1306124
  72.7922344  89.0849018  37.0577192 110.2696705  24.5901179  61.5482283
 109.7276020  24.2663169  62.2676373 111.1650372  24.3694830  61.8048906
   6.5650010  52.5639439  50.1390696   7.4202251  52.1911097  50.3531218
   6.6003132  52.7178431  49.1949844  23.2146239   2.1961389  71.2671804
  22.4806309   2.7758488  71.4707088  22.9597354   1.7641684  70.4519129
 106.5598297  21.5158677  44.7574091 107.1540642  21.9598198  44.1524124
 106.3031101  22.1942544  45.3820038   0.5645167  53.3863020  42.5775099
   1.0038744  53.4888506  41.7333031   0.0261294  52.6017237  42.4735785
  98.5606098  34.7123289  25.1624012  99.2363071  35.3537416  25.3820586
  98.3451748  34.2960429  25.9969831  29.3386698  35.5764031  78.9398432
  29.6443129  34.7515106  78.5625267  29.7904062  36.2526369  78.4349918
  71.1813593 108.8856030  73.4929848  71.6255474 109.7130394  73.6781406
  70.2493000 109.0992641  73.5359764  41.3932657  11.0675633  51.8407726
  42.0503902  11.2676883  51.1741590  41.4009237  10.1125884  51.9055414
 106.9631100  18.6437500  51.3788033 107.3733044  17.7975595  51.2001133
 106.1083698  18.4222913  51.7484140  19.4239247   5.1535755  35.1684618
  20.2521372   4.7806233  34.8664641  18.9978409   4.4389063  35.6416774
   3.9294899  48.1376791  79.2740154   4.8539004  48.3349943  79.1231441
   3.6130333  48.8664961  79.8077917  66.0653400 107.4034214  92.0750713
  65.3359222 106.7964077  91.9496918  65.7540035 108.2309723  91.7083836
 113.9529133  37.2566319  48.0220222 113.5513020  37.0955181  47.1682119
 114.7541332  37.7407598  47.8223133  24.8908544  10.0539935  68.5473156
  24.3457603  10.8373260  68.4731960  25.0627208   9.9696541  69.4851732
  98.3296013  22.9820323  52.6777315  99.1194248  22.8369761  52.1567965
  97.6752758  22.4028516  52.2870445 104.8318577  44.8676729  67.7393770
 105.1670265  44.3392515  68.4637117 105.4325008  44.6902704  67.0155096
  94.4755459  88.1210613  75.1386833  94.9186993  87.2991753  75.3492641
  95.1806450  88.7131119  74.8768711 109.4452477   9.4155967  93.2440472
 109.9503231  10.0294089  93.7773037 108.9833546   8.8695031  93.8801861
  93.9299583  33.8274384  51.1682129  94.4567013  33.5392952  51.9137001
  93.7101650  33.0198121  50.7038164  14.1184711  21.9700766  70.0990057
  14.4234681  22.1573758  69.2112398  14.2471671  22.7907324  70.5746031
  95.7128334  13.2668698  71.6116810  96.1035347  12.4296260  71.3614559
  95.9913254  13.3998561  72.5177670  51.8077803 106.6527653  72.1152544
  51.8752384 105.7171249  72.3056889  50.8937502 106.8693542  72.2992897
 104.9049473  38.7525129  47.4228954 104.0743732  38.3510947  47.6782990
 104.8878765  39.6183705  47.8306103   6.4561063  23.3769584  21.6465902
   5.8268315  23.4114814  20.9261370   5.9802192  23.7318397  22.3974729
  70.6812906 105.7098198  74.6401215  70.3141022 104.8500061  74.8453617
  70.3347301 105.9173107  73.7723207  68.7021923  80.8799839  37.3888874
  68.4460068  81.0125923  38.3015823  68.4969807  81.7104530  36.9594288
  90.2696193 111.0263150  47.4357367  89.8400450 111.3186254  48.2396364
  90.9639276 110.4392889  47.7350187  49.8315239 109.1916847  17.8428221
  49.4398403 108.9449024  18.6806273  50.7697487 109.2472076  18.0241621
 103.7635994  20.2919245  62.7106857 104.0414333  20.9148860  62.0391512
 104.5474148  20.1450515  63.2401133  23.2461929  29.1586804  60.5532169
  23.3142257  28.7136674  61.3979435  24.1202307  29.5178604  60.4006433
  25.9274721  29.7252417  59.9464417  26.4824915  29.9038839  60.7055664
  26.3962531  29.0460181  59.4615364  70.8969307  98.1276703  30.3158283
  70.2056742  97.4782753  30.4449582  70.7248211  98.7958336  30.9792757
  90.3780651   5.9163117  86.7136478  90.3300285   6.8694627  86.6399765
  89.8158741   5.7050550  87.4589920  18.4059680  29.3224335  33.7608123
  17.4987650  29.5837975  33.6030006  18.8845217  30.1484776  33.8305998
  96.5148354  12.3240829  80.4543114  96.6199780  12.9276001  81.1898041
  97.2449589  11.7112112  80.5411339 109.9242496  56.9139719  55.1659346
 109.3113804  56.9185781  54.4306755 109.3742371  56.7662716  55.9352827
 101.5932751  26.4803505  41.7697906 100.8803749  25.9335995  41.4395237
 101.2662220  27.3761249  41.6869783 105.6964874  19.4616687  59.0707636
 106.2821388  19.4619143  58.3136272 105.5172920  18.5357857  59.2346525
 109.0824795  19.4036877  53.1448793 109.5950222  18.5952926  53.1396627
 108.3380985  19.2190289  52.5721407 102.1897697  42.5884390  61.2138367
 101.7178822  43.4193563  61.1579609 102.2982883  42.3129511  60.3035831
  94.6498394  35.2293468  34.2617035  93.7729931  34.9594212  34.5346999
  94.4991207  35.9518170  33.6521554  37.2948050  39.4829154  74.2360306
  38.2306051  39.4045639  74.0506363  37.0701814  40.3724003  73.9629126
 118.3678055  45.0058794  61.3297415 117.6147652  45.0022411  61.9206285
 118.2850647  44.1929007  60.8312893 115.3101158  47.2225666  83.5360432
 115.3052807  46.3654709  83.1099033 115.3549671  47.0247126  84.4714928
  97.7492619  28.0571914  77.3765802  97.0263100  27.4464107  77.2333193
  97.3522663  28.7932134  77.8423023  78.2430190 110.8410788  47.8962040
  79.1996832 110.8331702  47.8651762  78.0262164 111.6251184  48.4006929
  94.0203094  27.6410866  52.5955009  94.6001244  27.5467277  53.3512402
  93.3770657  28.2957149  52.8673887 105.9851265  48.5276270  79.9685049
 106.5352535  47.8736115  80.3996086 106.1031437  48.3610106  79.0333366
 109.0655613  92.7844143  51.1610794 108.3414936  93.2194519  50.7108593
 108.8841724  92.9182625  52.0913553  17.5867558  36.9220233  72.5865173
  16.7609322  36.7138720  73.0234623  18.1606293  37.2243142  73.2904530
   8.6933661  41.7948103  51.3362122   8.1141204  42.4648094  50.9731531
   8.7777346  42.0267200  52.2610521   9.2240739  26.4845467  56.3013554
   9.7610235  26.7604446  57.0441866   8.4951705  27.1048570  56.2892151
 105.3150082  42.3271799  62.6304245 106.2541866  42.1423292  62.6285124
 104.9534702  41.7373896  61.9688559  89.9093056  18.0948377  81.5505505
  89.4076729  18.8145816  81.9333839  89.4161224  17.8488517  80.7679367
   1.1251050  47.4977255  60.4737043   0.8520168  46.5836859  60.5523920
   1.9470896  47.4608564  59.9846125  74.2997408  93.0491734  93.6312675
  74.2941666  93.4909630  94.4803905  73.4172630  93.1833839  93.2856464
   4.3648160  60.4292822  23.1534910   3.5171431  60.0066233  23.0155015
   4.9704689  59.9383307  22.5981712  13.5625422  45.9083796  77.9548836
  13.0530465  45.3468323  77.3706675  12.9224765  46.2449598  78.5819864
  94.9033165   2.2988953  55.1172161  94.1217041   2.5190192  54.6104050
  94.8060322   1.3674274  55.3150415  83.4669304  36.1356854  73.9570856
  83.2950783  35.5877995  73.1912422  83.3437347  35.5493259  74.7035694
  18.6089206  28.8433075  68.2686663  18.4041393  28.5942030  69.1699123
  19.5478940  28.6787558  68.1821537   8.7557817  53.0684805  70.3775311
   9.6840161  52.9510832  70.1754665   8.3880258  53.4692621  69.5899010
 109.7584534  29.6747732  12.6923192 110.5254555  30.2015328  12.4676907
 109.0287590  30.1170421  12.2585201  49.2758036  44.8328876   7.1174842
  49.1503620  45.1104355   8.0249333  48.5456610  44.2382145   6.9457901
   7.3042279  10.0217474  81.7726231   6.6198182   9.7048032  82.3619938
   6.9978756   9.7808713  80.8983421   9.2311978  24.6530342  89.1896915
   8.2876080  24.5497918  89.3130302   9.5649803  23.7575912  89.1349220
 111.7130947  30.7631993  46.0086536 111.1264992  31.0190439  46.7204762
 112.3228264  30.1448679  46.4112902  80.7428837   5.9914899  42.1233511
  79.7917223   5.8842820  42.1173191  80.8769226   6.9377863  42.1761560
  91.5835381  27.7418280  49.8587275  92.2491932  27.1951723  49.4412327
  91.2440109  27.2023892  50.5728388  73.4120750  67.5162411  93.2563400
  72.6899052  67.6888323  93.8604259  74.0821266  68.1568575  93.4948254
 105.6371498   8.4668261  66.3894701 105.6772137   7.7427077  65.7647467
 104.8065281   8.3415532  66.8483877 116.9577026   7.3500049  47.7114868
 117.8433228   7.6829058  47.8567123 116.8515396   6.6586816  48.3649683
 115.2486134  16.4428663  71.2166882 115.7859421  17.2331977  71.1630106
 115.0112629  16.2525129  70.3091335 105.4391289  31.6322994  81.9353104
 105.4556084  30.7163382  81.6578674 104.8336506  31.6471863  82.6765347
  15.9545207  34.7219872  39.9803329  16.2722313  33.8245702  39.8806620
  15.5894113  34.7499704  40.8647203 114.6321201  48.3373070  47.3114729
 114.7095585  48.4448814  46.3634920 114.7733593  49.2157316  47.6645327
  20.2040935  10.3620720  75.9752321  19.3298101   9.9793839  76.0487795
  20.0461030  11.2785435  75.7486248 107.7922916  31.0208774  96.7789078
 107.1681404  30.6493092  96.1555195 108.1451607  31.7914772  96.3340569
   9.5238495   0.2978026  94.6415997  10.4517007   0.4220361  94.4418812
   9.0705371   0.5396180  93.8339710  32.7121878  38.2246399  63.4713793
  33.1981635  37.4831104  63.8322020  33.0254984  38.9807034  63.9678001
 106.6369534  39.4799161  45.3004217 107.5397968  39.2675686  45.5370760
 106.1187267  39.1950727  46.0531092  38.3718181  44.5166016  33.1957269
  37.5959849  45.0563622  33.3473086  38.1788111  43.6901283  33.6383533
 112.3452950  37.6960850  56.3425827 112.9421520  37.3944426  55.6577349
 111.6352654  38.1284690  55.8680964  18.9389861  15.6198835  80.9014797
  19.6369576  16.2703311  80.9788418  19.1457605  15.1409853  80.0989056
  97.3583412  71.2582922  84.4368553  96.7883015  71.8715620  83.9729691
  97.2946358  71.5200186  85.3553677  16.6346073  52.5238514  60.1466274
  15.8130717  52.6576281  59.6739578  17.1131301  53.3449364  60.0323391
 102.1837711  33.8133955  81.9405842 101.9695091  34.3029428  82.7347279
 102.6362133  33.0311370  82.2561932  83.2767296   9.9076873  26.8722057
  83.7363911   9.3891430  27.5325513  82.7724075  10.5456638  27.3770571
 117.4644274  48.7534857  76.0114670 117.7257954  49.5685387  75.5829668
 117.8784637  48.0655003  75.4904270 112.4551678   5.3733438  62.7357435
 112.3642635   5.9736949  63.4757090 113.3592129   5.4889196  62.4432087
  87.3264885  21.3188577  31.1908913  86.8158627  22.0207238  30.7873130
  87.1827221  21.4281297  32.1309018   7.8392434  13.8937199  54.1915417
   8.0334347  14.6557987  54.7372150   7.0809102  13.4863806  54.6101570
  23.0564785  60.6920385  89.4341660  23.7747169  60.1427031  89.1201687
  22.2661495  60.1905680  89.2338276  80.9890556  47.7985144   1.4576113
  81.3471317  47.0127153   1.8705630  80.7162952  48.3509493   2.1901742
  80.8760929   1.8711546  67.2095823  81.5527248   1.6410220  66.5728331
  81.0202789   1.2697813  67.9401922  15.6121624  39.5077324  53.4295273
  15.1910734  40.0361586  52.7515316  15.4875004  38.6037540  53.1405401
 100.9346771  29.3761039  40.7575226 100.2543068  28.7276888  40.5761814
 101.6774559  29.1005206  40.2203465  74.3392754  25.0394630  65.1412821
  73.8340139  25.4017687  64.4134903  74.1053867  24.1114044  65.1566601
 116.5540886  43.8219643  18.8180709 116.5724564  44.6364975  18.3156478
 116.8879128  44.0655375  19.6814704  29.7164893  34.0657115  86.5389156
  29.8775482  34.4559979  87.3979664  30.5376339  34.1880774  86.0624981
   2.5218856  40.2918959  41.0804987   3.4052122  40.3887606  41.4362812
   2.6376918  40.3520060  40.1322317   3.3143231   2.5075915  78.0971336
   3.4203404   3.4557185  78.1748962   3.8392732   2.2697741  77.3328638
  89.5820904  26.9991016  93.7225914  90.4457951  27.3636150  93.5292625
  89.6291351  26.0945392  93.4130955  90.2017689  46.3404942  66.4487839
  90.0770855  45.8345175  65.6458712  90.8392906  47.0137548  66.2110519
  79.8931551  24.3542290  80.0894833  80.7875061  24.3887711  80.4288673
  79.9817467  24.5621133  79.1593409   5.4535133  43.7260818  34.3763328
   4.9584135  43.2998085  35.0759029   6.0298836  44.3404293  34.8308682
 100.4231358  22.0183778  66.9089365 100.9108448  21.1949110  66.9254875
 100.8471680  22.5612855  67.5735235  16.2697434  10.0880969  46.7974758
  16.3979924   9.1566968  46.9771385  16.2336946  10.1451015  45.8426571
 103.0546665   7.6028830  24.5980477 102.9548264   6.7316020  24.9816251
 103.5791206   7.4591196  23.8103175 112.5101185  16.8680322  27.3950291
 113.1927967  16.6584980  26.7576265 112.1531200  17.7047765  27.0972967
  97.0513630  26.4395142  25.4329062  96.3066769  25.8761263  25.2224946
  97.7756882  26.0804367  24.9204183  12.1160746  39.2060685   0.4309587
  11.3313591  39.7069883   0.2083952  12.7198696  39.8548889   0.7924774
  63.7765789  15.6653202  35.1958489  63.1311560  15.4177260  35.8579326
  64.2933369  14.8717260  35.0565577  20.9715509   3.9318824  41.4440966
  21.4736819   4.6367499  41.8530703  20.1082230   3.9836779  41.8542337
  98.3864784  21.9575691  82.8394604  98.0086517  21.6702294  83.6706734
  98.8569450  21.1907911  82.5124359  79.3822670  95.2565002  63.0790043
  79.4404697  95.0023746  62.1579885  80.2755165  95.5063820  63.3154297
  80.6264973  98.3363628  62.7985620  81.5423012  98.5637760  62.6379108
  80.2067852  98.4130955  61.9417143   7.4099827  19.6253812   0.0264382
   7.9592925  19.2649412  -0.6696753   7.4306196  18.9615858   0.7157724
 105.1693439  19.3290901  47.5385523 104.7291088  19.1255212  48.3637619
 104.4726181  19.3034470  46.8827057  91.6345024  91.6815090  19.3518698
  90.8098316  91.9702053  18.9609659  91.7254639  90.7702255  19.0734470
 107.9366779  62.3654366  21.2038064 107.6089001  63.2559443  21.3294744
 107.3502636  61.9843721  20.5502462  42.1487665  87.9314709  40.6939840
  42.6775217  88.6025715  40.2623844  42.5873804  87.7830410  41.5317249
  43.1292057  99.4534683  22.6113224  43.8285875 100.0937176  22.4802423
  43.1652021  99.2473030  23.5453629 115.0220680   8.1017435  28.6637998
 115.0386333   7.3155451  28.1180429 114.3738937   8.6692667  28.2466507
  51.6344881 100.0413418   5.1338881  51.1909533 100.4141617   5.8958030
  52.2465324 100.7227516   4.8558459  82.3870373  94.5847416  22.7290702
  82.5055599  94.6491241  23.6767197  83.2747555  94.6254444  22.3733497
  74.2042446  86.0867786  11.3683093  73.3954048  85.5953884  11.5116179
  74.1870070  86.3103199  10.4377365  16.3350224  39.0861082  48.5021400
  16.1526680  38.3610702  49.0998840  16.7452216  39.7530627  49.0527248
 105.3416538   7.1245915  28.5930991 104.9391174   6.7944938  29.3963623
 104.8645592   6.6862732  27.8884768  67.2968388  99.0431595   7.2050285
  67.9055977  99.6582031   6.7959076  66.9194508  99.5309067   7.9370904
 114.2680359   7.1235031  11.7232609 113.3961678   7.5105023  11.6438448
 114.1300201   6.3245678  12.2320688 115.2758503  38.5902858  52.3697615
 115.0130081  39.2462420  51.7241096 116.1358738  38.2930279  52.0727348
  81.2784481 104.4915199  38.7483191  81.6715622 104.2203331  39.5778656
  81.0329914 105.4062176  38.8872910 106.0037422  21.3152456  17.4243951
 106.0623074  21.9405174  18.1467783 105.4417038  21.7456079  16.7800832
  23.4549069  55.2911329  37.4531674  23.8512826  56.0612679  37.8606081
  22.6482105  55.6189394  37.0556569  82.6100540  83.2330990   7.2854710
  81.9670868  82.5257778   7.2351688  83.3293438  82.9432774   6.7243510
  92.9922104 106.1322689  17.6356173  92.2125244 106.5450096  18.0070603
  93.7233639 106.6354370  17.9940343 108.9471531  46.3759327  49.9644804
 108.8262558  46.3969660  49.0151787 109.8888016  46.2517500  50.0833082
 111.6660023  99.6481609  60.6071711 110.7741737  99.9041080  60.3718948
 111.5689278  98.7861633  61.0118628 116.2794113  56.9318485  26.0610628
 116.5123844  56.4351702  25.2766752 116.9241142  56.6625500  26.7153406
  69.5457363 104.1475391  23.7641859  69.6946287 103.2299423  23.5359597
  70.3496933 104.4174385  24.2080712   4.4547510  17.2649372  25.9051704
   5.0742483  17.3228586  25.1777792   4.6657184  18.0159855  26.4598346
   6.8199801  30.6001496  70.3213215   6.9790846  29.8816657  69.7091961
   6.6307807  30.1678324  71.1541128  84.6966839   7.3530871   6.2296128
  84.8910332   7.3887879   5.2930295  85.0583076   8.1669497   6.5804571
  97.9835510  28.5570955  33.1817508  97.0313263  28.6444044  33.2251215
  98.3139324  29.4308710  33.3905435 108.5333920  16.2382102  17.8379762
 108.8510418  16.8413925  18.5099137 109.3268013  15.8440101  17.4755692
 100.2705193  15.7397640  28.9204979 100.3754807  16.2979877  29.6909547
 100.4368401  14.8537326  29.2422366 111.0960007  42.4469519  22.3307133
 110.8033085  43.1599045  21.7630339 110.7758522  42.6864386  23.2004142
   9.3690109  72.2863913  86.6513634   9.9149984  72.1464825  87.4250221
   9.7531271  71.7205715  85.9816265  97.8562641   9.5024604  15.6478214
  97.2612286   8.7532830  15.6178033  97.6845741   9.9108410  16.4963388
   1.0355405  11.6003847  25.2755380   1.9545604  11.7585862  25.0596523
   1.0118357  10.6896520  25.5691957 104.6344185   0.6217055  40.0025892
 105.0441170   0.0837248  39.3251252 104.3930435  -0.0002827  40.6889582
  99.8154354 107.7492237  37.5218272 100.2089500 108.0821037  38.3284044
 100.4264927 107.0788574  37.2161245  59.2455196 104.6720886  36.3815713
  59.8754597 105.0897121  36.9689369  58.7747860 104.0511894  36.9375706
  45.3600025  83.6389160   2.4807690  44.8211670  84.4048500   2.2826672
  45.4665089  83.1966877   1.6385566   2.1003808   6.5137786   0.3556269
   2.2208810   6.8228799   1.2534955   1.1509328   6.4627784   0.2452680
  76.7713261  94.6125984  49.0088558  75.9169340  94.2298603  48.8094616
  77.3908043  93.8935852  48.8843584 103.2097721  11.3659096  44.9016762
 102.3300362  10.9895039  44.8768711 103.5971546  11.1250448  44.0601587
  54.5520020  90.3515720  28.7749028  55.4746246  90.4154015  29.0217400
  54.4203329  91.0673332  28.1531525 115.1750660   7.8233677  42.9178762
 116.1203384   7.8930455  43.0514479 115.0306511   8.1757009  42.0396757
 113.0267715  61.7292261   5.8703345 112.8079510  62.6608944   5.8888894
 112.8767109  61.4659882   4.9623597  37.0367455  84.0989017   9.0124494
  36.8199039  85.0296402   8.9582008  37.9718637  84.0587616   8.8120222
  99.0206718  27.0259237  37.6463103  99.1586399  26.3616753  38.3215666
  98.1799316  27.4246597  37.8708005  61.8804789 109.8303699  27.0540547
  62.0518160 109.0904903  26.4714265  61.8961239 110.5960369  26.4798236
  87.6173401  85.1093197  47.2444487  87.0360661  85.3443623  47.9677105
  88.2082653  85.8575058  47.1592426 112.4909782  26.1143017  47.1280956
 112.3842049  25.9881735  48.0709267 112.5456715  25.2273035  46.7724705
  12.8043437   0.9942719  43.5144615  12.1917844   1.1350659  44.2363930
  12.4488282   0.2415011  43.0420494  47.7614641  79.6882486   8.0304676
  47.5017405  80.1237392   8.8423300  46.9807625  79.2069197   7.7565140
  96.1341858   7.6823264  21.6461492  95.5855083   8.3832300  21.9981670
  96.8236065   8.1376654  21.1628318  74.7836447  98.0702686  44.2558956
  75.4043150  98.7830162  44.4075203  74.1063356  98.4565353  43.7006617
  14.4763160  37.6332116  17.9512966  13.9184725  37.0392060  18.4534943
  13.8629162  38.2047677  17.4894583  27.7738690  16.2307870  59.9527168
  27.5934935  15.7273901  59.1588068  26.9094920  16.4209545  60.3172970
  74.9488401   5.6137174   7.2306639  74.4853783   5.9922284   6.4835596
  74.6305847   4.7122294   7.2782314 106.3140583  10.7601404  47.2587252
 107.0216370  11.4013445  47.1921730 106.0058117  10.8364701  48.1617117
 100.7769394   4.3400776  50.3022194 101.5977287   4.8091292  50.4523230
 100.9642696   3.4391519  50.5657959  97.8478909  45.3973722   1.1906418
  97.0442104  45.8829498   1.3765171  97.9474449  45.4537868   0.2403063
  98.9269733  24.3923402  67.8128958  98.5141754  24.4075799  68.6763811
  98.2393456  24.6825075  67.2135544 111.0185146  14.6740699  57.8829527
 110.6955433  13.8395846  58.2228851 111.2347698  15.1833022  58.6640692
  42.6673937  91.3075447  13.9821303  42.2028017  91.6616058  14.7404373
  43.5805178  91.2540627  14.2642128  85.5666637  36.5437126  20.6061888
  85.2807236  37.4081182  20.9015942  85.3477669  36.5244555  19.6745539
 107.1283436  30.1428294  49.5910120 107.0340729  30.8841491  50.1891708
 107.5104046  30.5211377  48.7990904  16.8174350  22.2789526  57.8793764
  17.0454669  22.0639515  58.7838125  17.6226532  22.6401830  57.5087452
 115.3709984   5.9385395  27.0584464 114.7700500   5.2063924  27.1964741
 115.3357983   6.1029112  26.1161208  11.7929649  89.0693951  90.2748108
  11.4203107  89.0034008  91.1540222  11.1541402  88.6337471  89.7105885
 103.5925102  20.1799798  38.6075830 103.1559849  20.9854388  38.8849211
 103.1648636  19.9473584  37.7834249  41.1092997  73.6735153  94.6957207
  41.7283154  74.3990946  94.7768784  40.2486229  74.0923738  94.6907520
   0.9523835  10.2555585  18.9771795   0.9694964  11.2113106  18.9274228
   0.4832178  10.0663888  19.7897863  99.9856853  37.3454428  25.1191425
  99.3008232  37.2313190  24.4602251 100.5127621  38.0748200  24.7929144
  95.5018425  15.8941138  58.4920311  94.8095703  16.3263667  58.9921761
  95.9853077  16.6116869  58.0826664  95.7638645  13.9213645  48.2367754
  95.3940201  14.5978796  48.8040304  95.1145935  13.8098001  47.5423479
  95.3632069  28.7329674  12.6098037  95.1932430  28.4376740  11.7152953
  95.4068661  27.9267573  13.1239522 117.0265198   7.8809983  15.1495314
 116.1915779   8.1115794  14.7421706 117.1148109   8.4947377  15.8787501
  68.3088160  89.1545582   1.6017517  68.1746006  89.9786377   1.1336663
  69.1264915  88.8071537   1.2454542  36.2516046  91.2806129   2.2131640
  35.3229094  91.4958096   2.2994545  36.2601089  90.3691101   1.9210421
 109.1058636  27.0098019  43.4412622 109.7922516  27.0009971  44.1083574
 108.5770512  27.7793789  43.6518526  74.5130634  44.8670626  92.5573444
  75.3275061  45.1068783  92.9993916  74.7318459  44.8854113  91.6256618
  67.6977337 102.8648143   1.2839574  68.0524957 103.6262565   0.8250684
  67.1210301 102.4469714   0.6443757  94.6833801  19.2751265  38.3892250
  93.8844299  19.7542238  38.6091709  94.4289303  18.3532929  38.4305787
 106.3370323  35.2615595  14.7060668 106.8631840  34.5814848  14.2854822
 105.6861210  34.7795868  15.2162099  81.9966793  15.1804161  12.9603410
  82.5549793  15.8846879  13.2897961  81.8453407  14.6191239  13.7207878
 102.6369572   4.8063555  15.3898931 102.1695423   4.1492185  15.9055746
 102.7010441   5.5649602  15.9701025 109.2276001  15.7539606  39.8611641
 108.3680153  15.4317808  40.1323318 109.0407562  16.5623951  39.3839312
  88.1332588  39.0902996  87.8623772  88.8607407  39.0118098  88.4794998
  88.2505226  39.9519038  87.4622345  82.3372173  35.6727242  39.2571998
  82.4949741  35.7068229  40.2006960  82.6959610  34.8281550  38.9847469
  68.3514214 109.0668488   4.6497607  69.1964579 109.5141411   4.6952766
  68.5450554 108.2318211   4.2237586   6.8303400  77.5264549  11.8774092
   6.5869522  76.9214821  11.1766958   6.2744766  78.2927847  11.7360389
 110.9501266  44.2719746  32.7156258 110.8248138  44.0427160  31.7947721
 110.8695602  43.4403086  33.1826091  50.6707668 107.0497036  30.0489259
  50.3949833 106.8133926  29.1633010  49.8583364 107.2813225  30.4989767
  82.8085899 104.4334412  46.7761326  82.0516968 103.8629436  46.9098091
  83.0741024 104.6899700  47.6592684  86.8791771 104.8754787  25.0297999
  86.8679619 103.9197636  24.9777079  86.0507011 105.1466274  24.6344113
  23.6469984  79.1499805  91.0828876  23.3032656  78.8051367  91.9069958
  24.5967269  79.0627193  91.1643028  13.2348514   7.8952479  18.8614810
  12.9867125   7.6076782  17.9828668  12.9569185   7.1808475  19.4347322
  57.9306984  72.1362782  30.0650477  58.0271626  72.1945572  29.1145062
  57.2141266  72.7367830  30.2703381  79.6420574   3.4829912  39.3128490
  80.0960922   3.1054261  40.0661945  78.7526703   3.6466685  39.6265841
  53.0330181 102.4399853   4.7411710  53.2461405 102.2383690   3.8300398
  53.8318300 102.2317791   5.2257144  99.3970966   7.1367633  24.4908118
  99.0723991   7.8438628  23.9333034  99.3086815   6.3489664  23.9543533
   0.5656516  38.5793591  40.1508188  -0.3274549  38.9156842  40.0768042
   1.0758673  39.3231106  40.4713583  21.1718273  32.8594923  82.6916122
  21.9220185  33.0320597  82.1226978  21.1926174  31.9133210  82.8350067
  61.6576290 110.2523613  48.2463408  62.5198174 109.8440170  48.1681347
  61.4417887 110.1800156  49.1760778 100.8219337   2.3668353  13.0024850
 101.4245224   1.6672304  13.2548320 100.9583759   2.4724509  12.0609653
  79.5093346  10.7083559  58.2789850  79.3325949  11.6481471  58.2366991
  78.6677694  10.2972555  58.0815172  55.7512474  73.0780649   2.3426703
  55.7178307  74.0026760   2.5880504  54.8340082  72.8239107   2.2411311
  95.5164814  33.3471227  14.0878367  95.2422428  32.4505186  13.8951409
  94.7008324  33.8123918  14.2735004  14.2874217   3.1202281  43.8179779
  13.7951934   2.2998670  43.7871599  13.6206961   3.7949097  43.9464808
  24.4907808  34.5570087  57.8975725  24.2588258  34.6964693  58.8157129
  25.0230622  33.7614727  57.9031849 116.5037441  37.1347809  20.1419830
 116.6772652  37.9907799  19.7503352 115.5861473  37.1761727  20.4112864
 116.2330151  32.9676342  29.7033596 116.2758827  32.9512954  28.7472606
 115.5155182  32.3726535  29.9211431  18.1024539  48.6941862   1.7752719
  18.8975644  49.0924215   1.4210916  17.5573671  49.4371700   2.0342830
   0.5476248   6.9825476  52.9347086   0.2653991   7.5409967  52.2103357
   1.4675286   7.2107065  53.0686951  83.6053371 105.7587624  91.8376541
  83.4183025 105.4643631  90.9462643  82.9079628 105.3737164  92.3683548
   1.4455354  50.9959745  33.1510496   1.5085469  50.8276558  34.0912247
   2.0441355  50.3634167  32.7538347 116.3997650  22.2766685  14.6256542
 117.2482586  21.9574499  14.3184245 115.7744980  21.6128540  14.3347585
  99.3915844  46.3615751  46.1900330  99.7524071  46.5772438  45.3300762
  99.9252033  45.6284666  46.4966726  18.3982432  24.7300792  63.9208984
  18.4739745  23.9285922  63.4031010  17.5009620  25.0279784  63.7713146
   0.7294750  28.9245820  46.0093260   0.1886440  28.1764698  45.7562160
   0.8552006  29.4149876  45.1969671 113.4417629  54.5911837  71.4332056
 113.0239487  55.3521156  71.8365002 113.0412865  54.5296240  70.5659914
 114.7721100  16.6352582  51.4907408 114.9679470  17.1711445  52.2593117
 113.8255405  16.4982617  51.5291548  88.2901955 109.4577885  53.9179134
  88.0357933 109.4957542  52.9959249  87.7492714 108.7596893  54.2870808
 111.5245438  16.8130338  30.4511261 112.4718952  16.9046259  30.3493142
 111.1845207  16.8324304  29.5565629 111.1505032  11.5784824  19.9454379
 111.3877964  11.3672566  20.8483839 110.4065418  12.1752632  20.0266480
 115.9967995  31.3870859   6.2394857 115.8888721  30.6679177   6.8618858
 116.7771816  31.1536598   5.7367384  20.1880741  30.4480934  39.6225500
  20.9124470  29.8278356  39.5401073  20.5888176  31.3050818  39.4769216
   7.9859513  34.4143653   1.7443927   7.4013305  33.6640668   1.6371498
   7.9573804  34.6082687   2.6813117  98.9248943  26.1994290  35.1728320
  98.8934612  26.3219476  36.1216378  98.4132767  26.9275475  34.8202300
  93.3852196  92.0795918  47.1135330  93.8031864  91.6036701  47.8311825
  93.9663601  92.8219414  46.9479179  33.8602757  82.9698658  80.1604366
  34.2197132  82.4421310  80.8735561  34.2034340  83.8496113  80.3170204
  22.0529509  85.1733685  94.1213608  22.1150231  86.1283302  94.1419792
  22.9566550  84.8724937  94.2163944 100.5398464  69.3284750   4.4979331
 100.2034664  68.6753798   3.8843030 101.1953926  68.8580322   5.0128871
  27.1988487  32.6471519  45.2679825  27.6112938  33.2806325  45.8551979
  27.9112387  32.3423791  44.7059822  63.8207769  64.5393038  87.3847485
  62.8926945  64.4691563  87.1611977  64.2165995  63.7502909  87.0145893
  42.9042673  29.8794603  21.3591218  42.4078941  29.7806692  20.5466676
  43.8208151  29.8575687  21.0839963   0.2183425  34.7913408  10.9706151
  -0.6277574  34.6793103  10.5372465   0.6495463  33.9418745  10.8773482
   5.4403871  29.2119265  42.0785379   6.1572146  28.6060691  41.8905783
   4.8863751  28.7415814  42.7014971  83.2246399  98.9139938  53.8455439
  82.8442192  98.4339237  54.5811081  82.5273895  99.5033455  53.5579109
  67.9726171 101.5858650  31.2580633  67.0513821 101.5658665  31.5172052
  68.1636333 102.5142002  31.1240840  37.0068550  14.9735284  36.3826632
  36.6594005  14.1664720  36.0029697  36.2383604  15.5309355  36.5049148
  16.8403053   7.5153381  46.9107723  17.4198020   7.3391002  46.1695862
  16.6444206   6.6510183  47.2724533  25.4212737  72.9970598  54.9445009
  25.9189844  73.2593012  55.7189322  25.7344675  73.5773611  54.2506742
  57.6813459  94.9333096  30.4509687  57.1984959  95.7371902  30.6429601
  58.3612776  95.2038765  29.8339462  89.7478390   3.2276353  49.7070074
  88.7989044   3.3068863  49.6096373  90.0594616   4.1311398  49.7599363
 115.7167721  14.8448229   2.1487086 115.7727528  14.8477674   3.1042659
 116.5865231  14.5697606   1.8586814  30.8371925  85.9167290  81.0741901
  30.7146358  86.4329529  80.2774906  31.7783237  85.9579659  81.2438965
  23.2369494   9.2659205  40.1223803  23.1738400   9.0324545  41.0485220
  22.3777533   9.0476966  39.7612786  91.7218876  12.6245582  32.3862362
  91.5757656  12.8564286  31.4691138  91.9303894  11.6905439  32.3668528
 102.8523731  44.9213362  37.3995757 102.3780632  44.2872190  37.9373145
 102.4265480  44.8754501  36.5435386  96.3895035  27.4993181  38.2479477
  96.4749908  26.5609670  38.4165311  95.5112934  27.7194452  38.5586381
  91.9900227  58.2522488  36.3366628  92.2204113  58.5061121  35.4429603
  91.3027668  58.8680840  36.5909529 109.9217510  22.3965454  21.2196445
 110.1386261  21.4730406  21.0918307 109.9930763  22.7823806  20.3465605
  80.8000469 106.6469193  32.9014206  81.6279316 106.9871044  32.5621414
  81.0572720 106.0335922  33.5898256  95.8032990  30.5862188   4.8777604
  94.9776554  30.1206255   5.0110787  95.5973816  31.2574959   4.2272100
   3.2651049   2.2420771  27.3293757   2.9550466   1.3645175  27.5529480
   3.2435596   2.2672209  26.3727474   3.8739493  65.4693890  77.7291059
   2.9619157  65.3077364  77.4876642   3.9174038  65.2517557  78.6602211
  84.8307228  64.8539829  31.3304138  85.1418972  65.7450914  31.4895701
  85.3948212  64.5246983  30.6306982 106.8253517  56.1212397  17.9793978
 105.8816242  56.0670042  17.8288436 106.9301891  55.9344339  18.9123189
  45.1517200  15.3437734  15.8855653  44.9859905  14.8157847  16.6665852
  44.7360468  16.1854327  16.0728037   1.8098488  38.1744289  52.5370836
   2.1803519  38.0576015  51.6622639   2.5555938  38.0730081  53.1285334
  44.1517067  46.6026497  43.5067987  43.3539295  47.1239233  43.5965204
  43.8715649  45.8140755  43.0421543   1.8754609  26.9001222  58.4355688
   1.1636317  27.3546672  58.8860369   1.4703554  26.1053896  58.0884075
   5.1300478  28.9185262  32.8792095   5.2466118  29.8225331  32.5869513
   5.1063222  28.9767671  33.8343406   1.0666955  39.6014595  35.9946775
   1.0323808  38.9643812  35.2811050   1.1381765  39.0696478  36.7873287
   6.8065983  13.4243572  30.5528259   6.8775278  14.0322256  29.8168254
   7.6287502  13.5306740  31.0313606 104.0336418  12.0530045  23.3001947
 103.7051487  11.5394711  22.5622201 104.1464233  11.4148927  24.0046978
 115.0144672   8.2606304  63.5080719 114.4608593   7.9158753  64.2087078
 114.9024868   7.6407528  62.7873468  99.8555565 109.2708206  45.3817749
  99.9908161 109.0219402  46.2961006  99.4977665 110.1575661  45.4253435
 112.9596710  29.0463734  47.4727440 113.2162762  29.6262074  48.1898117
 112.6167011  28.2654572  47.9072237  22.9124713   4.8394674  43.2726192
  23.6498332   4.4147155  43.7109280  23.2897615   5.2116376  42.4755144
  74.5335245  99.0806866  33.7908244  74.2896271  98.3358860  33.2412648
  73.7703466  99.6578407  33.7644982 113.7296295   4.9132389  58.8503027
 113.7154388   5.7175779  58.3315849 114.5981884   4.5426220  58.6938381
 117.4510670   9.2320877  27.7773929 117.6961517   9.7335851  28.5549974
 116.7199421   8.6855567  28.0654645 113.6148071  25.8377266  40.6325865
 113.1056499  25.6718349  39.8391914 114.3660927  25.2487397  40.5625677
   8.0448866  10.6121886  22.0777178   7.9350883   9.8435748  21.5178895
   8.1899357  11.3346922  21.4668322   0.1231684   4.1093415  21.1613631
   0.2680378   3.8811982  22.0796180   0.1398667   3.2704800  20.7006407
  99.5625496 109.5555210  52.3195505 100.0791264 110.2087975  52.7913570
  99.7180557 109.7492218  51.3951445 101.2642288 103.0477142  52.3660374
 101.8957710 103.3773804  51.7267370 101.0251713 103.8159275  52.8846312
  93.2580757   3.5697338  33.1965542  93.2372665   3.7004372  32.2485495
  94.1536522   3.7936592  33.4496021 115.8346939  80.0497723  50.6334639
 115.3865147  79.2847919  50.9942579 116.5473938  80.2221203  51.2487650
  18.7316120  16.8814647  56.5605831  19.2193460  17.6854455  56.7393637
  18.1665659  17.1036458  55.8205891  96.4417553  34.5974398  38.8603497
  97.3519230  34.3302822  38.7320924  96.3407612  34.6553946  39.8104405
 113.7484169  48.7446213  33.2836151 113.9187717  47.8732634  33.6413145
 113.4091759  49.2458296  34.0251923  99.3382454  21.9413018  39.4771099
  99.1565132  22.0325541  38.5417604  98.5913658  21.4501452  39.8194146
   6.4715481  29.7334909  66.7228460   7.0453632  29.4054556  67.4152040
   5.6118286  29.8041582  67.1377182  28.5959363  20.2078319  31.1602139
  28.4227633  19.2695940  31.2373495  27.8762245  20.5409575  30.6242323
  47.8687954  48.2909393  19.4861400  48.2207918  47.6151943  20.0655341
  48.4429789  49.0448523  19.6209037  24.2032361  48.5166454  27.3402262
  23.5297513  48.7121773  27.9917002  23.7158537  48.3605051  26.5313315
  10.2400541  50.8923721   8.0289799  11.0332465  51.2202168   8.4527671
  10.5453718  50.5287695   7.1978337  30.6211853  79.6082830  92.7118778
  29.9182320  80.2483463  92.6004696  31.2060785  79.7633648  91.9702053
 104.8283100 109.9778080  31.7388654 104.0513802 109.9836349  32.2979617
 104.4825268 109.9080658  30.8490348   0.1902023  32.5975776  32.1487451
   0.8788563  31.9959235  31.8658972  -0.5448851  32.4119377  31.5644360
   1.3510679  29.0517449   9.9956101   0.9902628  29.5548558  10.7256317
   0.7545310  28.3095217   9.8982519  61.3771391 109.2252922  29.6671462
  61.5369558 109.5367336  28.7762547  61.8698120 108.4067822  29.7267270
  14.8204350  40.8737421  37.9758835  14.7032750  41.7542362  38.3325839
  15.1195550  41.0169268  37.0779657  42.7486086 109.2848301  37.3818707
  42.9456472 110.0222015  37.9595375  43.3877420 109.3583775  36.6731191
  19.8270476   8.5846269  23.2298493  19.2914617   9.0973020  23.8352776
  19.1944659   8.0777252  22.7208090  91.1636257  93.2519341  54.4972038
  91.1015511  92.3500156  54.8117352  90.2879620  93.4507751  54.1656733
  94.1124821   7.2641742   9.5884019  93.8420486   7.5352502  10.4656780
  94.2148495   8.0841309   9.1052622 110.6324768  80.8466625  21.1452556
 109.8321247  80.6945610  20.6427360 111.3157368  80.9479713  20.4825950
  16.0426533  11.9292712  19.3228900  15.5525160  11.9373536  20.1450396
  16.9133604  11.6147947  19.5662117  15.8873260   1.5603830  25.5288529
  16.2984717   2.3372734  25.9078431  15.7834494   0.9600914  26.2671566
 107.9291153  27.4272299   9.8237401 107.0011520  27.5325632  10.0335550
 108.2048225  28.2909560   9.5168203  11.5186846  46.1587000  32.5441957
  11.2397504  46.5312147  33.3806539  12.4659610  46.2948751  32.5253534
  93.5288048   5.4972178  38.5568285  92.9747486   6.2775642  38.5389614
  93.2925987   5.0543839  39.3719006  82.9727745 108.1486988   5.6261212
  83.6375523 107.4875069   5.4334229  82.3971748 108.1396008   4.8613739
   5.4039854  46.3160753   8.8155288   6.3496172  46.3661289   8.6758578
   5.3065735  45.7889032   9.6085215  10.2744377   4.6764642   7.2438937
   9.4520158   5.1632875   7.2973454  10.7043517   5.0179046   6.4597869
  36.5576625  36.9449925  10.2226806  36.9857550  37.2753167  11.0125244
  36.8149090  36.0240865  10.1781285   7.5415230  67.2585869  17.3758721
   8.4596145  67.0232582  17.2418523   7.3904192  67.1115589  18.3095658
   4.7135517  49.1712856  27.4875426   5.4443997  49.3764353  28.0706429
   4.2703176  50.0092745  27.3550820  30.7888222  44.8299694  24.8773122
  29.9828053  45.1784468  25.2582717  30.8572817  43.9433146  25.2314186
  29.3251300  76.0646629  12.9583967  28.6117077  76.5574408  13.3638978
  29.9113035  75.8507538  13.6842585   5.4196602 105.0491810  24.3378282
   5.0571293 105.9153843  24.1521001   4.6690184 104.4580269  24.2803717
  71.5067816  97.7006721   5.5125135  70.9470844  97.3068237   6.1817282
  71.3703966  98.6430359   5.6104732  75.6217098  85.9625244  15.8562422
  74.8371887  85.4156876  15.8147013  76.0530138  85.8270931  15.0125206
  55.6352329  71.5617514   4.6515366  55.4181385  71.5968084   3.7199396
  55.9747791  72.4341202   4.8513317  41.9446516  32.9401660  88.9225864
  41.1731195  32.5657439  88.4974098  42.6688528  32.3821664  88.6390400
  22.9148459  35.7071996  81.6433811  23.0206466  34.7625375  81.7558575
  23.7260795  36.0816360  81.9867802   8.9499140  34.1796231  80.7860279
   8.8498372  33.2450414  80.6049824   8.0540293  34.5156074  80.8131695
  62.9865789 101.0887718  10.5300331  62.7738094 101.3318920   9.6290034
  63.0090666 101.9203472  11.0035443  26.5505219  37.2912693  78.8995552
  26.7013693  36.6443944  79.5887804  26.4035368  38.1121111  79.3694973
  94.3692780  24.0236092   1.8071496  94.5425224  24.8614073   1.3778292
  95.0909805  23.4589529   1.5304746  98.2699871  94.4784451   4.9426383
  97.8165245  95.2902031   5.1698977  97.8133488  93.8012123   5.4417062
  42.8814125   9.0733963  18.5151386  42.2562885   9.4606471  17.9023659
  42.5070524   8.2194203  18.7314975  25.9645104  49.1059446  78.6290646
  26.5568519  49.0488911  79.3788052  26.2592864  48.4134150  78.0376816
  89.6532345 101.7588234  40.3829765  89.9735546 101.0178566  40.8973646
  90.1310444 102.5135612  40.7269192  53.9953184 105.7376003  13.0285156
  53.4275532 105.7892227  12.2596145  53.4349918 105.3781319  13.7163007
  38.2898474 100.4298878   5.6155634  39.1908836 100.1706028   5.8082551
  38.3770084 101.1773300   5.0239855  55.2320242  37.5297046  81.8057251
  54.5464849  37.8110528  81.1998272  55.9955454  37.3765612  81.2491131
  77.3064709  77.0397425   9.0118968  77.0199299  76.4348936   9.6962112
  77.8382158  77.6885080   9.4729584  62.1560907  94.6219444  16.7943454
  61.2451172  94.9156857  16.7854595  62.6666546  95.4273891  16.8769252
  23.5962248  33.9944959  85.9148693  23.1182647  34.1358829  86.7320538
  23.7857151  33.0562687  85.9074783  53.2522964  63.9865065   1.8250342
  53.1200981  64.6698952   1.1679682  54.1248703  64.1596031   2.1784210
  44.5544624 108.6817074   8.4521097  45.1229572 108.4730339   7.7108270
  43.8971281 107.9859066   8.4531492  58.1153440  82.8627396  12.7635431
  57.3489618  82.8804493  13.3367538  58.5918093  82.0747852  13.0249584
  85.5264759 106.1966705  13.6705494  85.7355595 106.7005730  12.8840375
  86.3563538 105.7923031  13.9235818 108.4262276  23.0322266  87.8367805
 109.3220615  23.0781054  87.5026989 108.3966160  23.6877680  88.5336399
  50.0858355 108.0967903  33.7814951  50.7204151 107.3925400  33.6489177
  50.5291748 108.8821888  33.4608150 110.9610844  13.6432338  13.6984432
 110.3013134  12.9586303  13.5877514 111.6605186  13.4022665  13.0910206
 101.7544365  96.4060688  10.0385964 100.9444046  95.9051991  10.1345098
 102.1620178  96.0531807   9.2476666  80.3543568 106.4412022  14.0650272
  79.9815321 107.2301388  13.6715531  81.2928391 106.5058517  13.8880706
 103.8955021  15.6235313  73.9022493 104.0717697  16.4419639  73.4382105
 103.1072712  15.8036482  74.4145727  57.8444672  95.5782890  21.7975402
  57.2992897  94.9032974  21.3933086  57.9595232  95.2839184  22.7010560
  56.9706821  65.7090044  20.4521513  57.2907686  66.6110897  20.4480863
  56.4283419  65.6508398  21.2387347  68.7909365  20.3701353  80.9138489
  69.5690441  20.8298159  80.5984497  68.1931782  21.0677171  81.1827374
 106.1399114   0.7529400  24.4269347 105.6804169   0.0105427  24.8193002
 106.3143623   0.4780434  23.5268068  88.6748219 105.5671024   8.9146435
  87.8424454 105.5492973   9.3869412  89.1983223 104.8793125   9.3259060
  21.2607908   3.3961856  29.1573286  21.9420791   2.7443013  29.3220282
  20.9206963   3.6118335  30.0256968  81.8284702 110.1717472  31.5200377
  82.4029922 109.4545555  31.7879748  81.8586349 110.7887363  32.2512317
  22.5113964  31.0090470  56.6687679  22.2671175  30.1087117  56.4544010
  22.1471024  31.1546397  57.5418806  54.2221117  21.5053201  89.6094322
  53.8383818  22.3699737  89.7555828  55.1654577  21.6643023  89.5770264
  59.9342012 104.1586685   0.6860191  59.9141455 105.1021862   0.8460809
  59.1566563 103.8234329   1.1324102 107.7042675  97.2850513  11.1630714
 108.0985069  97.2472572  12.0344961 108.4430790  97.4302673  10.5720460
  85.5176735  28.2465219   0.3721621  85.6832504  27.8654599   1.2344874
  85.7354927  27.5475144  -0.2444200  58.2393074 110.9863377  46.6427040
  58.8287497 111.7274380  46.7825794  58.7924290 110.2143955  46.7627144
 107.6172924  10.9836018   2.5365445 107.8385258  11.0421097   3.4659865
 107.1586800  11.8022430   2.3475105  66.7396975  38.0948281  91.1614323
  66.8016195  39.0419793  91.0377312  65.7994652  37.9187775  91.1961365
 110.0411034  40.5833483   1.6577613 110.3317165  39.8626304   1.0988879
 110.7967091  40.7755327   2.2130600   3.0343124  33.0108643  85.8550358
   2.0859393  33.1405544  85.8559418   3.2744288  32.9925132  86.7814445
  23.1831956  45.0466728  86.9742966  22.3045802  44.7233915  87.1736813
  23.6234760  44.3041563  86.5607071  21.8693900  11.4533937  44.6290922
  21.6584730  12.2405982  45.1311445  21.6400027  11.6761088  43.7268686
  63.3571148  99.0046310  17.8517044  64.1466188  99.1846180  18.3621120
  62.8286314  99.7977829  17.9403102   1.9499265   1.1695495  16.5032279
   2.2045726   1.7863443  15.8169687   2.3805159   1.4981630  17.2924280
  34.9508762 101.6469669  40.5747271  34.2252564 102.0934868  41.0109949
  35.3525281 102.3214149  40.0269794  51.1796045 101.0090542  37.9990172
  51.5862036 100.6220627  38.7743545  50.7343054 101.7903900  38.3268309
  89.3850708  95.8671474  25.1347208  90.0685883  95.1972103  25.1201010
  88.5897160  95.3926086  25.3765059  75.0775003 101.9874573  14.2535806
  75.8693838 101.5581799  14.5774281  74.5873594 101.2895107  13.8189971
 115.1642704  55.5980587  39.0985632 116.0691071  55.6077003  39.4106579
 114.9601078  54.6698570  38.9845514  98.2195568  90.0601196   0.0277678
  99.1138744  89.7908497   0.2373612  97.9217243  90.5291080   0.8072424
  77.3126888 100.2768517   6.1237925  77.3600006 100.8934879   5.3932130
  77.8562069  99.5382500   5.8493906  72.3288965  98.3471489  22.8233767
  72.5774479  97.5809193  23.3404303  71.5469122  98.6865044  23.2587767
   6.5159398   3.9737132   5.7215220   6.2930119   4.8917007   5.8759046
   6.5968579   3.5963118   6.5974516   5.6209189  35.4511929  90.8313847
   5.6002349  35.9253383  90.0001240   6.1884719  35.9783316  91.3937378
  64.9829912 105.0341702  34.9186492  64.5124340 104.6894073  34.1597390
  65.3781414 105.8480167  34.6060133  84.2544460 110.3451633  14.2882836
  85.0505257 110.8635712  14.1710579  84.3657589 109.5988178  13.6993742
  33.6516118  59.1541576  93.7122536  32.7500844  59.2910957  93.4211731
  34.0382266  58.5942221  93.0390263 101.9040298  84.1774178  25.3850722
 101.3150883  84.9318886  25.3969526 101.5752697  83.6281204  24.6734405
  86.8133259  23.3859968  23.0446053  86.5495968  24.0595531  23.6715055
  86.1057472  23.3683491  22.4001980  62.7128601  70.0716686  15.6670177
  62.0811796  69.4400215  16.0108626  63.5656118  69.6637297  15.8174658
  52.3047733  98.2455540   7.7659863  53.0387735  98.8107491   8.0068791
  52.6447630  97.7010059   7.0559824  42.1909094  98.7559891  12.7060616
  41.4368963  99.3311787  12.8358853  42.0927191  98.4306622  11.8112159
  96.0715008 100.3759193   8.6891103  95.8101082 100.7640171   9.5241487
  95.5318546 100.8236694   8.0375409  30.0233817  51.2462854  84.1101456
  30.6847930  51.0104704  84.7606564  30.4027581  50.9759140  83.2739639
  63.4767962  53.2622099  12.5710213  64.2623138  52.9378700  12.1305692
  63.3885431  54.1660690  12.2685587  71.5923405 110.9709454  37.5967264
  71.7110491 111.1184788  36.6584444  72.4798489 110.8503723  37.9343963
 107.9938698   7.4653447  47.6283503 107.8443336   6.6126567  48.0367517
 108.8762283   7.4041915  47.2623873 107.8370190   8.2054323  11.0871482
 108.2078743   7.7064598  10.3593242 108.1776714   7.7745932  11.8710887
 101.0228539  16.2248361  10.9908521 101.4882374  16.9155514  11.4626241
 101.6923428  15.8170152  10.4415739   4.9521482   3.4130615  38.2830215
   4.6019590   2.8008661  37.6358604   5.4792172   4.0268424  37.7714515
 108.7220764  92.2505856  29.4833040 108.6171436  92.5825024  30.3749609
 108.3845901  91.3556004  29.5196271  59.2318916 107.5045586  21.8552470
  59.4036198 106.6691494  22.2898006  59.9394941 107.5922489  21.2166214
  48.6331511  92.9311943   1.7286621  48.3646584  93.6653709   2.2810474
  48.8268948  93.3285522   0.8796625   6.3561124  32.6766038  94.6720505
   6.8834931  32.6647091  95.4707718   6.5473330  33.5246205  94.2713833
  81.1781025  95.5927467   8.3923286  80.9053516  94.6956444   8.5847759
  82.1110249  95.5213356   8.1903571 106.9052601  90.2175140   3.6652276
 107.2477913  89.3294907   3.5636318 107.1288776  90.6558609   2.8442079
  72.4726105 105.0912285   0.7970770  72.0063543 105.7377243   0.2671000
  71.7989969 104.4617176   1.0543609  91.2686729  39.4278359   4.6435544
  90.4566956  39.4744110   4.1388124  90.9857178  39.2181325   5.5336058
  91.1269379 101.7235470  43.4464407  91.5920353 100.9071922  43.6294317
  90.2014828 101.4792824  43.4560442  80.5529976   8.2742304  28.8338423
  80.4176044   9.2043030  29.0151310  79.7640371   7.8476959  29.1682673
  89.9580669  90.7450771  41.1176968  90.2669144  91.1738014  40.3195477
  89.4747257  89.9796200  40.8067417 111.8377304   4.8397323   9.9692017
 112.7378845   4.6085674  10.1983476 111.8504524   4.9372226   9.0170646
  96.1221600  71.5408707  11.3728452  96.2707043  70.7796860  10.8118021
  95.1701069  71.5950298  11.4559233  57.5497818  82.3153019   9.8786891
  57.4785614  82.5052357  10.8141482  58.4609890  82.0485401   9.7571486
 114.4804668  34.6548676  95.5001163 114.3187332  34.2989469  96.3738441
 114.3555641  35.5987096  95.5990887  21.8236852  67.1457863  92.0083046
  21.7025375  67.9152679  92.5645828  20.9974289  67.0617962  91.5324020
 109.0791702  11.7443752  16.1048281 109.0415955  11.3157570  16.9598770
 108.6931992  12.6077628  16.2525415  85.0762463  19.4149840  36.4035082
  85.0970459  18.6939144  35.7743359  84.8122025  20.1762152  35.8867478
  40.4138565 107.5943851  21.6860938  39.9553585 106.8143845  21.9985342
  39.7916150 108.0169201  21.0940576  52.4139595  98.6090374  17.3470664
  52.1266556  99.1731262  16.6290927  53.2334423  99.0021420  17.6473117
  79.6443510 102.2101402  32.2798014  80.0235081 101.4745331  32.7608013
  79.9661350 102.9868698  32.7373791  75.8223152 100.6314659  21.4678240
  75.6514120 101.3845825  22.0333576  75.8534527  99.8848915  22.0660591
  59.6388721  79.2809725   0.4170487  59.1512918  78.4953356   0.1695223
  60.2165556  79.4488430  -0.3274869  34.7618484   7.3591751  58.8624907
  34.7795463   7.8826481  59.6636772  34.9065495   7.9923975  58.1594086
  27.4516296  58.3304501  68.9368010  27.1513700  58.8489866  68.1903458
  27.1784854  57.4360800  68.7325191  39.1467667   7.4477136  80.8787918
  38.6232924   7.6603276  81.6514587  39.9252605   7.0144415  81.2287331
   9.6474928  57.9961443  75.2075720  10.1843560  58.7688398  75.3835154
   9.8759693  57.3818493  75.9051895  89.0887356  96.8238449  18.6222637
  89.4281578  96.1137581  18.0774748  88.9491367  97.5480652  18.0121422
  99.5761204  10.9832072  41.3902903  99.1862679  10.3286803  41.9698143
 100.3562927  10.5558455  41.0368443  83.8788223 105.6686401  30.5459499
  83.2034492 104.9916553  30.5883408  84.5540524 105.2980709  29.9776435
   6.4587623  52.5440836  78.2383347   5.6814080  52.3933649  78.7761402
   7.1446943  52.0248270  78.6579847  38.1054449  17.3346293  69.6691275
  38.5305309  16.4859676  69.5454073  37.8041720  17.5813448  68.7947130
  78.9048815  72.1619749  16.3196802  78.6758184  72.9759455  15.8711076
  79.6322632  71.8043947  15.8104789  56.1949587  82.8445911  27.8103161
  56.6296673  83.6968327  27.8411078  55.5326223  82.9381657  27.1256375
  80.3855896  87.2483158  28.1922960  80.0721741  86.3828087  27.9298139
  80.2988625  87.7837849  27.4036360  83.0544186 100.3424358  16.3501406
  83.2919502 100.2350235  17.2711587  83.1342793 101.2828159  16.1903036
 108.5591125  21.3879633  39.8574471 107.7013683  21.8067741  39.9289346
 108.4229565  20.5036569  40.1975918  27.7005720  56.3867855  36.4695859
  27.1981764  56.6713142  35.7061243  28.6063457  56.6127491  36.2580466
 107.8942680   4.2290062  13.5102463 108.7360096   4.2890126  13.0584610
 107.6062107   5.1372457  13.6016309  29.5386195  56.4310503  87.5602913
  28.9447427  55.7597923  87.8963661  29.2291784  57.2451735  87.9573917
  89.7511101 101.6365528  70.6741285  90.3885937 101.0350513  70.2893496
  89.2200661 101.0864830  71.2500143   9.3923759   6.1620831  15.8681107
   8.4452486   6.1217004  16.0005891   9.7626913   6.0010827  16.7359686
 100.3366280  13.4618187   4.7421673 100.7054138  12.6691461   5.1319093
 100.5635452  14.1591167   5.3574014   3.2491902   6.5095943  25.2554488
   3.3397669   7.4133480  24.9533606   4.0589795   6.0817510  24.9771976
  77.6265955  83.0681133  52.8454113  77.4108267  83.8783550  53.3071375
  78.5792303  83.0015373  52.9108763  62.7683687  98.4421253   8.0374229
  63.4017515  98.3365631   7.3275536  63.3033895  98.5017014   8.8288999
  38.9152408 105.1452732   5.6233561  39.8525000 105.3280258   5.5571681
  38.7048030 105.3033352   6.5436625  85.5898857  91.0020924   7.3414326
  85.1320839  91.0133934   8.1819797  85.2287769  91.7477226   6.8619847
 117.5159645  32.5929523  38.5088801 117.7401066  33.3110237  37.9169655
 117.6778221  32.9447389  39.3842554  86.8805218 101.8169212  11.4875937
  87.3876572 102.6257133  11.5574896  86.2129688 101.8931103  12.1693623
 108.9364529  15.5898118   6.4970070 108.3028793  16.2474859   6.7838585
 109.7206211  15.7705879   7.0153046  38.6712337   5.1378798  17.8327489
  38.3237219   4.3262136  18.2024324  38.0565619   5.8136874  18.1185722
  90.6607056  89.2212200  10.7485139  90.9630775  89.8719120  10.1149476
  91.4600086  88.9137554  11.1760736  87.2135735 110.4401588  16.7670786
  87.7800274 109.7045612  16.5341341  86.4329815 110.0320721  17.1417367
  92.4015331  29.1756201  24.3200183  92.2866154  30.0120497  23.8690066
  93.1279945  28.7538767  23.8610840  69.7465515 106.0200119  10.7332051
  70.6210136 105.6433487  10.6348813  69.7699690 106.8200684  10.2082407
  77.9832888 103.3676910   6.0039502  78.2868624 102.8184700   6.7267442
  78.7070799 103.3608818   5.3776020  15.3344679  11.9572055  31.4307213
  15.4804242  12.1615863  30.5070567  16.1315763  11.5034378  31.7044806
  80.4087448 105.8436966  22.8093839  80.0192070 105.0561714  23.1892395
  80.1458645 106.5496826  23.3999062  97.9046917  16.0609424   8.4323573
  98.3316517  15.9306633   9.2790943  96.9688320  16.0598588   8.6333340
  22.0738220  53.6995745  87.0173359  22.1594095  54.5665169  86.6207027
  21.1686063  53.4435749  86.8404675  57.1673203  44.2816591  84.7121906
  57.8839922  44.1080141  85.3224850  57.4649191  45.0343895  84.2012405
  25.3294325  82.2870636  93.0002689  26.2160063  82.0437908  93.2667923
  25.2124166  83.1745052  93.3393669  99.2400169 100.1403618  71.9341803
 100.1241398  99.9953842  71.5972281  98.9738178 100.9782410  71.5555954
 101.6038132  85.6035137  74.7735548 101.3594151  86.0832596  73.9821386
 102.4708652  85.2473927  74.5796061  50.3603792 103.1386662   4.6899834
  50.0402498 102.2888374   4.9925631  51.3132381 103.0713081   4.7512382
  39.4187999  39.3117714  95.3306961  38.4981370  39.4408822  95.5586052
  39.8222542  40.1686811  95.4691219  25.0573087  14.1875529  16.6747141
  25.6720185  13.4674585  16.8155229  24.2013836  13.8175249  16.8908203
  71.2300396 102.1607113  14.6314383  70.6193876 102.1198177  13.8954592
  70.6698799 102.1625423  15.4076135  49.8249292 110.0197315  20.6001663
  50.0351381 110.9535503  20.5965948  49.0275383 109.9557304  21.1258101
  10.9217179 110.2646828  42.4285603  11.1925018 109.3928719  42.7164030
  11.7374086 110.7623672  42.3721218   7.0932335  31.3092017  50.9258747
   7.4564421  30.4266644  50.9996462   6.6886848  31.3299870  50.0586128
   3.7461445  20.6060839  21.6520905   4.1986632  21.2142634  21.0676455
   3.1465411  20.1262140  21.0807467  43.9088869  47.0269012  93.7067032
  43.4700251  46.1787367  93.7718582  44.6968222  46.9305944  94.2416000
   2.1170741   4.8229194  31.4129424   1.6459151   4.1974247  31.9633937
   1.9041848   4.5614395  30.5170965   8.6307788   1.7118588  10.7401824
   9.1359854   2.4901535  10.9752488   9.2790329   1.0087582  10.6995845
  72.4639320  12.5006402  25.0457501  72.9298115  13.3029675  24.8102546
  71.7774582  12.4191701  24.3836665 103.4478664  38.1734204  33.1021309
 104.2334175  37.9291892  32.6127625 103.7432480  38.8568616  33.7036991
 109.8463631   7.8725308   7.1505064 110.7606316   7.9682612   7.4173152
 109.3850708   7.6385427   7.9559147 117.8363994  55.7715082  50.6197453
 118.2588343  55.7833624  49.7608852 117.5848399  56.6818285  50.7755136
  72.8040218 104.2766380   7.3704767  73.0058718 105.2012730   7.5137609
  73.6350203 103.8900566   7.0943743 108.8873196  35.8533001  18.9528930
 108.8265324  36.7598391  18.6516881 108.0166435  35.4890132  18.7933528
 101.2371635   5.7647854  26.0805011 100.5815315   5.1260662  26.3605285
 100.7429504   6.4084870  25.5729222  31.5330148  27.0899773   3.0369568
  31.2569785  26.3925862   2.4422444  32.4078155  26.8278742   3.3237699
  84.0728378 100.4556656  27.8330541  83.9348698 100.3879356  26.8882751
  84.9657917 100.7889175  27.9214215  88.7098122  98.9469242  16.9362903
  89.3936920  99.5865059  16.7376053  88.1042099  99.0064907  16.1974204
  10.4306865   1.1609107  18.0617809  11.3858926   1.1523949  18.0006146
  10.1406288   0.5761769  17.3616493  74.0547323 107.2147274  24.2249179
  74.4244289 106.6022110  23.5890031  73.2164335 107.4775696  23.8449121
   2.2411607  45.2781153  40.7764769   1.3672858  44.8876667  40.7876921
   2.7814353  44.6705914  41.2817001 105.9567165  48.3378649  49.3004179
 105.0061417  48.4473991  49.2752790 106.1759281  47.9524612  48.4521008
  10.7800388  11.5401196  34.0906119  10.1243973  12.2306287  34.1884017
  11.5556562  11.9916821  33.7578344  46.0483932 104.8907089  17.8460932
  46.3181257 104.8354912  16.9293439  45.1348162 105.1741219  17.8103054
  32.5922775   7.4348009  16.4396417  32.6264858   7.4619138  17.3958468
  31.6875291   7.1951765  16.2390423 102.1439075   0.8238679   7.6390612
 101.2037945   0.7765754   7.4653012 102.4066544   1.6810007   7.3036224
  66.9562531  91.9738007  26.9188237  66.7003870  92.8141689  26.5386343
  67.3915958  92.2047806  27.7394056  43.7321758  15.9341264  24.9132204
  44.3502569  15.8371377  24.1887903  43.5239029  15.0364649  25.1721764
 108.2870102  19.2008328  15.6497192 107.9887199  18.4231114  16.1213148
 109.1217899  19.4248581  16.0610378 104.7732449  27.3339343  36.6672015
 103.9734173  27.5891042  36.2074161 105.3040886  28.1302667  36.6843343
  89.3983936  15.2167726  31.9081759  89.3840313  15.8740163  32.6039195
  89.3773556  14.3786156  32.3699999 107.8129959  81.4248371  81.9561768
 107.4795628  80.8584404  82.6520538 107.0393181  81.6505432  81.4397240
  20.4730439  13.5418367  38.9097857  20.7910800  13.3701122  38.0234480
  21.2513638  13.4679306  39.4620442  98.9860344  49.3800592  37.3668790
  99.8975658  49.5673513  37.5910878  98.9504337  48.4270144  37.2852015
   7.4213785  26.9189930  41.5082550   7.7762902  26.2609625  40.9105349
   8.1652212  27.4874759  41.7076445  15.2059603  50.8835411  92.5377274
  15.1356936  50.3729630  93.3443260  14.9985039  51.7796469  92.8026581
 105.5135345  10.1119518  15.1874328 105.9461594  10.4608369  15.9667587
 106.0666752  10.3951943  14.4593930  10.0513458  60.8465719  79.6049643
  10.5997550  60.5867434  80.3452110  10.5117261  60.5101919  78.8361168
  85.1653290   6.0687941  20.5249476  85.9061432   5.4760987  20.6519794
  84.9513435   5.9889102  19.5953989  71.2305737  76.1844921  72.0103264
  70.3667068  75.9820127  71.6512060  71.8070316  76.2117672  71.2466621
  78.7565517 106.1472893   0.7816911  79.2640162 106.9340134   0.5822457
  78.8125753 106.0610008   1.7333457  54.8759270  59.2796040  92.0228863
  54.3846893  60.0861788  92.1789646  55.4880285  59.2261267  92.7568436
  12.2597122  24.7595930  25.1289368  12.4085915  25.3115058  25.8966994
  13.0603182  24.8477125  24.6117353 108.8115120  40.8933687  23.9262152
 108.1390476  41.4409351  24.3314219 109.0057182  40.2260876  24.5844340
 110.3269958  67.5432253  89.3401241 111.0770988  67.0048571  89.5925713
 110.1264381  67.2698784  88.4449768 108.5251808  17.2090578   9.2125529
 108.0942059  18.0113888   8.9180017 109.2763710  17.5136983   9.7216111
  11.4677703  13.9388168  13.4774780  11.1706293  13.4415936  14.2395198
  12.2258258  14.4306850  13.7931514  15.4670894   8.2017440  29.7571278
  15.2189445   8.9768159  29.2532229  16.2247825   7.8464460  29.2924809
  65.5513716 109.0060806   5.7583815  66.3349438 109.5391560   5.6239039
  65.0927401 109.4327545   6.4821517  65.7285309 104.6800232  23.1104970
  66.2338829 105.4927349  23.1291127  65.7494831 104.4058990  22.1936274
   7.6174611   8.1013131   5.1072377   7.6532471   7.1946383   4.8024550
   7.6378107   8.6243671   4.3058437  73.7639380 105.3379726   3.3774975
  73.1713104 105.2254868   2.6342830  74.5549154 104.8603630   3.1275427
  49.4563627  50.4822397  19.5857716  49.9838161  50.6992340  20.3544998
  49.7862530  51.0604620  18.8979757 112.6555729  23.7420106  19.7917628
 112.3766041  24.6069598  20.0922155 113.6118412  23.7841344  19.7953355
   0.3498644  39.2858338  26.1304355   0.5008496  40.0742149  26.6518664
   0.0269104  38.6407709  26.7595816  62.3824883  68.9735842   7.1861273
  61.8984556  68.2203436   7.5246185  62.0267153  69.7219181   7.6653469
   7.5429481  31.5339184  21.3892269   7.4299395  30.7079482  21.8595839
   6.7683876  31.5993762  20.8306551 100.2228832  31.8067288  14.2736793
  99.6140289  31.7506123  15.0101495  99.6953297  32.1497440  13.5523868
  72.7104902 102.4263191  35.5066061  72.6002121 102.0999908  36.3996792
  72.0952129 103.1566143  35.4407692  71.7811441  71.2522173  91.2393475
  71.4284420  71.9141388  90.6446266  71.7279053  70.4338980  90.7456398
   5.2796388  38.1273580  28.1908965   5.8694452  37.5237203  28.6425400
   5.1345074  37.7247429  27.3347020  30.9489727  48.3825731  87.9306602
  30.6832218  47.6140451  87.4257183  30.8060312  48.1308508  88.8430405
   3.0140239  89.9873924  27.0363903   2.6839045  89.2998028  26.4580536
   3.7829310  90.3330135  26.5829992  24.5481133  18.5994256  39.0263510
  24.4604445  17.8108466  39.5617843  24.9040842  19.2566180  39.6243572
  63.6785460 102.1442223  83.4020233  63.2032919 101.3151073  83.3478260
  63.0161333 102.7832508  83.6648560   0.7443374  50.7895374  25.7021332
   0.0276480  51.2756491  25.2943516   0.4214086  49.8903131  25.7599568
 102.2842121  45.6606293  22.9161787 102.3517132  44.9186230  22.3152661
 102.8640556  46.3245392  22.5430393  29.1297007  34.2054653   7.2814912
  29.3351936  33.9765143   8.1879050  29.2102957  33.3809400   6.8020207
  88.7551403 111.0242367  10.1973355  89.0618420 110.2462006   9.7316933
  88.2197762 111.4916229   9.5561117  58.8001776  91.9437027  49.8151302
  58.6187077  92.8628159  49.6188116  59.1385841  91.5857792  48.9944029
  41.9631433  93.5629845  21.7198443  41.7120790  92.7106190  22.0757413
  41.6290140  94.1958046  22.3555565  82.9671669  92.2768593  25.9496689
  82.5468731  92.0670128  26.7836642  82.7086926  93.1812286  25.7720780
  82.6618671  83.5142517  15.8442283  83.1173515  82.9068756  16.4272034
  81.7329121  83.3372116  15.9923232 102.4862766  24.7765970  38.0545902
 102.4750137  24.3362761  37.2047520 102.2298241  25.6781745  37.8606319
   4.2013857  62.8320503  93.1031609   5.1579493  62.8211737  93.1363297
   3.9483070  61.9128609  93.1884956  12.6611388  66.3031483  94.5129681
  13.5180020  66.2760067  94.0872002  12.0682263  65.8912659  93.8844490
  16.4415026  12.2445130  42.0471096  15.9191072  11.9149768  41.3158512
  17.3414719  12.2367954  41.7211819  44.0870619  89.7486877  82.6579666
  45.0144577  89.5573044  82.7977562  44.0825844  90.5856228  82.1934891
  13.8867903  50.7403517  84.9286461  12.9496384  50.9137392  84.8396778
  14.2992544  51.5989351  84.8340797  60.2222919  65.1894093  75.4671526
  59.5798111  65.6765890  74.9512959  60.9460497  65.0314331  74.8609686
 116.4101028  27.2215199  22.2446179 116.9517899  27.8576970  21.7776203
 117.0383644  26.6545606  22.6919246 111.4968872   7.7372289  38.4117293
 111.1025238   7.1642071  39.0692663 111.6216946   8.5711879  38.8646841
  61.7747688  94.8794842  27.9930735  62.4086571  94.2268562  28.2905483
  62.2521257  95.3998852  27.3468995  85.1890850  25.8099318  40.6773663
  84.2924595  25.4875469  40.7688236  85.2876568  26.4475250  41.3844633
  11.8170643  38.3518505  27.9347873  10.9284830  38.7047410  27.8887177
  12.2482252  38.8759732  28.6097884   2.7238137   8.6966425  21.2512255
   3.5657498   8.8165182  20.8119011   2.3793530   7.8798550  20.8900642
  67.1596766  74.3275976  57.4613476  67.6318884  73.5211277  57.2543240
  66.8711519  74.2105818  58.3664942 111.6669178  10.4313278  14.0958023
 111.4400864   9.7516823  14.7305131 111.3588715  11.2447155  14.4954753
   2.0121989  43.1453037  21.4495635   2.0946880  43.8264561  20.7821393
   1.8620576  42.3406696  20.9533238  26.8369746  54.5328569  85.9058380
  27.2981238  53.7753868  85.5455399  26.6851044  54.3066025  86.8234253
  29.8896766  42.6096773  28.7623549  29.3156767  42.0422411  29.2769146
  30.5870986  42.8583241  29.3689919  21.3859677   0.2469863  26.8727446
  22.0917988   0.8934987  26.8651628  21.6378427  -0.3904435  26.2045574
  45.3040409  92.9490089  83.3123970  45.0711823  93.7007332  82.7674961
  46.0171556  92.5212860  82.8383255  46.7430258  98.0577087  13.7381887
  46.3460112  97.3432732  14.2363811  47.4210501  98.4056854  14.3173492
  72.5588465  73.8214254  30.4539943  71.8326235  74.3855906  30.1883841
  73.2173538  73.9404964  29.7695780   9.9055701  10.9966826  28.3176756
  10.7479203  10.5578244  28.1990027   9.6882480  10.8528948  29.2387223
  93.5331154  16.2960148  18.4194398  93.8239288  15.4403555  18.7348878
  93.6766148  16.8856275  19.1597092   0.2666825  28.4260607  21.1027598
   0.6345443  27.7821422  21.7079687   0.9376477  29.1057754  21.0393047
 118.3858608  23.0657911  27.3400497 118.2397757  23.0045199  26.3960505
 117.5725229  22.7449131  27.7296042  69.1045284  75.7844353  33.9795828
  70.0563288  75.6913233  33.9390850  68.9621973  76.5489340  34.5377183
  11.5208578  16.7745161   9.7689074  12.3321211  16.3658428  10.0706851
  11.0609567  17.0161998  10.5728424  10.3161705   9.5557374   8.5297811
   9.9354368   8.9542228   9.1696680  10.3802431   9.0407217   7.7254897
  76.0620499 106.5139103  35.2907228  76.8571472 106.2734222  34.8150945
  76.1806822 107.4397182  35.5029440  48.1508493   0.7372361  23.8071275
  48.8193226   0.9352926  23.1512713  48.6221218   0.7477684  24.6402073
  26.8758154  88.5846138   0.9258080  27.2416472  87.7622700   1.2515938
  27.1813655  89.2455006   1.5471831 113.4989834  77.3389530  28.4154868
 112.8871346  76.6189909  28.5688901 113.0524158  78.1109571  28.7630796
  37.9535341  52.9774380  93.5371208  38.0261731  52.0572567  93.2837009
  37.5313568  53.3993483  92.7888012   1.2180165   7.4226886   2.7076232
   1.1869712   6.8581575   3.4800044   1.0821289   8.3058482   3.0508366
 100.1515961  10.1862764   9.8820132 100.2808666   9.2383718   9.8504531
  99.8253536  10.4126441   9.0110606  29.2789865  57.2945690  92.4987030
  29.2627621  56.7883158  91.6864967  28.3878613  57.2261620  92.8414059
  14.9571300  13.4411287  22.4226022  15.8273149  13.1242514  22.1805263
  14.7889686  13.0484498  23.2791972  35.4681778  38.1951571  85.0168800
  35.0737047  38.4090972  84.1713905  34.7637177  38.3298206  85.6507874
   4.2674372 105.3287601  31.2031913   3.4902635 105.2892494  30.6458139
   3.9294696 105.5549049  32.0697188  92.3435116  11.6570330  13.0253494
  92.3356724  11.7713785  13.9756632  93.1984043  11.2694609  12.8377879
  64.7557116  67.8749084  35.3804255  64.4764423  67.4214363  36.1757922
  65.5252695  67.3883581  35.0849843  96.7783928  88.4309864  26.6884160
  97.4126244  87.7149296  26.6531014  96.2830639  88.2728004  27.4920726
 111.2397242  13.9203075   1.0234422 112.0910836  13.5458425   0.7971734
 110.6319666  13.5305074   0.3950185 109.0862942  36.9168735  27.3541141
 109.3267441  36.0865378  27.7651644 108.7092495  36.6662908  26.5107393
  68.0639553  88.5492039  12.7866125  68.4653568  87.7244473  13.0602717
  68.5438824  89.2213154  13.2705176  84.4254589  93.0267429  12.4090827
  85.3767395  92.9378986  12.3507309  84.2697906  93.3600235  13.2927823
 103.2751751   9.0271854   7.9129726 103.9313412   8.3353472   7.9968756
 102.6170444   8.6625981   7.3212266  93.7996292  94.0468597  16.3114464
  93.0704498  93.7994385  15.7428420  94.5317936  94.1925240  15.7123268
  88.8474846 110.7425308  32.1651673  88.5131645 111.0243511  33.0166578
  88.1974792 111.0567856  31.5367007  45.6104994  46.1811209  33.2596040
  45.0549555  46.9047356  32.9698086  45.6669521  46.2879133  34.2091513
   4.8264727  98.6621571  27.1227050   5.5989432  99.1673851  26.8692040
   4.6525356  98.0967426  26.3701868 110.3985023  71.9854355  77.8551197
 109.8276711  72.6872730  77.5423813 109.7981548  71.2887144  78.1204271
   8.5702991  55.5204868  88.9689732   8.1303048  55.7690191  88.1560326
   8.6934745  54.5741320  88.8949966 112.6771641   6.6135681  94.9358368
 113.2212543   5.8581114  95.1583004 111.7787933   6.2908185  95.0064564
  58.0641222  89.1786098  16.8608034  57.5458002  89.0121841  16.0734797
  58.7393665  88.5002518  16.8508530  74.3884850 101.6290951   9.4756711
  74.6376514 101.4197731   8.5754853  74.3222046 100.7785702   9.9097741
  92.2047043   9.4938445  31.4081621  92.9717445   9.1173500  31.8396020
  92.4775696   9.6167749  30.4989505  35.8096552  11.3633502  29.3032742
  35.8728933  10.8946180  28.4710956  36.0453272  10.7117748  29.9636841
  13.6219680  21.3570118  45.2584839  13.6717713  22.2521639  45.5938244
  13.0773973  21.4249897  44.4742298 115.1788425  41.7183638  14.1498983
 115.7191181  42.0703983  14.8572910 114.2877865  41.7326546  14.4992447
  12.2185230  16.0248888  34.1230369  11.6876543  15.4534483  34.6778941
  11.5815830  16.5746391  33.6666250  53.2726955   7.5988293  22.7847528
  53.1593370   8.4142292  22.2963834  53.2337093   7.8628153  23.7040043
   1.2764204  83.7765217  13.2249939   2.1669564  83.9115238  12.9010308
   1.3649753  83.7812710  14.1780770 101.4685249  90.0455093  36.8742585
 100.6348133  89.7779751  37.2610378 101.4746284  90.9993267  36.9544220
 101.7952061  54.5617008  11.7863536 101.5681458  53.8535166  11.1837351
 102.6936626  54.7956276  11.5533590   6.4943302  10.8223248  43.5571718
   6.6030186  10.2768326  42.7781582   5.5493540  10.8376658  43.7088823
  95.7748890 103.5625076  25.4238057  94.9124336 103.5472584  25.0088549
  96.3391685 103.0779552  24.8212934   1.8096122  28.8032484  34.2517519
   2.0620133  29.6909094  34.5058823   1.9787537  28.7663984  33.3103371
  62.1318865 108.0607891   8.8231957  61.3834667 108.5998344   9.0791810
  62.1914482 107.3935032   9.5068777  16.9248438   3.1731853  44.0435410
  17.1004307   2.9763538  44.9636841  15.9765697   3.0775398  43.9548826
  64.8830509  63.8271284  21.1517072  65.2238655  63.4713554  21.9723773
  65.5649567  63.6379576  20.5071521   6.9282287  35.8024216  18.2185996
   7.1631444  34.9409699  17.8737116   6.8140817  36.3487577  17.4409640
  46.1018133  41.0040617  95.7767296  47.0297956  41.1998796  95.6473732
  45.6476784  41.7968512  95.4912758  20.4033828  23.1502652  12.1183217
  20.8958149  23.9364433  12.3542643  19.4920349  23.4406137  12.0812404
  32.7126646  50.1630020  90.3179264  33.3100510  50.3228521  91.0485554
  31.8794131  49.9417782  90.7338428 116.8556404  15.6837630  30.5528212
 116.6410255  14.9569821  29.9680495 117.2035599  15.2636087  31.3393688
   1.2698327  32.0109534  29.2643929   0.9069116  32.2977161  28.4263682
   1.2366223  31.0551286  29.2252755  84.9704552  88.0103683  29.5355296
  85.5514622  87.2538376  29.4560099  84.6947193  88.1960011  28.6378980
  83.2761002 100.2535439  93.3370399  82.4765968 100.2162743  92.8120327
  83.7519169 101.0105801  92.9953957  36.3668847  24.8476982  26.3299918
  36.7210650  23.9695454  26.1898637  35.4507136  24.7822452  26.0605836
 108.9480019   6.4214516   9.3907857 109.5561981   5.7412487   9.1015691
 108.1335449   6.2275475   8.9267826 109.0274429   2.5765076   6.7791051
 108.5574532   1.9531134   7.3329294 109.7615528   2.0753090   6.4239669
  71.8166828  99.2638397   9.9882686  71.3847589 100.1175785  10.0164592
  72.6012659  99.3745041  10.5253124 117.6591110   3.6262938  13.5551512
 117.1644402   3.8828239  14.3334365 117.0120525   3.6249131  12.8497767
 103.2302189   2.7007309  35.8778811 103.3350182   3.2128504  36.6797423
 103.4495735   1.8052454  36.1352158  78.8634872 105.8878136   3.6465186
  79.3254662 105.6649208   4.4546828  78.5823250 106.7939377   3.7734678
 110.9525585   5.7785445  49.9948454 110.5641556   6.5188950  50.4609585
 111.8940353   5.8708441  50.1408863  69.3632126  90.8454132  23.0375791
  68.7685537  90.7871246  22.2897720  69.0010309  91.5480137  23.5774040
  79.3601418 111.0640049   1.0288233  79.3979311 110.6605721   0.1616187
  78.5011292 110.8164501   1.3709304   6.6033280   1.8880221  34.5487285
   6.8287206   1.5190712  35.4027224   7.4440372   2.1423635  34.1682673
  12.0231879   1.1278093  28.6913013  12.2469831   2.0345284  28.4815216
  12.0509124   1.0893074  29.6473265 111.8985653   1.6225542  22.1589375
 111.9988918   2.2855195  21.4758253 111.5774345   0.8485887  21.6962481
  50.6581926  78.9294577   1.0613570  51.5038443  79.3580723   0.9294690
  50.8799458  78.0243349   1.2800263  64.8332310  50.4516363  95.5532837
  65.4115963  50.2261782  94.8246574  65.4268646  50.6873894  96.2661934
 103.2097721  85.2081203   2.0691539 103.6631775  86.0242939   2.2801735
 102.4032497  85.2422810   2.5835347  85.2543163  14.5317245  14.9157429
  84.7456932  15.3378165  14.8276949  84.6251106  13.8314176  14.7428036
  94.3493080  39.1367579   4.2722997  93.4350014  39.4199729   4.2793712
  94.3049049  38.1824255   4.3315354  81.7475414 106.5779591   8.4085625
  81.8915749 105.9296227   9.0978718  82.5375271 107.1183681   8.4191883
  35.5899596  68.4216547  93.2314396  34.7659016  68.1411648  92.8333378
  36.1948609  67.6988506  93.0644703  12.2795475  27.8957605  23.1503892
  11.9915724  28.6349225  22.6147199  11.8135726  28.0048156  23.9793682
   3.5062113  13.8549197  31.1913753   4.4073874  13.5493195  31.0878277
   3.0363613  13.0997217  31.5451384  54.0159464  80.7408524  91.2375641
  53.4403658  79.9919128  91.0825348  54.3003893  81.0092163  90.3638935
  67.8739738  16.1781013  22.2812366  68.3187723  16.4352989  21.4736247
  67.4566936  16.9818401  22.5912571  93.5267925 101.9188595  23.6189723
  93.1042767 101.1340904  23.2698917  94.3816185 101.9420624  23.1889081
  89.0080357  16.0582197  13.4862733  88.3215141  15.5751371  13.0263293
  88.6361408  16.2394869  14.3494451  94.5374107  23.7624764  39.6062040
  95.1014519  23.4639120  40.3196049  94.2984962  24.6572351  39.8481989
  64.4073153  32.6730847  67.5934744  63.9700413  32.0903516  66.9726324
  63.7064314  32.9792690  68.1690121 115.7826900  17.6730323   1.5794568
 115.1463223  18.0615640   2.1797138 115.6639767  16.7288613   1.6827990
 108.1318378  79.0203285  79.2678261 107.8087425  78.2882357  79.7930765
 107.4735832  79.1318846  78.5819149  98.2688999 103.0645752   0.9436195
  98.8727474 103.1888580   0.2113949  98.2360554 103.9186192   1.3746093
  10.0540304 108.0090523   1.1193351  10.9342504 107.6577854   1.2537056
   9.8866099 108.5400391   1.8979600  19.9388194  46.2487650  12.5703442
  20.8143449  46.6343355  12.6023376  19.3766785  46.8951941  12.9973745
 102.9788971  29.4971871  92.7395344 103.1600571  30.0297284  93.5140133
 103.1565285  28.5992217  93.0194187  12.9796612  17.1948266  19.3174386
  13.2670021  16.7415822  20.1100516  12.8873527  18.1093383  19.5846057
  26.1362696  50.7780743  31.8187952  26.6806984  50.2260494  32.3801279
  26.7621684  51.2739611  31.2909889  24.5867682  28.9658904   5.9678137
  25.5238152  28.9628792   5.7724500  24.5362854  29.1957188   6.8956405
  36.0223699  64.0086842   4.5054474  35.1916409  63.9805412   4.9801371
  35.7943630  64.3586874   3.6442041 103.6968994  38.9629912  40.8924532
 103.0384159  39.6035028  40.6234074 104.5163536  39.4571495  40.9154367
 112.4071693  26.4231181  19.3356311 112.4988937  27.3458219  19.0980673
 112.7674580  25.9463239  18.5879076  19.8276341   8.7334275  29.7937202
  19.8992467   8.0073678  30.4133487  19.7605824   9.5130527  30.3450084
 103.5234165  43.2768631  31.5746784 102.8061104  42.6783991  31.7833591
 103.0994511  44.1268730  31.4564610   8.7763202  29.5109415  10.6285214
   7.8250110  29.5243549  10.7337010   8.9173895  29.6993184   9.7007036
 104.3841553 107.7048779  26.2864017 105.1487446 107.9534054  25.7668996
 103.6405945 107.8439713  25.6998944  25.5334258  14.7431719  43.0249119
  26.3363791  14.5304430  43.5005617  25.8353066  15.0437367  42.1677303
  71.8673897  64.6002197  66.1280060  72.2208214  64.1248941  65.3760862
  72.6386309  64.9492168  66.5747976  80.5960464  75.9284496  89.1753864
  80.6769943  76.7167854  89.7122288  81.1308479  76.1091375  88.4023571
 117.9961109   5.9559560  16.7419744 118.0038452   6.5268052  17.5102866
 117.5479221   6.4672381  16.0682154  17.6318359   5.3896844  33.0659008
  18.2951820   5.5958545  33.7244582  17.8127861   4.4826213  32.8194761
  27.9068470  90.2863026  80.1324368  28.4024429  89.9403381  80.8746719
  27.2681189  89.6023560  79.9312449  52.2095966  98.4854698  93.7458611
  52.2104263  98.1535339  94.6436596  52.5309372  97.7533817  93.2195377
  87.4506796   0.3412578  95.6078434  86.8123663   1.0400532  95.4647255
  86.9315613  -0.4628899  95.5986404 103.4050274  23.6856174  25.1302409
 103.9812088  23.3901691  25.8351946 103.3772087  22.9493523  24.5191979
  13.2401192  35.3666830   6.9867390  12.3071003  35.2453566   7.1627712
  13.2841754  35.5583334   6.0499567 117.5009326  34.7569203  36.4512181
 117.4437155  34.7007060  35.4973865 116.6783849  34.3796349  36.7631531
  74.1030312  92.4893856  12.9863346  73.8486385  93.3927250  13.1747377
  74.6912575  92.5580883  12.2343385  29.7923398  86.4080143  53.5410643
  29.2560291  85.8891392  52.9415941  30.4153156  86.8617725  52.9734087
   0.4485404  79.1921377  93.3764172   0.5934127  80.1124287  93.5961914
   1.2825647  78.7650394  93.5719204  83.1386852  86.1796665  83.0838203
  83.5061264  87.0193195  83.3598614  83.8223934  85.5409718  83.2859039
 112.2059250   3.3884230  19.9076962 112.1492958   4.0078542  19.1801453
 113.1372070   3.1759959  19.9694598  33.7359190  13.7443924   5.1651698
  34.5102525  13.9579642   5.6857729  32.9984617  14.0294933   5.7047129
  37.4250388  53.5126972  30.1679134  38.3018827  53.2112551  29.9301958
  37.2371078  54.2163754  29.5468283 114.4583035   9.0752763   8.9450222
 114.1754055   9.4670570   9.7712862 115.1710415   8.4856570   9.1911519
  19.1355968  42.0709229  17.3336637  19.6282721  42.5946999  17.9654539
  19.8064327  41.6596603  16.7886198   8.2499909  13.1321084  27.3341465
   8.8042057  12.6197493  27.9228449   8.8653427  13.6570287  26.8222547
  36.9845486  86.0407734  91.7148209  37.7547550  85.4790592  91.8013573
  36.2436128  85.4348946  91.7272949  23.1763816  31.0525632   3.7080559
  23.1497240  30.1436424   4.0070227  23.0419302  30.9975433   2.7619445
  23.4834623  36.9864917   1.4981242  22.9139662  36.2184095   1.4539048
  24.1376543  36.7618299   2.1597837  60.8382320  95.4394627  73.7327242
  61.1654663  95.1448059  72.8828287  61.6196060  95.5001926  74.2822695
 108.3625221  96.5038872  20.3152776 108.7078953  95.8023071  19.7632432
 107.5832462  96.8113804  19.8522425  72.9568624  77.1480179  90.4777908
  73.2541227  77.3899460  89.6006775  72.0022392  77.1287107  90.4103184
  82.9826164  99.4067192  19.0643263  83.1815338  98.5187054  19.3611324
  83.8324070  99.8464870  19.0381289  60.0779629  78.9356947  82.4993706
  60.2038527  79.0169811  83.4447670  60.9604883  78.8119698  82.1499825
  53.8164186  98.7663174  31.2847233  54.0299654  98.5470963  32.1916819
  54.6171331  99.1604519  30.9386778  19.3141150   0.1797004  32.5167704
  19.5206082   0.0877417  31.5866446  20.0606561   0.6545494  32.8820443
  44.9338341  65.1064873  29.1463184  44.4565058  64.3821573  29.5509577
  44.3090773  65.8316660  29.1408777   1.6456019   4.4028252  44.9966955
   2.1414362   4.0070480  45.7134533   1.5480696   5.3204566  45.2510023
  19.1892099  25.3816628   1.6702348  18.8496232  25.6140065   0.8059844
  18.7992728  26.0253096   2.2617593  13.1055808   3.6052239  30.6055570
  13.3619201   4.4915727  30.8603263  12.1519768   3.5986069  30.6881809
  13.4171140   7.8679734  31.2929106  14.1440582   7.8554690  30.6703138
  13.6526489   7.2123218  31.9493222 110.8338642  14.8553431  28.3040118
 111.3402271  15.4454708  27.7458167 110.5053806  14.1835344  27.7065134
  55.5074739  34.6002412  48.1372690  54.8519897  34.3525457  48.7893581
  54.9962664  34.8703337  47.3744154  21.4044976  35.4845309  20.4970884
  20.5484605  35.0661325  20.5886054  21.6761446  35.6731677  21.3953400
 107.8320217  33.6805034   5.6658971 107.9519176  32.8724241   6.1647612
 107.5198364  34.3157196   6.3103110  85.7878399  46.2174654   2.9135209
  85.4362774  45.7843637   3.6913761  86.7030430  46.3945198   3.1310055
  18.2221401  22.2658396  19.6144772  17.9201531  21.5212393  20.1346755
  17.8115952  23.0269432  20.0248528 111.8223667  38.3801699  17.0458794
 111.4479923  37.6169801  16.6058624 112.3052406  38.0159569  17.7877784
  15.6635034  33.0161548   9.9930155  16.5427077  33.3796310  10.0984395
  15.4217720  33.2314014   9.0922010 108.1256962   4.7636020  16.4289391
 107.5282955   4.6109593  15.6967890 107.7084351   4.3295044  17.1730411
  20.9838629  14.1822290  26.0871887  21.8677664  14.3644369  25.7682157
  20.4627609  14.0621173  25.2932978  48.0486757  91.4485642  95.9701830
  48.7543720  92.0917270  95.9026060  48.1670469  91.0529587  96.8337318
  52.7045012  25.6176591  12.8509951  52.0659399  26.1643744  13.3087897
  52.3757219  25.5658054  11.9535267  15.5682588  30.0024366  15.3473508
  14.8938406  30.1151800  14.6775150  16.1488938  29.3296409  14.9917650
  55.7402086  98.3635998  84.9208164  55.8947897  98.5454369  83.9938450
  55.8188152  97.4124908  84.9946785  64.4672728  59.6289349  81.2357903
  64.7135496  60.0901031  80.4339790  64.5600033  58.7017250  81.0169029
  46.5246296  79.9830008  94.3209457  45.6285238  79.6491671  94.3631077
  47.0523548  79.2224407  94.0774536 102.6487255  29.0933347  10.4410160
 102.1877193  29.0902829   9.6021450 101.9543934  29.0229344  11.0961342
  17.1167779  15.7252967  18.0177903  17.1196973  15.8518910  18.9665771
  17.9058218  15.2126729  17.8421247  18.9449894  29.2084384   2.3489691
  18.6916125  28.2980490   2.5013521  19.2164326  29.2311239   1.4313442
  74.0741920  91.0993099  71.6204596  74.9645138  91.4442635  71.5528965
  73.7990093  91.3192654  72.5104761  24.7187257  28.8596749  18.5025227
  24.7320437  28.9018726  17.5463462  24.1695738  29.5976496  18.7672091
  11.2502158  13.8752663   4.6235082  11.1586320  13.5197663   5.5075127
  11.6797423  13.1778383   4.1281956   2.5832599 110.7273865  21.3564682
   2.1064034 111.1128044  22.0915127   3.2736585 110.2058983  21.7659020
   6.9196516   7.2842073  22.6223207   7.6123208   7.3801064  23.2759595
   6.8636858   6.3409817  22.4692678  13.8668513  21.5871596  18.4499788
  13.6668897  21.9611764  17.5918651  13.6144936  22.2686410  19.0729821
   7.0414978  86.1892414  24.2033625   7.2027171  85.5377102  24.8858190
   6.9091773  85.6745052  23.4072685 104.3081856  42.7617693  10.8094168
 104.5014477  43.3463907  11.5422881 103.6732769  42.1380091  11.1616051
  47.7443695   1.1910634  16.0319006  48.0585289   2.0512974  16.3103509
  47.2924232   0.8410783  16.7996812  27.2153902  11.1689782  10.6333315
  26.3078094  11.4415669  10.7683277  27.7369261  11.8790603  11.0075188
  49.8651123  85.7518768  94.5918083  50.5920410  85.2410793  94.2355824
  49.0813923  85.3355408  94.2330933  33.4559536  42.6886749  46.3037634
  33.8849306  43.2930660  45.6980276  33.9153576  42.8152800  47.1339178
  97.8078365 110.2716637  25.4270411  98.1860733 110.9069252  26.0349941
  97.1359921 110.7630825  24.9544358  30.2267981  52.6722479  21.1420631
  30.2428508  51.7155313  21.1678696  29.5806718  52.9188871  21.8038201
  20.9759545   4.6737799  13.0625808  20.6692743   3.9807284  13.6472678
  20.4715824   4.5494932  12.2585952  84.0441322 108.7297726  12.1324086
  83.8385677 107.9205990  11.6642118  83.5335922 109.4030380  11.6826355
  36.8623543   4.9536026  33.4271145  37.4964428   5.6705725  33.4380078
  37.3974586   4.1612971  33.3807850  10.5058312  20.8562922  11.3254452
  10.0184989  21.2532544  10.6035316  11.1188078  20.2569556  10.8996654
 116.3116646  43.9556932  12.8304911 115.7121658  43.5062122  13.4261394
 116.7891788  43.2502890  12.3938906  67.2411203  99.6402740  47.4517107
  67.7246141 100.2202988  46.8634653  66.5877008  99.2214775  46.8914509
  28.5409546  22.5225639   1.3155217  27.7176762  22.7099657   1.7664383
  28.3990097  21.6711521   0.9017765   5.2987194   6.5105844   6.1505091
   4.4225147   6.1451679   6.2728536   5.2635950   6.9352251   5.2933753
  96.8080521  46.8847322  25.7747126  97.1592712  47.7718210  25.6975818
  97.4324608  46.3376427  25.2982187  39.4661880  16.3023913  10.3564394
  40.0106192  17.0817912  10.4676259  39.7962451  15.6846154  11.0088551
  20.5333352  19.2906606   1.5798181  21.1293268  19.8013449   2.1277477
  20.9813070  19.2236757   0.7365708  24.1817284   2.5104803  14.2767394
  23.7226701   1.7311886  14.5901072  25.0919104   2.3743422  14.5399320
  18.9299071  17.6203823  14.3625855  19.2252636  17.0676517  15.0861084
  18.6466944  18.4328496  14.7820103 112.6800919  22.6270628  14.4646502
 112.9680824  22.2997522  15.3168023 113.2931709  23.3329701  14.2595613
  11.4107728  49.4596863  16.0228133  10.8233702  50.1937103  15.8428323
  12.2337091  49.8707819  16.2874043 108.7980747  24.0097165  31.8736506
 109.1593075  23.4220529  32.5372720 109.5068932  24.6255183  31.6876578
 113.4409142  56.0537148  44.7933769 112.6384354  55.5320263  44.8037958
 113.6676788  56.1628056  45.7169056  24.2382765  29.4507647   8.9064282
  23.4093499  29.8207974   8.6028075  23.9823079  28.7458777   9.5012796
 110.1829147  16.4162159   3.5911652 109.6425438  16.6673148   2.8420454
 109.5995045  15.8960235   4.1436768  24.1236615   3.2292926  34.3003607
  24.2548990   2.7410656  35.1131606  24.5280933   2.6840934  33.6255097
  50.0097811 110.5368127   3.0950516  50.3688013 110.0657461   3.8470030
  49.8461497 111.4212975   3.4223816 116.4478874  19.2690098  12.3534393
 115.9442234  20.0286412  12.0610082 116.1687946  19.1305888  13.2585275
 114.6917629   2.9826021   4.8664781 115.2541447   2.4931031   4.2661843
 115.0969028   3.8480419   4.9222341 108.4178638   5.3297812  90.9385300
 109.2430496   4.8636645  90.8042240 108.6779022   6.2385905  91.0891247
 114.5552921  47.6485443  35.7794857 114.7204590  46.8743086  36.3175464
 115.4264736  47.9877758  35.5740929  92.4637794  19.5602632  45.0978708
  92.8712654  19.1313422  44.3454027  91.6993618  20.0069165  44.7339916
   6.3762140  26.3412428   9.8831439   6.8920314  27.0615721   9.5208025
   6.3571060  25.6858563   9.1857660  16.5325546  56.8783379   9.0772450
  16.9593000  57.6708889   8.7516898  16.9560754  56.1649275   8.5998511
   9.5483524  58.9650249  25.5726218   8.7639052  58.7172222  26.0619760
   9.3232918  58.7959719  24.6577430 115.1708412  24.3411350   7.9703075
 114.9078751  23.4563017   7.7170205 115.9619141  24.5114923   7.4590290
   2.5622404  43.7584352  17.5942743   2.1163426  44.5025682  17.9988384
   2.0525040  43.5737801  16.8054128 110.7071877   3.7321126  16.4133894
 111.1240482   4.2303970  17.1163630 109.8980427   4.2090929  16.2289846
  30.6301665  42.2299814  85.0194836  31.5084863  41.8561697  85.0905323
  30.3103733  41.9301558  84.1685581  17.6997662   7.8462189  16.4646375
  18.1016171   8.2213140  15.6810236  18.1728399   7.0264298  16.6073954
  60.4250383  81.2861156  61.9843435  61.2677288  81.3279819  61.5322876
  60.6309319  81.4976501  62.8948927  96.8952656  14.0061712  26.3017821
  97.4852943  13.6040986  25.6642604  96.0996151  14.1966307  25.8048964
  59.3324423  20.1488161  12.6954043  59.8867989  20.6726432  13.2737863
  59.7955894  20.1459360  11.8577194   3.8876978   6.6194266  36.3751721
   4.0803760   6.0129738  35.6601048   4.6380568   6.5412170  36.9643044
  39.5352912  51.0227537   5.1245588  39.0367270  50.9442425   4.3112311
  38.9055705  50.8091354   5.8130735   5.0577235  26.2344384  50.3635931
   4.1850626  26.5572739  50.1389313   5.4926795  26.1127281  49.5196533
   9.6780634  48.4965324  19.4577134   9.7324461  48.4215403  18.5050058
  10.1367056  47.7229166  19.7854304  12.0521104  28.2110286  29.3918252
  12.3230290  29.0640497  29.7312212  11.5067112  27.8395939  30.0852275
 112.3222637  26.0916185   0.6195268 112.5520325  26.9411182   0.9960795
 112.0460320  25.5642223   1.3690449  53.5285616  74.4934320  31.4301682
  52.8893709  73.9996624  31.9438386  53.8580513  75.1592064  32.0338345
  49.2133665 106.8384743  79.3997574  48.9357996 105.9989166  79.7662735
  48.7609243 106.8936729  78.5580444  60.7438374  92.6589489  88.4708500
  60.9654570  93.1213665  89.2791176  60.1109219  93.2292271  88.0344772
 106.6181946   8.7370384   5.2242607 107.4748325   9.1630894   5.2538496
 106.7423534   7.9899496   4.6388760  23.7596512  25.1261139  29.9957991
  24.0836525  25.3789806  29.1313267  24.3155622  24.3910241  30.2543330
  96.8792534  49.6966648  27.2946072  97.4395084  49.7604227  28.0680966
  97.4748802  49.4498062  26.5871334  16.7052054  23.5697269   8.7305242
  15.9806705  23.9013696   9.2608941  17.4780452  24.0184665   9.0734285
   8.3932042  19.3240047   4.4277292   8.0767864  18.8675582   5.2073240
   7.9611021  18.8798118   3.6982006 109.1458988  89.4341373  43.1653881
 108.4678459  88.7691593  43.2849169 109.9696922  88.9550114  43.2549715
  11.8612814  51.7223215  25.4467010  12.1272790  51.0635805  24.8051858
  12.0398271  51.3163614  26.2949634  26.4160466  23.5373664  12.9239035
  27.2780252  23.4427047  12.5186026  25.8099866  23.1533456  12.2903025
  34.7622418   1.2250374  15.1363206  35.3311562   0.4599140  15.2208376
  33.9026284   0.9172581  15.4236877  57.9416037  79.6154547  85.5280399
  57.1327829  80.0289249  85.2262497  57.6488447  78.8561964  86.0320759
  87.3306942  77.7640104  86.5887737  86.3937378  77.5682402  86.5909481
  87.4519920  78.3462143  85.8387375   4.2097309   7.5234318  11.0263646
   4.9210873   7.9333776  10.5342793   3.8997760   8.2103944  11.6164851
  40.9392881  97.2151661  88.7378311  40.3098583  96.5113163  88.8948536
  40.4235697  97.9112816  88.3307838 111.8401909  34.4472671  12.2848761
 111.6956425  35.3908300  12.3557770 112.6929951  34.3040919  12.6953149
  58.8620568  94.2714283  96.0599979  59.2810691  95.0930902  95.8040065
  59.1209233  94.1447779  96.9727845   7.2301787  20.2709746   8.9257872
   7.1392876  21.0897613   8.4383881   7.2346443  19.5906544   8.2524538
 115.9539890  28.5367060  92.0994282 115.7772350  29.3566847  91.6383171
 115.4333401  27.8826809  91.6331577  95.4415035  43.9428806   4.0151677
  96.3839722  44.0932941   3.9419195  95.3208923  43.6069489   4.9033299
  24.6740603  21.8170261  11.1905193  24.4682455  22.4331141  10.4874492
  23.9037418  21.8356299  11.7584062  11.6506052  32.4521160  13.6523509
  12.1434355  32.9456234  12.9967594  10.7428110  32.7290821  13.5281217
  22.7574730  41.6928101  52.2866011  23.6880970  41.5739775  52.4764729
  22.4381876  42.2525549  52.9943991 107.7517986  93.6573124  13.8672686
 108.1482887  93.8103676  13.0095959 108.4683037  93.7860584  14.4887793
  27.1753383  30.5183411  15.1530147  27.8054857  31.2381077  15.1859498
  26.5087032  30.8118701  14.5319891  96.8603134  36.3385487  32.4930072
  96.2483597  35.7564616  32.9434705  96.3156509  36.8278813  31.8764567
  88.1933403  76.3702202  92.2314835  88.1619358  77.0798445  91.5898609
  87.6731682  76.6904545  92.9684353  15.0137615  31.9888377  30.3409171
  14.4504941  32.0399952  31.1131501  15.0654149  32.8898764  30.0220227
  42.9796124  88.3188820  93.0910301  42.8116512  89.2427444  93.2767391
  43.7783861  88.3219719  92.5636005  44.4596624  47.3196697  86.9909859
  44.8491621  48.1727934  87.1825790  43.9958715  47.4484921  86.1636162
 112.3572636  43.3260202  58.1600475 112.5266457  44.1820145  57.7665806
 112.3475933  42.7196836  57.4194431 107.2543240  35.1794577  25.8149266
 107.1838856  34.4297123  26.4058185 106.5325451  35.7540894  26.0700130
  96.9930649   8.7541771   7.8565741  96.7612076   9.3931675   7.1826553
  97.5990486   8.1552202   7.4203706   2.1726555  23.3206606  42.2078896
   2.0450796  24.2181873  41.9006443   1.9012213  22.7741766  41.4703846
   2.6044470   1.5572639   0.7019257   1.8630207   1.5415232   0.0967223
   2.9388860   2.4524991   0.6477410  63.9234972  57.3706436  92.5527573
  64.6234131  56.8872023  92.1138573  63.1477022  56.8206453  92.4437618
  97.6147461  24.2479992  19.3786883  97.7326775  25.0148845  19.9392354
  98.2473564  23.6101866  19.7091961  42.4151182  31.9352293  32.0304656
  42.2377872  31.3432050  32.7614212  41.9071960  32.7215219  32.2304463
   5.1471788  29.5317197  13.6699009   4.4599262  28.8764811  13.7906384
   4.7203144  30.3655791  13.8666201 115.3669930   7.8040010   2.7619204
 114.7838879   8.5222805   3.0074662 114.8387814   7.2536886   2.1836664
  44.3596601  22.8797197  59.4678354  45.2659798  23.0885625  59.6941185
  44.3042421  23.0426693  58.5262394 109.8044777 108.2660484  15.3418159
 109.2877293 107.9475784  14.6016920 110.1064396 107.4717903  15.7825124
  22.1701837  38.1302786  59.0662050  22.3434424  38.9213228  59.5765591
  21.2486506  37.9336667  59.2345810  63.2226229 105.5593586  23.5784936
  62.9706240 104.9702072  22.8674150  64.1728401 105.6407833  23.4966922
 108.7189674  22.5299907   0.1004604 109.3302631  22.1538615   0.7337683
 109.1427612  22.3998666  -0.7478898 118.0762100  32.8353691  18.2346177
 117.9784489  32.9214072  19.1829169 118.2753658  33.7216973  17.9329729
  20.2659774   1.9725776  22.0553756  20.0599599   2.8951040  22.2061515
  19.6931183   1.4977202  22.6575184  70.9982729  94.6139050  95.7868385
  70.6372786  93.7876034  95.4656887  70.4617214  95.2879143  95.3696346
   4.1326246  38.4840751  15.5618584   3.9333710  38.8652444  14.7067332
   3.3822232  37.9218125  15.7541859  57.3396063  59.5956707  93.3168125
  57.5535965  58.7006283  93.5801411  57.8854418  59.7558212  92.5469685
  50.0443363  91.5365791  93.3165359  49.8687363  92.2175598  92.6671791
  49.9209547  91.9722557  94.1598606  14.9133766  14.6644771  42.3669672
  15.0178754  13.7217331  42.2383308  14.4323099  14.7419167  43.1908655
  64.6274042  80.7999039  88.8993359  63.7741756  81.2278843  88.8281822
  64.9396467  80.7366467  87.9967117   3.2468480  13.0559921   6.5820748
   3.3508343  12.4167120   5.8772779   3.7487873  12.6921809   7.3114097
 114.0723228  26.7096233  58.0360413 113.9843273  26.0877991  57.3136663
 114.9097157  26.4871740  58.4428883  90.4447174  92.1212482  38.7357759
  89.8058510  91.4690113  38.4482718  90.6613827  92.6103973  37.9420352
   8.6443967   0.7287663   7.6691818   7.9623944   1.3839075   7.5212109
   9.4646364   1.2176339   7.6024985  96.8554974  15.2492166  15.7343400
  96.2609386  14.7930408  16.3298500  97.1259308  14.5794153  15.1062763
  10.6606984  23.5289121  51.2335682  10.1977432  23.6010766  50.3988886
  10.3969932  24.3087840  51.7219257  34.3368721  96.6102791  92.0529938
  34.8893142  96.1639118  92.6947117  34.1518831  95.9437561  91.3913631
 114.9476337  19.6838784  14.5591891 114.1019535  19.4715619  14.1642439
 114.7329426  19.9633205  15.4491615  87.8236294 105.8601475  30.0960016
  88.7762260 105.8858013  30.0058985  87.4991608 105.8133030  29.1966939
  25.6232762  12.7181625   5.6306773  25.9646940  12.7974868   6.5213919
  24.9785781  13.4219205   5.5577314  68.5983849  97.9053211  28.8104939
  69.3238974  97.3600483  28.5062861  68.9639425  98.7889957  28.8520098
  91.2718201  97.6261616  36.2376857  91.2343884  97.5510406  37.1911979
  92.1480846  97.3174191  36.0073209  44.6562243   6.6618997   5.1816493
  44.3297005   5.7830375   5.3745586  43.9252234   7.0983183   4.7441438
  10.8664393  18.9386392   3.8287136  11.3490117  19.5799494   4.3503228
   9.9607289  19.0195131   4.1276801 104.3960094  10.1461685  25.0430131
 105.2679920   9.7633696  25.1396227 103.7975502   9.4045687  25.1330805
 113.4093094   0.8763722  33.6319256 113.8282871   0.3474357  32.9530144
 113.8747692   1.7123656  33.6055398  70.0037289 108.9153576  21.7047715
  70.1333857 109.7814560  21.3183951  70.2493858 109.0237427  22.6235390
  38.0687070  30.1117826  35.1182675  38.6128330  29.3270731  35.1844835
  38.6839700  30.8122849  34.9015188  19.0896487  22.1032715  29.5565414
  19.3518317  22.7424860  28.8940477  18.5196888  22.5929403  30.1495004
 117.7642536  21.6163397  32.2200799 118.2806683  22.4215150  32.1848774
 118.0365467  21.1231351  31.4462328  92.1846676   6.3681376  18.2697010
  92.3684311   5.5225247  17.8605521  92.5567245   6.2948567  19.1485870
  29.0116572  90.3698158  85.9792614  29.7786975  90.4162884  85.4085445
  28.9467907  91.2434864  86.3649178  96.7800236  57.0597029  81.8939400
  97.4314022  57.3646212  82.5255680  97.0159245  57.4977684  81.0762119
  48.5418987  32.7023125  31.2909746  48.9911890  32.8991842  32.1129298
  47.6504755  33.0255055  31.4219117  28.1029844  31.2320685  42.7583551
  28.2758045  31.7693615  41.9852591  28.6466265  30.4538584  42.6355839
  60.2626419 111.6199970  57.4770689  60.9129000 110.9800816  57.1873951
  60.4942989 111.8013477  58.3879328   3.8946077  19.1891015   8.2299840
   3.7326354  18.3395600   7.8197712   4.3332326  18.9774406   9.0540224
 116.2315083  37.1894717  35.5732846 115.7126045  37.9136372  35.2232051
 116.4907551  36.6856813  34.8017812  76.9598532  94.8966122  23.5400915
  76.8066931  94.7240162  22.6111221  76.3578272  95.6094646  23.7536979
  69.9113131 102.6588821  17.1752512  69.6765709 103.5693932  16.9960976
  70.0935936 102.6389313  18.1147242 108.3376694  36.1032057  31.2305069
 107.9056835  36.9419217  31.0686994 108.3647251  36.0278106  32.1843481
  56.8886518  74.8059750  89.5585728  56.3962555  75.2149534  90.2702713
  56.2952089  74.8367453  88.8081646  22.0803356  19.4303632  14.4524705
  21.2506127  19.7541225  14.1017985  22.5163388  20.2106237  14.7950006
  82.1900368  94.2999363  54.4361448  82.3778534  94.6251202  53.5556841
  81.3134956  94.6310234  54.6318293  55.0768375  85.7589817  94.0772915
  54.7017336  85.4670620  94.9081421  54.6267605  86.5821457  93.8873768
  20.1975060  32.4975038   0.9248084  20.9655452  31.9303322   0.9930972
  19.9712920  32.7045655   1.8315521   1.0518222  51.1396980  29.9375939
   0.9837712  51.1333847  30.8923507   0.1447317  51.1647987  29.6329808
 117.9509830  81.7596722  26.6555548 117.1053505  82.0577812  26.3204908
 117.9924488  80.8348274  26.4123058 113.8296795  14.1185367  23.0863786
 113.0056190  14.6044791  23.1182647 114.0500546  14.0815318  22.1556258
  80.2103710  96.0972691  84.8059845  79.7883177  96.7373848  85.3789997
  80.7619572  96.6220951  84.2258739   9.5121890  56.2850666  27.9011345
   8.8985431  56.9443607  27.5770950  10.1405251  56.1716557  27.1879983
  83.4754086   5.4524338  92.4325466  83.7444305   4.8949674  93.1626797
  83.9055252   5.0697160  91.6678524  62.8114700   7.6635373  57.8805208
  62.3815393   7.9174566  57.0638704  63.0346537   8.4935486  58.3018303
  69.1092682 103.8381863  91.7485714  69.2389441 103.0380726  92.2577190
  68.3176422 104.2306709  92.1166897  21.8148875  80.3545475  75.3462744
  22.1257043  80.2974606  74.4427490  22.6135015  80.3711319  75.8736944
  59.2819786 107.9542732  95.6058025  58.4776592 108.3971977  95.3353882
  59.1416883 107.7458286  96.5294361  36.3845730  58.7022591  25.1138687
  36.5777040  57.8066730  24.8366451  35.6864119  58.6071444  25.7617569
  61.7851830  79.4322872  92.7967453  61.4495754  78.5502338  92.6367950
  61.5370464  79.6225643  93.7014294   6.1509156   1.8887076  42.9524612
   5.3744018   2.4206129  43.1266308   5.8081847   1.0860697  42.5593472
  74.2745972  95.4118633  68.7722731  73.4357452  95.6128693  68.3573580
  74.0381384  95.0152588  69.6107388  26.9343615  40.9676552  16.4985728
  26.5420389  40.9969139  15.6259561  27.1896267  41.8727922  16.6768861
   1.8115810  60.8236074  73.3559036   2.6334718  60.9325027  73.8343048
   1.9250216  61.3471317  72.5626278   5.4344392  44.1549301  54.5307970
   4.7538540  43.7439394  53.9977646   5.2052844  43.9245176  55.4311514
  63.6016655  68.2558680  76.8342018  64.1079807  68.6179399  77.5613737
  64.2580605  67.8706121  76.2537193   6.2589443  25.0449514   7.4411267
   5.4921705  25.6176901   7.4573064   6.5948886  25.1196527   6.5479338
   7.1051252  49.3560839  14.1187501   7.0961040  50.0923729  13.5071719
   7.8803623  48.8508272  13.8738954  31.3762021  48.3230352  13.4901261
  31.2860942  47.3994255  13.7247562  31.0893226  48.7974691  14.2704129
  30.3144479  25.1841068  20.6853199  30.7005167  24.9908185  21.5396142
  31.0614276  25.4069233  20.1297975  63.6903381  60.7047176   8.8885152
  63.0918360  61.4213324   8.6775762  64.3725395  60.7575274   8.2191569
 111.7840862  45.5769396  29.5996952 111.8332195  46.0844088  30.4098153
 112.2703171  44.7746420  29.7897792  10.4989123  31.6605568   5.4645598
   9.5489180  31.6078544   5.5692738  10.6232011  32.1181011   4.6330318
  20.0571394  55.1010180  27.5596952  20.3947020  55.9563065  27.2936845
  20.7388377  54.4823551  27.2974443  89.0747738 106.8116093  26.1626339
  88.5068607 107.4536324  25.7366037  88.8445759 105.9782696  25.7517934
  55.7573223  81.1185646  84.6582699  55.7781363  81.8993664  84.1049576
  54.8750401  81.1114883  85.0294304 115.0178337  82.9614449  85.6325245
 115.9459972  83.1952095  85.6227589 114.9896622  82.1108627  86.0706425
  10.5865717  62.4917507  50.8213663  10.2263820  62.7620077  49.9767017
  10.4079163  63.2291651  51.4049149  25.4569626  38.4231305   0.3855294
  24.9703312  39.2473435   0.3953205  24.8862076  37.8026032   0.8387580
  23.3940697  11.4137983  24.9286294  24.2484570  11.4387321  25.3594851
  23.1865430  12.3319411  24.7549176  53.5968399  92.4075508  94.3384075
  54.0666914  93.1795406  94.0229797  54.2753506  91.8577385  94.7302914
  52.8812122  35.0377750   1.5708129  52.0365095  34.7702289   1.2087043
  52.8072882  34.8592377   2.5083050   4.5853326  52.7132368  31.9718194
   5.3197432  53.2366705  31.6510558   4.9512523  52.2057819  32.6962662
  51.2412548  22.9230905   8.3099055  50.9498692  23.8123465   8.1085366
  51.6068554  22.9849052   9.1923720  14.5452666   1.8297113   4.5198900
  14.5746458   1.2236473   3.7795827  13.6845076   1.6859078   4.9131402
  10.1414359  49.4498825  24.1637492  10.7321048  48.6971378  24.1368651
  10.4647565  50.0326920  23.4767056   9.6642619  17.1045506  12.3102498
   9.7889137  16.2167895  12.6457703   8.7560719  17.1211755  12.0083463
 100.7045364  56.7926788  94.7962189  99.8581409  57.2189379  94.6614456
 101.2409496  57.4568272  95.2291107  69.5392609  97.1154213  94.9491310
  68.9185715  96.4160252  94.7446251  69.0024853  97.9067326  94.9931049
  48.7649250  90.0025749  87.2616100  48.6956835  89.2732334  86.6455746
  49.6777010  89.9871540  87.5494289  71.1796379  44.3141079   9.0289801
  71.1178160  43.3605814   9.0855050  70.4349422  44.5705795   8.4850246
  74.5914364  93.0736256  88.0448627  74.3155241  93.6491299  87.3314857
  74.7096777  92.2187424  87.6308441  37.7164459  51.6505241   8.3044881
  37.1641088  51.5063286   7.5361371  37.0977569  51.7842007   9.0225315
 112.6535225   6.3208276  42.2652578 112.4485588   5.8248359  43.0578566
 113.5453320   6.0554564  42.0405579  63.8750601  86.9423103  89.2202282
  63.4084702  87.5026989  89.8402977  63.4020281  87.0520782  88.3953476
 111.5227795  37.4120045   2.2735253 111.6613865  37.6688981   1.3619192
 110.5719280  37.4216676   2.3831695  58.9323902  94.5502281  49.3139696
  58.3665848  94.9318981  48.6428356  59.1992474  95.2943134  49.8537493
  33.0259705   9.5396143  18.7335002  32.3493671   9.8186409  18.1165838
  32.8315949   8.6174881  18.9012337   9.2420161  51.9483662  13.1663990
   8.3502805  51.6737747  12.9527652   9.7948581  51.4665318  12.5512278
  57.7901649  34.1715455  25.9607601  57.8588581  34.9385595  25.3922510
  58.5641766  33.6485457  25.7519436  16.3102591  29.7053266  20.3256536
  16.5764868  30.6202507  20.2347398  15.3538299  29.7354245  20.3495216
  29.4361830  92.7751541  87.2183132  30.0470138  92.7862835  87.9551888
  28.8639355  93.5272789  87.3701954  22.9350305  53.7903118  20.7897639
  23.6311245  53.1336069  20.7691383  22.2293401  53.3758116  21.2861753
 105.0726128 108.2424164  14.6100712 105.6911564 108.1276321  15.3314972
 105.5943489 108.0941868  13.8213670  74.3805838  86.4579773  95.4966164
  74.4241428  86.2145233  94.5719242  73.5534716  86.9323730  95.5806923
  11.8333733   3.3865842  34.9998307  11.8185592   2.4370208  35.1195860
  12.6931119   3.5666415  34.6194863  12.3209929  46.4645052   4.6295071
  12.4830401  47.4039030   4.5429042  11.4240825  46.3463402   4.3167445
  12.0848906  44.2886066   6.5400386  11.2267470  44.6812963   6.7000782
  12.5389874  44.9230909   5.9855533  71.4653063 103.5639286  93.7632465
  71.8748188 103.9735413  94.5253181  70.9114504 104.2502403  93.3911514
  54.2912912  30.6089544   7.1315032  54.4512224  29.7948241   7.6088351
  55.1257133  31.0764647   7.1690112   2.2949359  36.4408779  12.1191037
   1.5324380  36.1774325  11.6039109   2.8017023  35.6358624  12.2257280
  14.7434223  36.1411500  35.2834034  13.8464665  36.4427209  35.1393247
  14.8107040  36.0343623  36.2322450  14.0972006  41.8594599  14.1529620
  13.3616889  42.4528790  14.0009475  14.4667399  41.7082882  13.2830083
 106.4372349  98.5020924  16.2784541 106.6807175  97.9269409  17.0038140
 105.4896927  98.3948326  16.1954021  29.0201259   5.3097248  52.3274422
  28.3590460   5.8444393  52.7670860  29.8397660   5.7863623  52.4587393
  82.0461082  83.4295559  20.1913691  81.7371750  84.0196705  20.8788037
  81.2726688  83.2642174  19.6522188  27.9922080  21.6014338  25.1124287
  28.4313965  20.8455467  25.5022717  28.6517143  21.9923377  24.5392990
  50.6034756  26.8201518  22.4153972  49.8504925  27.3306084  22.7131915
  50.4403019  25.9370589  22.7466822   5.7392889  20.3559208   6.3732362
   6.1165559  19.5006943   6.1671042   5.0539869  20.1671672   7.0143026
  84.7218037  81.1412621  89.5388603  84.7297382  80.6532669  90.3622818
  85.0851059  81.9976234  89.7644615   7.7987570  34.2078185   4.4338462
   8.5004711  33.6241198   4.7221610   7.1289253  34.1309381   5.1132917
 100.8256054  13.0119193  20.0617576 101.7792702  12.9921639  19.9819660
 100.6659222  13.1224072  20.9990525  13.5736239  37.3915434   9.3656898
  14.3112755  37.6865125   8.8317460  13.1559956  36.7086434   8.8408428
  18.9093578  69.8686886  15.8184481  18.5700452  70.1655579  14.9740756
  18.9419019  68.9151287  15.7416284 106.7062569  66.7403364   1.6785455
 106.5927601  66.1995840   2.4601723 106.2947845  66.2361002   0.9766411
  78.6226130  15.0470757  12.5444317  79.1156578  15.8409655  12.7515018
  78.3990049  15.1387453  11.6182423   1.3979994   6.1981612  87.2624397
   0.5752646   6.6576970  87.4303055   1.8930041   6.7917621  86.6977882
  84.3914223  69.7330999  90.1395607  84.5620632  70.0816631  89.2645645
  85.2599430  69.6180773  90.5251312  35.4051757  74.3803358  33.8883924
  34.6637392  74.7166967  34.3917465  35.1298213  74.4586515  32.9750037
  24.8579574  39.1717982   5.5162579  24.5850587  40.0463200   5.2388221
  25.4230714  38.8615274   4.8087212  59.7845268  61.3202715  40.9858084
  59.1782045  60.6558657  40.6584454  60.5313158  61.2781239  40.3885126
 115.9806442  31.6348696  19.6385944 116.0634327  30.6812620  19.6351600
 116.3450623  31.9099522  18.7973094 114.6066856  48.2097864  44.7621202
 115.3796291  47.6454973  44.7811508 114.3543816  48.2393503  43.8392401
  14.7236478  13.8575077  12.8325212  15.6453371  13.6489332  12.9848909
  14.3950176  14.1302752  13.6891615 103.6079216 100.9567165  72.7305794
 104.5588207 100.9878445  72.8357315 103.2688427 101.4682770  73.4651232
  98.1384754   2.3999432  85.0065517  98.7043381   2.3140298  85.7737923
  98.6707020   2.8750768  84.3684196  20.7197738  16.1906850  39.2140579
  20.3288817  15.3548026  38.9596248  21.1899090  16.4828134  38.4331203
  38.6964583 103.3836079  95.4452991  39.2938399 103.2770920  94.7050095
  38.3961535 104.2902851  95.3822041  23.6520338   4.6281558  23.5783124
  24.5827413   4.8366413  23.4973836  23.3046532   5.3048259  24.1594100
  34.2710209  26.9249296  22.7561331  33.3895063  26.8335819  23.1178236
  34.6640468  26.0585046  22.8613400 108.2355881  17.9450953  59.8954201
 108.2398510  18.1258011  58.9554453 107.9474735  18.7654507  60.2957249
  39.1664505  28.7054729   6.9622964  38.8558149  28.2130909   7.7220964
  38.4011602  29.1991544   6.6676033  80.7514191  80.4736996  86.2344456
  81.2478924  80.7636070  86.9997597  79.8667908  80.3209686  86.5666008
   5.7653236   9.2643958  30.9555340   6.4731485   8.6831540  31.2336969
   4.9708742   8.7403822  31.0579610  16.3523543  18.4645677   0.7066780
  17.0729661  17.9378617   0.3609439  16.7820382  19.1802168   1.1751315
  16.5698051 105.1885223  83.4718037  15.8373606 104.7120571  83.8626099
  16.7206085 105.9244442  84.0650272 111.7013550 107.7173233  53.6146402
 112.2612858 106.9412899  53.5926962 111.7863083 108.0487633  54.5085955
  24.3294692  14.8777056  39.3724704  24.0751123  15.6978440  39.7954440
  25.1359177  14.6184194  39.8181653  37.4036241   5.5924731  14.4914258
  36.9404149   5.9362078  13.7275434  36.8723345   5.8689171  15.2381146
  26.5837598  26.1505866   5.0584823  25.7892442  25.7874203   4.6672174
  27.2479177  26.0658526   4.3744165  59.6624756  75.4017830  89.9569511
  60.0756073  75.1297283  89.1374779  58.7407684  75.5263090  89.7307014
  32.4986935  13.8313282  19.7490311  32.0914245  14.0748119  18.9177203
  33.0017662  14.6044612  20.0047970  33.2169414  23.6396170  53.1787300
  32.5402546  24.2693830  52.9302931  32.7352762  22.8370714  53.3791161
  26.3240385  64.1753006   1.7045164  27.2802210  64.1512918   1.7415543
  26.0425520  63.8028193   2.5401309   4.3393248   0.8043423  94.5004463
   4.4602564   0.5279130  93.5920429   4.8075393   0.1470304  95.0151730
  80.2141953  18.6481881  34.3686056  79.9936962  18.6325765  33.4372807
  80.1559925  19.5718122  34.6130681  13.4328008  51.6879988  11.8875158
  13.3166766  52.6170969  11.6887069  12.6546025  51.4520216  12.3924446
  24.3095112  19.2781210  31.5807462  24.0341139  18.5662127  31.0031867
  25.2131677  19.0631032  31.8118358  42.8851223  60.6254005  17.9210889
  42.4028921  59.8311996  17.6910245  43.6542368  60.3096628  18.3954358
  92.3488426   8.0181062  78.1288099  92.3617935   7.3052430  77.4901485
  92.0520878   7.6069587  78.9406776  21.3074136  27.4503231   7.4651718
  20.4395390  27.5724530   7.0803243  21.5705466  28.3268619   7.7456582
  11.1509204   5.1422882  82.2829151  10.5734992   4.9669325  81.5398979
  11.7302656   4.3812674  82.3208427   6.9241828  25.2713585  80.5933666
   6.0969037  25.5149865  81.0086823   6.6795409  25.0158310  79.7039413
  52.8285170  36.2862539  21.2323618  53.4487677  36.2217426  20.5061674
  53.1261730  37.0445848  21.7349267  71.6019630  78.2546759  57.9691362
  72.4482441  77.8236151  57.8498411  70.9781361  77.6870680  57.5164890
  95.1525688 103.4940910  72.9602385  95.7584572 104.1375637  72.5926971
  95.4006767 102.6675987  72.5460196  28.0692768  16.4009964  92.0467758
  28.9027262  16.7797101  91.7671967  27.4920058  16.5079248  91.2907696
   8.0327231  76.4328718   4.7884580   7.8955579  75.7068586   4.1799182
   8.4176511  77.1257448   4.2518091  53.3746481  19.0126669  85.7950592
  52.7169037  18.6704755  86.4004517  53.3396196  18.4206748  85.0436878
  92.3633194  83.9509201  95.9711456  92.5329113  83.0705357  95.6359196
  93.1477928  84.4494915  95.7425404  76.5696287  80.1425934  18.8119888
  76.2403250  81.0279751  18.9665401  77.3907804  80.2719116  18.3374107
  28.1418872  78.7985134  -0.0613237  28.0891633  79.3254566   0.7360374
  29.0701985  78.5798788  -0.1429813  30.0543904  46.3553762  53.6723328
  30.2541351  47.2170830  54.0381193  30.3882432  45.7363272  54.3215990
  48.2743216  17.3259366  64.3423367  47.6398659  16.6093242  64.3553352
  49.1120291  16.9078076  64.5414448  11.0077870  16.8357861  75.1216841
  11.6280842  17.4898732  75.4436016  10.1847422  17.0495057  75.5611753
 102.8433895  65.3398752   3.2926518 103.7729073  65.5673122   3.3150518
 102.7641869  64.5966625   3.8906473  25.1660442   2.1117748  91.9958019
  24.9609542   3.0254227  91.7972565  25.1898456   1.6805600  91.1415577
  65.2501822  44.0439177  80.5474949  64.6059275  44.5501041  80.0525761
  66.0838079  44.2292500  80.1151180  42.3138237  31.5402913  95.0506401
  42.3165607  31.1144757  95.9079075  42.2187901  30.8210325  94.4262505
  50.8917809  25.6566024  63.8994455  50.4633093  24.8373675  64.1474247
  51.7103434  25.6585193  64.3956137  58.6140060   4.8821154  82.0588017
  58.5273838   5.3563619  82.8857327  57.7545071   4.4844854  81.9195747
  17.0622230  27.6143503  91.0627460  17.4464393  28.1614399  90.3776932
  16.7806661  26.8214893  90.6063175  51.0253334  21.0363221  94.5350075
  51.9759321  20.9408569  94.5939922  50.8906651  21.6514730  93.8141155
  10.1146889   9.3191105  84.5236492  10.1031399   8.4348530  84.8899651
  10.3979492   9.8753095  85.2493477  83.6239529  68.5546494   6.6543150
  82.8052711  68.1423235   6.3786954  83.4093571  69.4841576   6.7330235
  48.8831186 106.9472027   4.6887478  48.7656641 106.2039852   5.2804101
  48.0613375 106.9968128   4.2004377  90.3090954  86.1924362  11.6664207
  90.7701206  85.8050251  10.9223795  90.9346676  86.8141174  12.0384622
  13.9732790  19.7213745  93.2138062  14.3609166  18.8506722  93.1252193
  13.0334783  19.5581603  93.2936096  22.6045525  32.9469533  96.2709832
  22.2259915  33.6369939  95.7262192  22.9883921  32.3318906  95.6460067
  70.9335709  80.9945488  12.3871267  71.5153265  81.7195415  12.1586978
  70.0528574  81.3367844  12.2339761  76.5972567  92.4744987   0.2973074
  76.2492037  93.3379459   0.0747295  77.4179649  92.6576805   0.7545992
  26.3069272  54.4884634  72.5239849  26.0487318  55.3995228  72.3841858
  25.5044055  54.0536213  72.8122568   2.9054722  52.8625154  84.8825169
   2.1463236  52.3950529  85.2309513   2.5325984  53.6094522  84.4142342
  14.9477637  70.4899693  12.1897256  14.5857728  70.7202578  13.0453897
  14.5798123  71.1400318  11.5911758  37.7598381  16.8430889  84.3908596
  38.2422757  17.6569188  84.2453671  36.9845891  16.9215584  83.8349247
   1.5410061  16.6686594  85.8691406   0.9159933  16.9337749  86.5439034
   1.0036306  16.5146399  85.0921345  10.5367732  25.9085250  53.0732250
  11.0245287  25.3373432  53.6665869  10.6349981  26.7836070  53.4484768
  20.3011584  52.1141720  46.0970163  20.2173686  52.1789980  45.1456976
  19.8027694  52.8592682  46.4326859  62.3288631  75.2047825  82.2160625
  61.6622925  75.7277822  82.6614666  62.0905399  74.2980909  82.4093056
  31.9348168  15.5468488  91.5702438  32.6261282  14.8866498  91.5206718
  32.4028039  16.3801098  91.6240501  19.6697593  47.0774889  75.4824400
  19.0173650  46.9088221  76.1622667  19.5805001  48.0111313  75.2911901
  24.4855738  24.9520564  84.1956997  25.0220895  24.3316627  84.6891499
  23.9046073  25.3397703  84.8502159  40.2796173  19.8057139  45.1642370
  41.0614157  19.7634888  44.6135616  40.6158400  19.9695396  46.0453415
  20.1728201  36.7911291  63.9645863  20.8908367  37.4232769  63.9973831
  19.7147894  36.9055080  64.7972679  48.5567760  17.4556983  68.7187862
  48.0047226  18.2203126  68.5549784  48.1546450  16.7554140  68.2048607
  13.8087499 108.0326271   9.2315906  14.5736790 108.1914425   8.6785138
  13.0705786 108.3644009   8.7204576  78.1251574 110.2280998  19.3543565
  78.8020229 109.6275234  19.6664274  77.3810482 110.0735950  19.9363041
  48.9620543  18.2678592  78.6080456  49.3344879  18.4705961  77.7498960
  48.0155420  18.3277345  78.4785700  46.9270849   9.3928504  86.2396526
  47.1330881  10.2982962  86.4719391  45.9727859   9.3426603  86.2946415
  38.6879039  51.1457777  11.9257510  39.5030999  51.6474152  11.9188428
  38.6698365  50.7299852  12.7877378  44.0124750  97.9492474   0.8389576
  43.2581806  97.7579498   0.2815768  44.3210363  97.0903111   1.1274953
  30.6402683  41.1505890  60.0022793  30.8018088  40.6039476  59.2333078
  31.3548541  40.9371090  60.6022978  36.6335821  91.5560627   6.3320810
  37.0152450  91.5312004   5.4546136  37.3104453  91.1852169   6.8982673
  45.9100580  94.7238350   7.2211903  46.5125132  93.9995003   7.3903823
  46.4397383  95.5107880   7.3491293  77.1931934  66.0721636   4.8453617
  76.3356829  66.1133146   4.4220227  77.0954466  65.3997326   5.5195373
  82.8498363 110.7509041   7.2538769  83.1960773 111.0834122   6.4257562
  82.9114532 109.7990036   7.1742791  35.3232098  25.0916767  90.9154892
  36.2581301  25.2503324  90.7851696  35.1814389  25.2488422  91.8489933
  13.8443863  49.4118643  94.5055294  14.0437603  48.5926390  94.0523720
  13.1015921  49.1985321  95.0703144 100.4571438 101.0711670   6.2898147
 100.5282021 101.7362118   6.9745737 100.4581165 100.2391148   6.7630100
  27.4266458   2.3518689  93.4661674  26.5605283   2.3078489  93.0610275
  27.2840929   2.8261876  94.2852688  12.6205981  23.0016994   8.5175103
  13.3231759  23.3397174   9.0728122  12.2699392  23.7758422   8.0770850
  77.1901035 105.4389191  17.0940709  76.5304327 105.1168537  16.4797914
  77.5402927 106.2267208  16.6781843  21.0351157  33.9817023  72.3736954
  21.0233617  33.5198212  73.2119989  21.4566493  34.8189640  72.5674295
  27.9992676  47.3883438  81.4921379  27.9755259  48.3259392  81.3008499
  28.1392217  46.9736910  80.6408405  32.5744724  88.2687187  24.4583654
  32.1633077  88.1692505  23.5997128  31.8408060  88.3128643  25.0715661
  10.1714122  55.3003216  51.6388083  10.9836161  54.8152828  51.4928770
  10.2299142  56.0493851  51.0457563 104.6296406 102.6263809  56.3751650
 105.0919056 103.4377766  56.1649656 104.8614502 102.4478722  57.2865534
  30.9664297  35.7926965  43.5288239  30.2723217  35.4329991  42.9764986
  30.5367398  35.9765530  44.3641663  80.1111698  76.3488770  20.7457805
  80.4071522  76.6929722  21.5885305  79.5034933  75.6455135  20.9743428
  46.6052866  80.9336185  10.4165423  46.9140863  81.8395615  10.4047012
  45.8100033  80.9585857  10.9486425  38.6302423  14.8482120  80.1994514
  39.0010452  14.3599188  79.4643974  38.5727549  14.2073119  80.9080982
  42.8720284  47.7319670  85.0074482  42.6532793  47.2147369  84.2322922
  42.4648905  48.5837841  84.8497200  85.5469322  99.8917103  21.3932920
  86.3191795  99.5177937  20.9689665  85.2305412 100.5515862  20.7762861
 109.4557762 104.8830795  79.4348049 109.4197750 105.7797050  79.7679615
 109.2065525 104.3396282  80.1823235  20.9616780  70.9435511  86.2396812
  21.5065002  70.1574183  86.2022972  21.5853310  71.6625786  86.3411236
   8.7934542 103.7145329  43.8892317   8.9867431 104.3548393  44.5739794
   8.7825918 102.8727055  44.3446827   0.1791562  47.9908180  70.2944374
   0.6663739  48.7908411  70.4914474   0.4286939  47.7734613  69.3962622
  34.9728441  95.5317116   8.0172628  34.4875145  95.3888226   7.2046924
  35.2746296  94.6599102   8.2724637  17.7314591   5.7375497  84.7538185
  18.0336583   5.6482720  83.8499737  18.0527115   6.5958607  85.0300980
  53.1563282  79.8813200   9.1952062  53.8360214  80.4402733   8.8186222
  52.3841095  80.0455284   8.6539644  55.1837969  43.2723713  82.2527885
  54.3628931  43.3088064  81.7618465  55.1816225  44.0695953  82.7825642
  39.7510743  39.2013049  79.8846817  39.0199733  39.0842843  79.2780256
  40.4915953  39.4351459  79.3250561  18.1149328  62.3512602  65.4451180
  17.4607754  62.9994678  65.7061481  18.9527154  62.7449131  65.6888247
   5.6221372  54.6563721  91.7560101   4.7141272  54.9590826  91.7667580
   5.8017820  54.4057131  92.6621723  48.4301090 105.9593582  19.3313360
  48.6015177 105.3422356  20.0426745  47.6708460 105.5952835  18.8761413
  81.3538837  98.4109497   8.5521775  81.2072659  97.4650669   8.5463256
  81.7604733  98.5850525   9.4010627   6.1499047  74.0930080  48.6061668
   6.8422782  74.4613171  49.1549826   5.8187771  74.8387432  48.1057072
  53.6880922  31.5152907  85.9074402  52.9798269  31.7096710  85.2935982
  53.9363813  32.3680067  86.2644672 114.3731880 109.7020245  81.7110443
 114.7464466 108.8332462  81.5622520 115.0174522 110.1486492  82.2602940
  74.2879915  73.0617476  15.8266377  74.9300909  72.7734327  16.4753389
  74.2786932  74.0155792  15.9063554  24.8603940  31.7811298  86.9917107
  25.0356388  30.8724952  87.2364712  25.7218194  32.1440911  86.7857075
  33.8982773  38.2381248  88.1966877  34.7534466  38.4472728  88.5724163
  33.4659266  37.7075744  88.8658810   2.6602584  44.0598392  88.6603260
   2.2619958  43.2846832  88.2644081   3.4008372  44.2663383  88.0901241
  44.2551279  22.5290966  64.8742628  43.9427328  21.6360879  65.0197887
  43.7737131  23.0579185  65.5105209  85.3403473  62.9487324  17.5234413
  85.4612255  62.5158310  18.3685553  85.9991550  62.5510120  16.9542074
  69.8452377 110.8259296  42.7685547  69.3346119 111.2771511  42.0963287
  70.7185173 110.7373047  42.3867702  81.4771175  68.6530924   4.4518459
  81.2996292  69.5669842   4.6744204  81.4920998  68.6382103   3.4948790
  31.2826204  94.2587566  22.6287150  32.0478845  94.5892620  22.1582150
  31.2905335  93.3154774  22.4662519  37.1091127  36.9162345  72.9977894
  38.0480933  36.7736053  73.1169748  36.9608974  37.8088307  73.3100986
  57.5077915   5.9967965  84.3701553  58.2176447   6.2840581  84.9444580
  56.8486023   6.6872853  84.4403458  37.0791960  18.7168479  86.9905853
  37.5204158  18.4633529  86.1798477  36.3720298  19.2964137  86.7072964
  20.8650994  28.2915187  70.1579905  20.8627152  28.4080505  71.1080694
  21.3939595  29.0183020  69.8288679  87.5759315  88.8366604  14.5739889
  88.2320690  89.3979359  14.1608465  88.0505848  88.3887100  15.2741778
  60.4519701  84.2286873  24.9395013  60.8514643  83.4249306  24.6069145
  59.5139885  84.1093445  24.7905707 100.7072163  74.7248697  14.9316442
 100.0303268  74.6524858  15.6045663 100.3814411  74.1923904  14.2059898
 116.0616398 108.5771084  61.7481613 115.3854752 109.2436695  61.8694735
 116.7931461 108.8769913  62.2877979  12.6950228  19.1078997  74.2932987
  11.9629407  19.5828712  74.6866035  13.2228374  19.7868276  73.8729382
  99.4268990 101.4245605  85.9950638 100.1306534 102.0379448  85.7835960
  99.0647602 101.7503643  86.8190479 116.6963768  40.4188013  63.8620520
 116.8613338  41.0205317  64.5879602 116.4120007  40.9831047  63.1430817
  94.2299175  95.5450535   4.6250612  94.6555042  95.2226067   5.4194975
  93.4739399  94.9697113   4.5079440  95.4248524  81.6190338   2.9109880
  96.0458755  81.5867615   3.6386696  94.6601105  82.0701599   3.2685959
  52.7412415  91.8088436  12.9995167  53.0571508  91.2468338  13.7070310
  52.5214958  92.6350880  13.4299254 102.8188133  78.3765364  23.1552935
 102.0925045  77.7531242  23.1476402 102.5891495  79.0034485  23.8412023
  61.6320038  34.7626972  89.9934959  61.5569925  35.7159090  90.0381565
  62.2433567  34.5374393  90.6947327  70.6164885  95.7878113  27.5288272
  71.2980175  96.1526012  28.0933404  71.0748291  95.5505180  26.7226958
  58.0013847  31.6059780  73.7288761  58.4954357  31.0970592  73.0861092
  57.3473406  30.9943652  74.0670824  25.7575417  99.1646767  65.1640892
  26.5752459  99.4831085  65.5464411  26.0050201  98.8556194  64.2926121
  27.5290847 109.2640877  93.6100769  27.8944588 109.1720581  94.4900036
  28.2602310 109.0653229  93.0251408  69.5489311  75.2507925  21.0921788
  70.2863026  74.6642637  20.9233522  69.4199800  75.2068329  22.0396352
  12.6987183 106.0397434  65.0835180  12.4435413 105.1254177  64.9604893
  13.5581779 106.1065960  64.6674776   2.1699201   3.1969076  10.5305314
   1.2915659   2.9034495  10.2884388   2.1794887   3.1604636  11.4869893
  39.4450152  28.6138005  96.0126434  39.7584545  29.1356320  96.7513457
  38.7188875  29.1221280  95.6512968   8.0710346  32.0495272  47.2852564
   7.1972549  32.2407031  46.9443846   8.1239361  31.0937905  47.2862005
  37.1314263  27.7479267  88.3936405  36.9896889  28.6058831  87.9935741
  36.3081384  27.2798538  88.2545757  16.8010378  77.4961329   8.9593434
  17.2623956  78.3174515   8.7895811  15.8769131  77.7432060   8.9937150
  47.5935364  80.4396343  30.7306004  47.9843760  81.3121414  30.6836534
  46.6685581  80.6012154  30.9164453  72.8008986 107.1528816   7.1996886
  72.7677011 108.0944920   7.3684806  72.5932217 107.0689011   6.2690711
  17.3416984  45.1982832  76.1668587  18.0943155  44.9605036  76.7083979
  16.6931486  44.5174313  76.3459063 112.0429420  15.9583282  23.3052540
 111.2662506  15.9565294  23.8647103 112.4145317  16.8337119  23.4141469
  39.7758102  83.0254841  18.9133918  40.7076502  82.9213619  18.7208724
  39.7415233  83.7357998  19.5540965  45.0116110  32.9354525  91.6489601
  45.6965780  32.3073244  91.8780994  44.8133612  33.3841133  92.4709320
  27.9659414  44.2992306  73.0945253  28.3197641  44.3249416  73.9835596
  27.0206976  44.2090940  73.2154512  51.9258928   2.1882240  89.7871304
  51.3831615   2.2284225  88.9996910  51.3691711   1.7644462  90.4403496
  92.7109337  87.6580048  12.4702406  92.4831104  88.2258892  13.2063401
  93.3824635  87.0717430  12.8189123  76.7220736  72.7926540   4.3526629
  76.9282579  73.0849409   5.2405190  77.0490170  71.8938351   4.3144128
  89.0201855 103.0990791  17.4758565  89.6775246 103.4043407  18.1011188
  89.4422531 102.3699760  17.0214272  16.2968636  18.7270045  60.8388710
  16.6917765  18.0860341  61.4299965  15.9295321  18.2023299  60.1275206
  70.6064701  94.5604897   2.8163370  71.2070036  94.5162868   2.0722669
  70.6071854  93.6741161   3.1776899  52.3335934  99.6983624  11.9373655
  52.4139309  99.0602112  12.6462710  53.2236767  99.7928715  11.5981734
  16.1222041   5.8657247  49.8746300  15.5119205   6.4524364  49.4279146
  16.6004884   5.4336584  49.1669607  79.3702984  68.2394648  19.1577911
  79.5275402  67.6412249  19.8882830  79.3746662  69.1099405  19.5558858
  73.5852718 109.9744701   1.4694840  73.9475918 109.1486263   1.7903124
  73.9645195 110.6410027   2.0423211  66.5796471 107.5225735  11.9230950
  65.6701183 107.7512646  12.1146476  66.7335320 107.8684711  11.0439467
  30.7862616  16.3493586  58.9811945  30.3655243  15.7225704  59.5697069
  31.0304046  15.8311844  58.2143021  70.6849051  55.0597668  82.9639721
  69.8015690  54.7027254  82.8719425  70.7839823  55.6494379  82.2165108
  84.7509480  78.7713814  17.3692977  84.4127560  77.9008627  17.1593761
  85.2589417  79.0233517  16.5981436 112.8850365  12.9340684  11.6527319
 113.3327484  13.6589205  12.0890534 113.5916042  12.3988163  11.2914848
  88.5511684 102.0585346   7.5904858  88.4845257 101.6166592   6.7440015
  87.6440525 102.1667194   7.8762686  63.7412405  40.5374002  85.9836769
  63.7712717  39.5922780  86.1322403  62.9100275  40.6825256  85.5317402
  40.9318876  37.9726219  87.6622105  40.2439308  37.8918386  88.3228302
  41.5643263  37.2913384  87.8904629  94.8285711  87.3061686   0.1190156
  94.7721565  87.7285366   0.9761400  94.8960340  88.0317908  -0.5015879
 112.3968506  30.5026722  33.3346725 112.4425507  29.5466638  33.3208370
 113.3006001  30.7876396  33.1995463 108.0660725  84.7924232   3.7198707
 107.9245567  84.8814774   4.6623531 107.5251484  84.0446186   3.4660575
  84.2558479  81.8064213  46.0049391  84.5431042  81.2970257  46.7627192
  85.0074100  82.3582554  45.7884550  75.7735062  84.1927814   2.2815710
  76.6532230  84.0682793   2.6377019  75.4550409  83.3057308   2.1143751
  78.0736732 102.6933861  20.2980876  78.4936810 103.0877495  19.5336890
  77.2822714 103.2148552  20.4321957 103.3084202  13.1570172  17.4275565
 103.2882786  12.4178731  16.8196988 102.8062916  13.8428473  16.9874072
  64.9216366  19.2179453  76.2647486  64.0451479  19.5893097  76.1642790
  64.8015308  18.4782505  76.8602848  32.3193812  40.5232859  80.3029251
  32.6159286  40.3297567  79.4136333  32.2681141  39.6680546  80.7297516
  95.4044819  82.2438717  13.7636948  95.5112648  81.8756866  12.8866136
  94.7273064  82.9126740  13.6618924  76.5393019  96.6250229  20.4684949
  76.7458296  95.6994438  20.5984354  77.2230339  97.0926189  20.9481716
 101.0617256 103.0954170   1.8919134 100.1424980 103.1216621   1.6262510
 101.1199856 102.3415279   2.4788356  43.6226082  29.2445064  78.8750219
  42.9204702  29.5581317  79.4450045  44.2543554  28.8432789  79.4717979
 116.0214710  75.4148054  31.8422771 115.5964184  74.6868086  32.2956967
 116.9555664  75.2098036  31.8831491  97.4864197  12.2273862   8.2056350
  97.9883289  11.5271878   7.7884543  97.5351429  12.9574382   7.5884795
 114.7784805  99.5457554  20.6127262 113.8802528  99.8741722  20.5732679
 115.3038692 100.3122234  20.8423901 104.3408108  77.4285364  11.8474400
 104.4353199  76.6313839  11.3260531 103.4562206  77.3746777  12.2091532
  12.9982412  93.3626175  61.0579443  13.0303276  94.0360260  60.3784370
  12.4166214  93.7245083  61.7265129 111.8835354  47.8790712  86.6776943
 111.3998795  48.4509516  87.2737408 111.2614727  47.6819658  85.9774017
  22.1641111  40.4872704  91.4337826  21.5547061  41.1385155  91.0863209
  21.6019511  39.8008347  91.7929745  31.2582278  49.9878025  78.8193083
  30.8008242  49.1944838  78.5406446  31.4715743  50.4404163  78.0033064
  62.9916191  73.7030077   7.3450696  62.9777622  73.7207174   6.3881338
  63.4916449  74.4810390   7.5918055  59.5517159  97.6381493   6.2843537
  59.8500061  97.5896168   7.1925932  59.4518805  98.5748959   6.1147743
  88.8816357  77.5884247  16.4171517  89.6803856  77.0661736  16.4911997
  88.1921101  76.9479990  16.2421048  68.3338308  65.7132721  81.5852642
  68.7870359  66.4572144  81.1885452  67.9301071  66.0723925  82.3753738
  96.1527444  13.8461680  95.5965110  96.3775635  13.4539170  94.7528126
  96.7094732  13.3909602  96.2282307  53.7946987  45.4429007  76.1506414
  53.0438805  45.9684467  75.8744097  54.1640377  45.9236670  76.8913794
  51.9638634  45.0756168  91.0088539  52.1430874  45.3774929  91.8993473
  52.1828079  44.1439009  91.0231876  86.8819809   7.4626982  86.8217564
  87.5512123   7.6129538  86.1540890  86.1002827   7.2179252  86.3265228
  42.4952841  15.9447360  70.7547617  42.6727390  16.1307478  69.8327303
  42.8572273  16.6960311  71.2246370  80.9358406  69.2625332  10.4099274
  81.8670464  69.4812012  10.3744829  80.5112743  70.0693703  10.7014477
  71.4693356  45.1908064  91.7150497  71.9358492  45.8282185  91.1744022
  72.1169186  44.9029255  92.3584747  42.9751444  25.0274086  96.0677052
  42.8720617  25.8741355  95.6333637  43.8641548  25.0466156  96.4219952
  61.2865162  17.0175672  89.4103527  61.7590332  16.5267122  88.7380219
  60.8051634  16.3506305  89.8999691 117.2394753   5.3410447  29.6284437
 116.6568851   5.3020710  30.3869319 116.6602325   5.2248871  28.8753057
  95.9871864  75.9238815  22.8212714  95.4426289  75.2436113  23.2174063
  95.3665924  76.4916277  22.3643780  75.4094028 105.5957031  22.0874953
  76.0724688 106.2812138  22.1691012  75.6734037 105.0980282  21.3136387
  74.1826248  78.3156824   4.9598125  74.6974516  77.6551676   5.4233897
  73.2734680  78.0471897   5.0923741  99.2367649  83.0081367  12.6160443
  99.7475910  82.2509575  12.9023302  99.7273731  83.7639713  12.9389155
  85.7079315 102.6350403  23.0544758  86.6453743 102.7457047  22.8957582
  85.2940273 102.8846073  22.2282648  53.9922762  43.6241913  87.1629810
  54.8340082  43.4261894  87.5734901  53.9227962  42.9961109  86.4440155
  72.9256916  74.8116922  23.5514545  72.2478342  74.4038010  23.0125976
  73.6873770  74.2407656  23.4509134  41.7854643  42.8196716  73.2746267
  40.8648491  43.0725288  73.2055759  41.9945192  42.9274940  74.2024755
  94.7159195  68.5759497  10.9808838  95.3421688  68.0325270  10.5026209
  95.0571060  68.6043262  11.8747616 100.8217335  91.3364887  18.8116455
 101.1703205  91.4146042  17.9236042 101.3026428  90.6024837  19.1940117
 110.5334473  78.5551548   5.7048899 110.3538227  78.1103802   6.5332270
 109.8006058  79.1609430   5.5944735  86.7582226 104.0439892  19.6647453
  87.4502277 104.4252682  20.2051067  86.9094944 104.4056988  18.7915254
  84.5180893  75.9225273  54.7897005  84.0696144  75.0830555  54.6878195
  84.6537971  76.2318277  53.8940716  56.1822319  98.1515789   2.5662950
  57.0037508  98.0796337   2.0803225  56.1024761  99.0844917   2.7651197
  14.8073983  53.2716227  95.2610779  13.8611102  53.1866217  95.3774643
  14.9945092  54.1846228  95.4793930  46.4934921  19.5491970  86.5210152
  47.0646954  19.0685821  87.1201611  45.6926727  19.0262973  86.4823914
  58.7587881  42.2757339  86.4366627  57.8570557  41.9548655  86.4490700
  59.2063427  41.7082119  85.8090973  19.6030962   1.2552160  28.7414813
  20.0497556   2.1017519  28.7312508  19.9867332   0.7731204  28.0089259
  83.7326813  73.8869905  38.7596583  83.2852554  74.7218943  38.6218929
  84.5871830  74.0017080  38.3438325  69.3354034  48.9061356  87.3736382
  68.8782406  49.2341185  86.5992546  70.1238680  49.4456387  87.4327183
  66.9867945  86.8678474  19.0105748  66.5876722  87.6421738  18.6138988
  66.3093042  86.1939621  18.9547348 102.3531723  69.1170120  16.6920590
 101.6561508  68.5344458  16.9937372 103.1386662  68.8024998  17.1396244
  60.9206963 104.9061298  31.7629838  60.1825285 104.8298359  32.3675680
  60.5157232 104.9845695  30.8992267  69.4146061 100.2119160  18.8888216
  69.9856663  99.7961903  19.5348036  69.7445107  99.9045658  18.0444729
  48.3556700  80.0854683   2.0973550  48.9485407  80.7557297   2.4371880
  48.9295101  79.4605017   1.6542396  19.5202672  61.7238808  95.5815220
  19.3180287  60.8505249  95.2460003  20.1679540  62.0718670  94.9686337
  35.5057502  10.0270915  15.5702507  34.5764661  10.0505078  15.3419673
  35.5504179  10.4358435  16.4346337 113.2399940  87.4839211  30.6184483
 112.3368073  87.1703434  30.6649733 113.1860352  88.2956028  30.1139760
  67.9416323  97.2589874  22.6428890  68.5926676  96.6486931  22.2965908
  68.4453726  98.0377769  22.8794599  98.9557743  90.6533051  21.4716983
  99.7209644  90.7023907  20.8987141  98.5353947  91.5087318  21.3837028
  93.9443111  94.9457264  40.6172180  94.2202950  94.7323799  39.7258425
  93.4132957  94.1971970  40.8891630  34.7599816  26.2830496  88.4931755
  34.6382213  25.4992366  87.9574203  35.0040078  25.9479094  89.3559456
  15.3968024  47.0862913  70.7183170  15.1645410  46.7367458  71.5786076
  15.3790593  46.3253736  70.1378632  70.5494070  34.2087603  85.9908104
  70.1079035  35.0506783  85.8790874  69.8780298  33.6329484  86.3567734
  57.9765654  94.6166420  18.8976121  58.4088516  94.9197483  19.6960378
  58.6825085  94.5460796  18.2550442   1.3821943  98.7165165  35.4083467
   1.7069218  99.6156979  35.4557610   1.0217987  98.5458183  36.2785244
  34.2387402   4.9063256   1.4087743  33.3066237   5.1031211   1.5018148
  34.4338190   5.0989011   0.4916639  96.1327362  68.4385777  13.3744013
  96.4292908  68.8347673  14.1937447  96.9177341  68.0325317  13.0068052
  63.8187218  77.9206514   3.2776389  63.5550356  77.8090382   2.3642692
  63.0307627  78.2404470   3.7170476  42.2428131  44.2633820  90.6225014
  41.3426065  44.5798254  90.6981945  42.6075983  44.3663836  91.5014553
  39.3448782  51.8619251  90.6951332  38.5591793  51.3561583  90.4875183
  39.8322845  51.3078022  91.3047314  87.8650951  98.5672092  29.1834354
  87.2703552  97.8563213  28.9443707  88.6782646  98.3649921  28.7207294
  85.0333595  88.2872391  16.2779331  85.5988407  87.5650406  16.0042632
  84.8952484  88.7986565  15.4806805  13.0203652  94.6733189  13.1937969
  12.5122952  93.8625526  13.1663573  12.3864913  95.3602886  12.9876113
  86.7062378  91.6089725  47.7330685  85.7819176  91.4771652  47.9439783
  86.9028568  90.9325314  47.0849943  47.0997858  39.5183897  82.7853298
  47.2769070  38.6107707  83.0324841  46.2137079  39.4996023  82.4237347
  82.8601646  99.1485691  11.8767953  83.4464169  98.8779545  11.1701858
  83.0264091  98.5204983  12.5797260  54.5060968  34.5313644  95.1820850
  55.3181458  34.9744320  95.4280472  53.8139153  35.0687551  95.5672169
  93.8135815   8.2777596  26.2398791  94.1655445   7.3878264  26.2205696
  93.3886051   8.3857620  25.3890181  62.2559071  54.1840172  79.0177011
  61.3362694  54.0087318  79.2171288  62.7427578  53.6054993  79.6046638
  84.5368958  59.5635223  28.5906816  84.8259735  60.4751396  28.6310124
  84.8191929  59.2606974  27.7276421  47.1800542  -0.1412918  81.2641144
  47.1495611  -0.3826477  80.3383446  47.8224689   0.5670784  81.3059139
  25.7953453  29.5544696  91.8164349  25.2765965  28.8113475  92.1245003
  26.2601113  29.8612809  92.5949478  49.5719194   5.5989099  96.2450790
  50.3075790   5.0074524  96.4038563  48.7949228   5.0595999  96.3922310
  57.3393154  49.7858477  80.9780693  56.6846657  49.5376253  81.6307926
  57.9815388  50.3006315  81.4667225  54.9542665  92.0610619  22.8415799
  55.5526733  92.3855305  22.1686316  55.1956987  91.1416149  22.9536247
  68.4583330  79.3786907   9.2132783  68.1174183  78.6075401   9.6664125
  67.9278326  80.1041222   9.5427597  41.4880800   8.3751702  76.2880611
  42.3681974   8.5240442  75.9424353  40.9615898   8.1601983  75.5181074
  64.6867466  59.9132919  90.0947475  64.2303228  60.4889870  90.7083416
  65.3345346  59.4566107  90.6314468  31.5656805  83.8779163   6.9769949
  30.7583833  83.6953640   6.4961839  32.2632098  83.5623169   6.4024675
  34.8527527  99.2661762  17.0742178  34.3519282  99.6974087  17.7666366
  35.2522993  98.5095596  17.5033200  25.5604625  32.2313857  69.0044165
  25.9277725  31.3802075  69.2427635  24.9714398  32.4488616  69.7269011
  65.4713678  99.5328712  28.9333701  65.5500746  99.1991901  29.8270655
  64.6130800  99.2283249  28.6387157 108.9947796   6.1308986   5.1021260
 109.4166946   6.2731564   4.2547891 109.2077923   6.9136757   5.6101775
  75.7162237  94.8378849   8.4250718  76.1759996  95.6633282   8.5783064
  76.4028740  94.2275810   8.1562251  25.7194304 100.9595871   0.8898531
  25.3754449 100.2713108   0.3204806  26.6472650 100.7464886   0.9895585
  65.8724642 101.7871189  14.0285373  65.9292364 102.5680065  14.5792007
  64.9639845 101.7719078  13.7274373  78.8308287  96.5626431   7.6476568
  78.6739969  95.6207752   7.5804532  79.6507597  96.6346645   8.1362838
  41.5651608  26.7541003  79.0857744  42.3109388  26.1656094  78.9686203
  41.5495157  27.2826862  78.2879114  31.5764380  31.3012171  86.3969803
  30.6550384  31.5065336  86.2385464  31.5623713  30.4341006  86.8021297
  65.2541208  91.0079861  20.3786802  65.7229996  90.4460621  20.9956217
  64.8702288  90.4009628  19.7459280  21.7734265  36.9530511  70.1045704
  22.4726629  36.4063430  69.7462273  21.5194750  37.5232506  69.3788910
 110.2370453  23.4736538  54.4573832 110.8920765  23.8808560  53.8905048
 110.1707935  24.0630841  55.2086592  16.5557683  46.6690493  93.3627892
  17.0079851  46.6714239  94.2064190  16.9420373  47.4010324  92.8819180
  44.9503422  19.9127567  80.3688049  45.3586769  20.5203414  80.9855175
  44.1429710  19.6373188  80.8029842  91.1713696  42.5547171   8.1044668
  90.9948254  42.7529812   9.0241146  90.7385349  43.2580090   7.6204586
 104.4308376  95.7605267   8.7482291 104.4670868  95.8601379   7.7969164
 105.0289154  95.0372124   8.9362681  46.2933064  37.0691013  84.3744946
  45.5466843  37.0148921  83.7779617  46.5696049  36.1606789  84.4955635
  47.5514555  22.4805450  80.8230400  47.9994535  22.2179103  81.6271305
  48.2005119  22.3462915  80.1324463  33.8600206   8.4665537  66.9624567
  34.7940063   8.3280075  66.8052578  33.4353137   7.7039945  66.5695715
  27.6683092  52.7957249  83.4478092  27.9522228  53.4636259  82.8236866
  28.4333038  52.6465225  84.0034676  63.6053705  58.5231495  72.1497583
  63.2635927  58.5617828  71.2564898  64.5510721  58.4236860  72.0402718
  32.6107097   2.2675651  19.4396341  33.1920123   2.9129434  19.0373814
  33.0622649   1.4318961  19.3213713  42.3221302  31.6732860  82.6947689
  42.2234344  31.2839460  83.5636234  41.9872904  32.5646877  82.7923203
  36.5948772   3.5016254  82.7698421  36.8007541   3.4517899  83.7033081
  37.2436976   2.9361230  82.3509502  64.7912216  93.7566757  16.5833259
  64.3688583  94.0890217  15.7912469  65.4886532  93.1856251  16.2612700
 101.4994621  89.3474007  25.9205627 101.9100857  90.1935577  25.7426834
 100.5716419  89.5513725  26.0379243  89.4222450  96.7852879  21.2665200
  90.3136826  97.1007919  21.1181402  88.9691639  96.9498730  20.4395604
  82.1269035 110.8067226   1.7568596  82.0055199 111.6922665   1.4143392
  81.2518883 110.4193211   1.7347051  23.5322118  17.3549843   2.3927915
  22.8020620  16.8229198   2.0765330  23.1653404  17.8565919   3.1208205
  78.5034800 101.2462330  23.1875467  78.1395721 101.5943336  22.3735285
  79.0884495 101.9353771  23.5023785   3.4313115 103.2617664  23.9405847
   3.8199472 102.3920345  24.0341663   2.5271928 103.1530952  24.2355299
  55.6768942  76.4361954  16.0090768  54.8535109  76.8711472  16.2306356
  55.4407454  75.8112478  15.3235817  75.3732634  77.0933819  12.5205195
  74.9998760  76.2202692  12.6408899  74.7453117  77.5469875  11.9582438
  62.8340864  92.3176479   5.2544653  62.3652363  91.9113255   4.5255560
  62.3703718  93.1407547   5.4084325  57.7322292  63.4016371  80.3800201
  58.4790754  63.2570839  80.9610176  58.1093073  63.8156080  79.6036959
  45.2167082  36.0812449  77.5872803  45.8350754  36.2612104  78.2954264
  45.7683563  35.9376097  76.8183279  35.7936358  13.4773350  57.5103283
  35.1774955  12.9538834  58.0227709  36.3501382  13.9003980  58.1642008
  90.6545067  80.0389671  27.2107482  91.0248470  79.5145988  26.5007377
  91.3436699  80.6660366  27.4300051  69.5649231  76.2091356   1.5420408
  69.0493119  76.6058522   0.8399076  69.5072091  75.2676874   1.3790101
  11.0226691  92.0522785  14.5833850  10.4099202  92.7822495  14.6723306
  11.0939670  91.9131279  13.6390412  97.6974773  97.2393703   1.1341678
  97.1482086  96.8455791   1.8120056  97.5320816  98.1792831   1.2079706
 107.9299450   3.4967038  10.2357197 108.3452606   3.8388765  11.0273433
 107.2277737   4.1188258  10.0455844  91.5624332  99.1442490  39.4047189
  91.5113449  99.9372959  38.8711524  91.0869980  99.3636417  40.2060080
  22.4049401  68.6244011  86.5536880  22.9160190  67.8167295  86.6055870
  22.2249436  68.8529587  87.4656010   8.3955294  56.6921902  83.8567257
   8.5106313  55.9962702  83.2096672   7.4778050  56.9501638  83.7703323
  53.4525824  46.7975760  87.8531933  53.4316397  47.7279377  87.6290989
  52.9992533  46.3664436  87.1287346  67.8035975  46.4688826  85.2908802
  67.9258680  45.6578207  84.7974682  66.9703817  46.3487911  85.7464600
  11.9322431  55.5293512  84.8633385  11.3342023  55.0347805  85.4236794
  12.0095742  55.0000572  84.0695572  61.1047268  17.1389115  68.9103413
  60.4772282  16.4238036  69.0156937  61.9591856  16.7299950  69.0478897
  31.6075397  51.1832762  95.7107162  31.6998243  52.0356798  96.1363029
  30.7776070  51.2405539  95.2372646  62.4328232  24.5273256  30.3527927
  61.9644976  23.7218904  30.1332974  61.7419386  25.1713705  30.5080795
  99.2222214  77.2375822   2.7211630  99.0657711  76.2933397   2.7085507
  98.5825443  77.5945997   2.1050508   6.5674412 108.3786011  86.1651230
   6.2765729 109.2719555  85.9819603   7.1128863 108.4599686  86.9474888
  69.4825983  61.1936522   7.8401572  69.6095943  62.1360111   7.9499757
  70.3693438  60.8347416   7.8069091  24.0335583   0.6323192  77.4100399
  24.8151039   0.3289841  77.8719997  23.8879704   1.5182922  77.7418280
  85.3305435  86.4629555  23.5439610  85.3399277  85.6591797  23.0242491
  84.9835587  87.1283436  22.9497480  15.0928867   6.6065115  13.1662059
  15.6491089   7.2252363  12.6928902  14.5467186   7.1565682  13.7277842
  77.5673676  67.6221418  13.0626416  77.2828817  68.2644176  12.4124241
  77.2694111  66.7814684  12.7151859  28.0737114  13.6534238  96.1295223
  27.9477119  14.0157580  95.2525616  27.5971746  14.2506158  96.7061615
  59.4065857  73.8495541  21.5553522  59.9843550  73.1124401  21.7530370
  59.4064569  73.9041805  20.5997109 117.6775551  53.1065178  90.4723263
 116.8032742  53.3280993  90.7929230 118.2545185  53.2684088  91.2187481
   4.5471084 109.8478127  79.6549368   3.7537450 110.3618622  79.8051405
   5.1303554 110.4405117  79.1808462 103.2407284  25.1300645  88.4969807
 103.6474419  25.3102851  87.6494312 102.7841568  25.9410310  88.7208176
 101.7045593 109.0080833   9.6617728 101.6342735 109.4622898   8.8221407
 102.6449013 108.8804340   9.7870582 106.5218067  10.0640452  12.4742556
 106.8408871   9.3331492  11.9449019 105.5909729   9.8800248  12.6003623
  32.2916365  43.6634254  60.1334381  32.9151893  44.3229675  60.4374409
  32.7909636  42.8468084  60.1267719  64.2741680  91.7082310   2.3016408
  63.4825850  91.8416977   2.8229997  64.3166780  90.7612324   2.1688801
  59.4919825  88.8070869   0.6642424  59.3441439  87.8731537   0.5154587
  60.4177761  88.9386082   0.4596931 105.7802010  65.3228855  76.4467239
 105.2074814  64.6195459  76.1408997 106.3369274  65.5227327  75.6941605
  61.2049341  83.6530113   0.4350529  62.0537472  83.2974243   0.1718051
  60.6143045  83.4175873  -0.2804647   8.1141031  61.1822224  92.3580170
   8.2400179  60.8733892  91.4608002   7.9754370  60.3845596  92.8686428
  78.5769176 100.9364700   3.4293586  78.0645275 101.2503624   2.6842698
  79.1436625 101.6732788   3.6577153  61.7672062  36.9500804  64.5282793
  62.3284674  36.7746043  65.2835417  61.5886307  37.8892803  64.5756483
  83.7919998  81.9041443   2.4816766  82.8463364  81.8433571   2.3465808
  84.0812111  82.5679302   1.8555912  96.0112572  95.2698231  27.7663016
  95.3242683  95.2014256  27.1032810  96.0276890  96.1980820  27.9993033
 110.4780293  89.0957832  10.7558632 110.0205231  89.8028660  10.3009415
 110.0199509  88.3004093  10.4842663  19.2441499  44.3945169  77.7665472
  19.7961462  43.6143970  77.7122545  19.0208650  44.4658136  78.6946058
  54.3825531  45.1314831  84.3050194  55.1959896  44.8786259  84.7416115
  54.5140600  46.0490704  84.0663242  73.6280346   7.7109748  71.6299486
  73.7591887   8.6091340  71.3260698  73.1578445   7.2824097  70.9147644
  48.2633209  59.4707870  15.8281791  48.4148693  59.1239500  16.7073655
  49.1168022  59.8047876  15.5520606  61.7311287  42.1941090  76.9182491
  62.5209379  42.6915598  76.7061615  62.0293379  41.5202188  77.5291300
  64.9387121  94.0635777  26.0898590  64.0077639  93.8422680  26.1141706
  65.1222086  94.2259598  25.1645517  67.3707819  34.3886542  88.8329029
  67.6158619  33.5247326  89.1642761  68.1518173  34.9261189  88.9646339
   9.9641627  18.6733234   8.3911133  10.3513241  18.5426974   7.5255066
  10.4148042  18.0426335   8.9527035  92.1129322  58.3975315   1.9723849
  92.0029640  57.9524279   2.8126371  92.9076385  58.0146933   1.6007514
  78.7124252 110.5101490  26.9842458  78.6517525 109.6021461  27.2810268
  78.6031866 111.0301685  27.7804136   4.7254723  11.4309955  93.3736420
   5.0302953  12.0405614  92.7015209   3.9816496  10.9828651  92.9709816
  87.9462147  19.8956406  90.0736237  87.0912361  20.3034973  89.9361515
  88.4255600  20.0650024  89.2625904 105.8555603  97.9446697   8.6740690
 105.5716896  97.1258640   9.0805256 105.0517845  98.4554195   8.5775542
  57.1264553 101.8664455  79.9230862  56.4984131 101.8922615  79.2011976
  57.6449537 101.0782528  79.7614002  98.5783195 108.1249142  54.4198895
  98.6684418 108.4236050  53.5149622  98.0052662 108.7727165  54.8299932
  59.5378017  55.6688499  84.4882870  58.6416531  55.3707027  84.6440411
  60.0820446  54.9081135  84.6915340 115.3635788   5.6880522   7.2341967
 115.6821537   4.8589212   6.8774283 114.4923401   5.7941777   6.8522000
  89.0223217  62.6750708  88.4736252  89.7325039  62.0356607  88.4186172
  88.3825684  62.3787594  87.8262138  24.9219418  47.7264214  34.8580527
  24.7192168  47.1282530  34.1387987  24.1607475  47.6728153  35.4359269
  17.5149333   7.2342581  28.2957435  18.3880842   6.8700969  28.1500506
  17.0808947   7.1632636  27.4455667  57.4074459  42.8022003  94.0132999
  57.9864311  42.9227686  93.2606602  57.0472193  43.6731625  94.1803169
  23.0155778  17.8463757  11.9225311  22.1847177  17.9897404  11.4693749
  22.8736782  18.2001746  12.8005528   1.4315870   2.3981880   6.4333129
   2.2623736   2.2247310   5.9906632   1.3627228   1.7076488   7.0925891
 114.4693375  84.7776604   9.6461642 113.9838028  84.5568085  10.4409623
 114.8500538  85.6366539   9.8289812  46.9861603  39.6288753  68.2634449
  47.4693203  39.6722007  69.0886164  47.6400757  39.3637514  67.6166534
 116.1846733   7.0150858   9.4862932 115.5345631   6.6297328  10.0737453
 115.9980106   6.6238993   8.6328518  56.2156487  77.8662252  96.2373161
  56.4561224  78.7289715  96.5750599  56.2277317  77.9696178  95.2857971
  61.5305567  56.7981863  86.1558628  60.7262039  56.9232655  85.6522751
  61.6978550  55.8568335  86.1100960  62.4154758 100.2254105   3.9436638
  63.3688641 100.1423740   3.9631802  62.0954514  99.3946838   4.2953801
  58.0391550  91.2078094   1.0028344  57.6959610  91.2785339   1.8935913
  58.6240625  90.4506302   1.0309333  79.6165848  99.6431255  30.5194163
  79.2894602  99.9387646  29.6698189  80.3588963 100.2186584  30.7037139
  51.2468338  35.7395291  77.4974823  51.3164663  36.6652298  77.2641134
  52.0802736  35.5362129  77.9220629 111.1510658  20.3577900   9.2281246
 110.3910732  20.8001280   8.8500011 110.7880116  19.8119330   9.9255925
  93.1888962 108.8020897  13.4463811  92.9114532 107.8974915  13.5911655
  93.9759350 108.7277603  12.9066801 108.0757523  69.4414997  19.8678875
 108.3449936  69.7001123  20.7492852 107.9260445  68.4981441  19.9303031
 110.7422829   0.9293989   2.8543258 110.6674862   1.1439519   1.9244853
 111.0948086   1.7236206   3.2557854 115.5353165  78.4370613  31.0665488
 116.4532661  78.6550856  30.9050798 115.5536747  77.5265884  31.3614011
  16.4324749  43.8384247  90.4745960  17.2383046  43.5022259  90.8668327
  16.1033368  43.1127167  89.9442673   5.7203907  20.6148791  17.9909921
   5.2131999  21.3202262  18.3928323   5.1928002  20.3370714  17.2421920
 106.3161850 108.2029629  17.0212030 106.6722965 108.6246586  17.8032458
 106.2474537 107.2780800  17.2580600  21.6122007  15.3103936   8.3073503
  21.6820335  14.6841586   7.5868052  21.2652397  14.7977471   9.0374488
  79.9673319  47.6702023  73.4431887  80.3908348  47.0968151  72.8043556
  80.5587769  47.6683664  74.1957998  75.0424099  96.8356323  11.2694216
  75.5532455  97.0983696  10.5037534  74.3826008  96.2351418  10.9225810
  82.9958248  21.4929390  60.4890776  83.9456654  21.5283513  60.3760529
  82.8404713  21.9023609  61.3402367  81.7688942 102.9197884  12.8385663
  81.1068058 103.5378551  12.5289345  81.9902897 102.3991966  12.0664275
  87.5159395  78.0195472  95.1843181  87.0667446  78.7450620  95.6180099
  88.1468141  78.4424087  94.6017229  26.9824243  50.4719877  58.3869171
  26.7355609  51.3863659  58.5254908  26.6476464  50.0140381  59.1579151
  95.5697477 111.3221122  36.4107180  94.9593843 110.6093770  36.5996528
  95.0859380 112.1172857  36.6340089  59.4931698  80.7324600  94.8772812
  60.0354958  81.4028263  94.4616699  58.6368847  81.1474991  94.9809837
  42.4912786  48.6588192  90.9351826  42.0529222  49.2234325  90.2985573
  42.4926424  47.7931833  90.5266380  58.5206270  11.4518726  95.3991508
  58.5391045  10.8323348  96.1285782  59.1590786  12.1234679  95.6390953
 104.8994541  84.5339298   6.2210804 103.9497375  84.5935535   6.1176252
 105.1207924  85.2492142   6.8174148  96.3808918  84.8987293   7.7183491
  96.9176674  84.7892761   6.9334131  96.9816589  84.7315788   8.4445596
  97.9168892 105.7552624   2.7828357  97.4932861 105.0223637   3.2296517
  97.2077847 106.3761997   2.6159739 112.5162888  92.8672314  23.3255124
 113.3103848  92.3355293  23.3797359 112.7220535  93.5394764  22.6759076
   4.3788952  18.5175335  12.9333901   4.4489989  19.1551042  13.6438966
   3.6681348  18.8482106  12.3841143  75.2151585 103.2630825   2.2751103
  75.9756708 102.7023029   2.1222149  74.4649410 102.7210617   2.0309249
  31.0796833  49.4770384  92.5166988  31.4743996  50.1979589  93.0073166
  30.9851241  48.7736750  93.1590176  76.7807674  88.6855793   8.8641340
  76.0084152  88.7812138   8.3068579  76.9351149  87.7415752   8.8996089
  66.5986013  50.8550501  81.4089584  67.1086359  50.7195616  80.6103706
  67.2549343  50.9471941  82.0995808  79.8649979  65.9571934  77.0879650
  80.5153751  65.3795910  77.4874735  79.0865898  65.4090357  76.9887924
   8.7095743  18.8207471  37.4883008   9.4357669  18.7818933  36.8659115
   8.5555190  19.7564542  37.6184940  14.1288948 110.9340668   5.2773601
  14.3768084 110.2333069   4.6742764  14.6376753 111.6910934   4.9870282
  18.7366748   6.0448605   1.9681934  19.4411135   5.4257822   1.7765154
  18.3907521   5.7597125   2.8139237  35.0347281  85.7556820  94.8315334
  34.4231415  86.1795139  95.4336643  34.6600032  84.8878384  94.6810341
  63.7533712  89.2532063   7.3643249  64.5238161  89.5750332   6.8962753
  63.1747913  88.9249420   6.6760492   2.6915103 104.5473576  21.3293433
   2.0172575 104.6172810  22.0051575   3.4766811 104.2711449  21.8020415
  49.4324064 103.8786125   2.1219109  49.4002199 104.8323441   2.0471187
  49.6958637 103.7181854   3.0280486 104.2139626 108.5353088  45.6732559
 104.9349117 109.1411209  45.8448887 103.5005283 108.8483524  46.2293530
  95.5259895  56.9838905  94.6128178  95.3340626  57.7660751  95.1301003
  95.9610558  57.3166752  93.8278294  84.4946861  37.4395132  65.4212666
  83.7737846  37.3393512  66.0429621  85.1066971  36.7397904  65.6494379
  71.6438341  55.6257534  89.3931866  71.8994045  54.7581959  89.7066498
  72.4540854  56.1350775  89.4108105  85.7638931  84.5004082  40.6894493
  85.5421829  83.7101364  40.1969576  86.0717010  84.1766071  41.5359879
  62.9965782  54.5745564  88.3777142  63.6317778  54.6167517  87.6628876
  63.0706549  55.4231405  88.8143444  75.2596998  27.0534658  86.1661911
  75.6436920  27.8899288  86.4290810  74.3237877  27.2355723  86.0817242
  19.0333664 110.7486214   4.3386969  18.8366234 110.5531504   5.2548385
  18.8607657 111.6860749   4.2514020  62.8700256  29.1646838  87.3976517
  62.3696756  29.6250319  88.0714226  63.6808777  29.6668363  87.3164463
 109.6089840  20.2018380   1.4894854 110.5188084  19.9369693   1.6247004
 109.3805122  19.8445344   0.6313661  84.2892551  21.7805886  68.2140779
  84.1425037  22.5443411  67.6560593  84.2979145  21.0394955  67.6083183
  75.4034674  42.0496125  96.0404453  74.4758951  41.9648308  95.8198976
  75.4288733  41.9912858  96.9955286  56.9308949  75.7720375   7.4157041
  56.3458300  75.5868101   8.1502944  57.7836370  75.9271860   7.8218961
  32.0410395  45.1338005  89.5356178  31.8079162  45.8901310  90.0739956
  31.5191936  44.4153786  89.8930740  24.0477157  39.5521736  27.6656413
  23.7684488  38.8463831  27.0824599  24.1468883  39.1319013  28.5199046
  57.5867796 104.4051647  11.4319181  57.9748201 105.1490116  11.8927300
  58.3286476 103.9705849  11.0112011 100.2729797  97.3790455  17.8882623
 100.6694412  98.1488132  18.2963240 101.0127926  96.8938828  17.5228643
  92.4939251  85.7403946   9.9868709  92.2968960  86.2412739  10.7784092
  93.2370663  86.1973953   9.5930207  99.8290157  72.9969692   0.8738295
 100.3561687  72.4454880   1.4519386  99.9483395  72.6151562   0.0042254
  46.5585232  36.8381286  90.4746532  46.0275173  36.3416290  89.8519516
  47.1131563  37.3936558  89.9269295  32.7104783  59.5147467  96.4370728
  33.1937480  59.3912363  95.6201077  33.3889508  59.5810318  97.1090126
  49.5758629  95.2114677   4.4431910  48.6422825  95.3757381   4.3102553
  49.9518538  96.0780048   4.5980641  84.4172382  36.3309288  85.9856319
  85.3514767  36.5392709  85.9905720  84.0181160  37.0324469  85.4710388
  71.8825579 107.1790695   4.6006656  72.6871490 106.8345833   4.2131171
  71.2066460 107.0019054   3.9464557  71.1552858 110.2840996  23.7908149
  72.0682573 110.5215931  23.9530277  70.8156013 110.0370884  24.6509480
  76.3610601  75.2629519  84.0637207  75.8474398  75.4991388  84.8361492
  77.2582436  75.1836157  84.3877506  71.2170267 102.1507931  10.2363253
  72.0538092 102.6145077  10.2047038  70.7809496 102.3874855   9.4177610
 103.8817835 110.3464737   4.2935744 102.9866744 110.0442665   4.4474682
 104.3299223 109.5875730   3.9201134  28.2158780   2.2255638  87.8425503
  27.9528475   3.1238276  88.0429745  29.1707897   2.2622420  87.7874851
  72.8702307  62.7658701  70.3170776  72.6935720  61.9074392  69.9322081
  73.6495495  63.0785656  69.8576021  38.7725556  24.4987300   0.5165929
  39.5101130  25.0037196   0.1742334  38.0255949  24.7760776  -0.0138407
   4.1753998   2.3201270   5.9075302   4.3697459   1.6000959   5.3075165
   4.9773881   2.8424489   5.9225899  73.8153934  80.0209713  76.0162258
  73.6860228  80.2712250  76.9310331  74.7659874  79.9848604  75.9099245
  32.1738911  39.6850705  19.9464715  33.1066656  39.5160437  19.8138320
  31.7335010  39.0773559  19.3523562   4.7070685   7.4104989  19.2531478
   4.3745297   8.1527257  18.7484205   4.4048128   6.6396266  18.7729084
  10.8902884  22.5630093  23.3987808   9.9875122  22.8692460  23.4850788
  11.4203334  23.2772326  23.7525725   1.6175704  14.4700742  25.5461264
   1.2698770  13.6074281  25.7723618   2.5640526  14.3843114  25.6603551
  54.4163418  16.0966420  86.8884754  55.1626539  16.6415596  86.6388416
  53.9695358  15.9096396  86.0628700  61.7700481  48.1484079  81.1151218
  62.5710583  48.4657288  80.6980801  61.3022327  48.9432907  81.3711262
   2.5021628  91.4767742  15.1090181   2.8395927  90.6518650  14.7598839
   1.7712244  91.6996765  14.5325840  59.3267536  76.5117693  82.9652691
  58.9989424  76.1890459  82.1258545  59.4941282  77.4422121  82.8153038
  61.5598679  31.1880445  78.7207937  62.4783182  31.4066124  78.8786077
  61.0691643  31.8371940  79.2248249  54.5401669  36.9887972  89.3409157
  54.6342897  36.0434532  89.2238808  55.3155279  37.2467995  89.8394012
 102.5658834  75.5137687  -0.0203066 101.8599975  76.0447388  -0.3891306
 102.8846586  76.0232716   0.7246942  79.4414473  42.2909498  82.5019646
  79.6278095  41.7595959  81.7279053  80.2734947  42.7183437  82.7050781
  68.4808207  43.1448650  77.3934841  68.0878544  43.9420509  77.7488756
  67.9394102  42.4357748  77.7403212  32.7294803   3.1144437  38.1918931
  32.3737955   2.2719502  38.4746027  33.3574748   3.3505347  38.8746190
 107.0530701 110.4211617  36.3333225 107.1445656 110.6660366  35.4125094
 106.2538815 109.8951912  36.3630199 108.6663723  93.9073372   8.3784419
 107.7648163  94.0306568   8.0814052 109.0857029  94.7547817   8.2293749
  71.4239168  84.5546913  78.3767509  71.8773794  84.1750717  77.6240969
  71.8548203  85.3980637  78.5155916  80.6483173  46.9554043  94.0818214
  80.4742622  47.4020910  93.2533169  80.0177288  46.2355804  94.1029167
 104.1033268   6.6666830   3.6992273 103.5088348   6.9442660   3.0022660
 104.9488926   7.0445526   3.4574184   4.6207166   7.2495008   3.8004792
   3.7352529   7.5723541   3.9676669   4.8556662   7.6235229   2.9512808
  34.1008878  53.2142401  93.8859844  34.5426655  52.5568104  94.4234371
  33.7388778  52.7190018  93.1511879  64.5974493  54.2070532  74.3051434
  65.4955959  54.3841553  74.0255022  64.1713524  55.0641632  74.2992878
  59.2495203  66.2300777  72.8610086  59.8526192  66.9644070  72.9761982
  58.4734154  66.6186047  72.4573517  68.0815983 108.9093494  24.3068051
  67.1645689 109.1818142  24.2744446  68.4528065 109.4040489  25.0373602
  32.7126074  26.4284492  79.3989277  33.3279991  25.9054494  79.9127293
  31.8609142  26.2611008  79.8024654  83.8883877  36.9139433  16.0073853
  84.1017628  36.9499469  15.0749660  83.4473515  37.7448320  16.1844170
  99.9330902  66.5005112  67.1316624 100.7929039  66.0862923  67.0583487
 100.0920391  67.4209404  66.9224358  65.5353880  28.6140537  90.7735348
  65.4616356  27.6653790  90.6695843  65.2888870  28.7750816  91.6843224
  87.0997906 100.6472397  14.7610676  87.7316666 100.7855415  14.0554905
  86.2458324 100.7046032  14.3324769 114.6441841  14.9659383   5.1428145
 115.4356575  15.3855717   5.4800361 113.9352226  15.5612636   5.3861040
   9.6580154  38.0680132  31.7668796  10.6032920  38.1855536  31.8610501
   9.5535058  37.1458912  31.5323615  75.8000517  13.5946476  85.6808758
  75.9293461  13.3782709  86.6042900  76.2281370  12.8824329  85.2057743
  95.0176239 109.0924454  75.7923460  94.7101498 108.6908150  76.6049862
  95.2552700 108.3520126  75.2342081   6.4971560  80.3945732  10.9007084
   5.6211662  80.1639652  10.5913663   6.3931543  81.2634563  11.2886083
  63.8516521  62.7475309  91.4318180  64.1951084  63.3851528  90.8059502
  64.5712137  62.6036692  92.0464420  66.9455814  57.4053383  68.8262558
  66.3288069  58.0964994  68.5851908  66.4013767  56.7281914  69.2281866
  36.0418630   0.5750926  21.0994530  35.1175785   0.7767154  20.9535861
  36.4775324   0.8520773  20.2934098  51.7211306  69.6777110  -0.2143126
  51.4731717  69.8656338   0.6909055  52.1715927  68.8343411  -0.1691084
  16.2619555  15.4696906  23.9856052  15.9458196  16.3424289  23.7519002
  15.4696822  14.9357712  24.0444613  39.5177674  50.3359842  93.3624458
  38.8231969  49.7776031  93.7117577  40.3200579  49.8306608  93.4936333
 106.3461590  22.2144818   5.4957825 106.6211891  23.0980921   5.7403696
 106.3926220  21.7149162   6.3109559 110.7863045 103.1891537  26.7626762
 111.1503983 102.5834751  27.4082828 111.2305355 102.9635525  25.9453726
  21.4595151  23.2441950   4.9179518  20.5724859  22.8918886   4.9907026
  21.8652964  23.0476260   5.7623059  38.7372732  27.5887632  11.3778496
  39.6622825  27.7727318  11.5413845  38.7414646  26.7889977  10.8519304
  40.8465576  17.0036101  38.6626482  41.0422850  16.9884062  37.7257943
  39.9733543  17.3916972  38.7186313  39.0386438  83.1764221  84.7594261
  38.1377506  82.8529930  84.7554970  39.5040107  82.5818825  85.3477955
  48.7307310  40.5306005   4.0318415  49.1387129  40.4132128   4.8897463
  48.7311840  41.4778233   3.8939998  34.8777795  55.0750637  14.5795143
  33.9576578  54.9877977  14.3305373  35.3303790  54.4099808  14.0608084
  64.5799875 107.6701736  27.5540876  64.3504906 108.5081100  27.1522951
  65.3885746 107.8483295  28.0343723 107.0869732  29.9907136  61.1644077
 106.8124390  30.7483268  61.6810131 107.7655220  29.5725584  61.6944551
  35.9630537  28.9194632  23.6915183  35.4591441  28.1534433  23.4167099
  36.3342237  28.6708832  24.5380831  63.3356762  58.1783295  88.3860016
  63.7036276  58.1574631  87.5025940  63.8481426  58.8450909  88.8432121
  17.4750209  15.2917373  53.8865280  18.2098830  15.8459342  54.1493511
  17.2433257  14.8090100  54.6799517  30.4052401   1.8974447   3.8684025
  29.6496892   2.1955535   3.3619383  31.1239004   1.8762551   3.2364920
  43.3433676  23.0931211  48.1756401  43.2965660  23.6992455  48.9150000
  44.2532682  22.7960801  48.1666660  29.5020318  10.1946855  24.7244549
  29.3712831  11.0196269  25.1920104  28.7496686   9.6572053  24.9720407
 108.4860420 110.9059811  38.7319374 108.1415749 110.4791927  37.9474449
 107.8342247 111.5729713  38.9475322  11.1968005 100.7394791  26.1949563
  11.0682511  99.8087502  26.3778424  11.1314309 100.8076572  25.2424264
  80.4419518 100.1912308  66.3663626  81.3246632 100.4909897  66.5835714
  79.9398804 100.3219986  67.1707630  23.1072354   1.0980231   0.7373370
  22.8627801   0.3585899   0.1808193  24.0613627   1.1405814   0.6736366
  99.9086666 109.7173500  12.8204632  99.8144722 109.8644447  11.8793356
  99.0102768 109.6891880  13.1495869  79.5940304  44.4483137  76.0027075
  79.1022539  44.0243101  76.7059898  78.9223099  44.7778130  75.4056692
  66.4327574  69.9947739  81.6769981  66.8714714  70.8434582  81.6178226
  67.0192099  69.4586992  82.2107887  37.9365540  32.0074797  19.7434759
  37.8031778  32.1416378  20.6817961  38.6546636  32.5983596  19.5167375
   0.4008133  61.6464520   7.1537250  -0.4603510  61.9874239   7.3953158
   0.2157489  60.8120441   6.7227435  33.6872697  37.0132256   9.9447721
  33.7239408  37.3777866   9.0604734  34.5802164  37.1024179  10.2778268
  18.2706571   4.7975186   4.4476014  18.8822353   4.8547947   5.1817155
  17.4943006   4.3750343   4.8150381  24.6005750  12.8207314   0.3752735
  23.7440085  12.6282442   0.7566857  24.7212386  13.7593746   0.5188779
  89.7739601  77.3882580  36.2981653  90.5610371  77.2886562  35.7626033
  90.1044369  77.5558949  37.1807289  27.9572988  37.9346037   1.7886806
  27.2823262  38.2271004   1.1762351  28.6593556  38.5787535   1.6969217
  25.2811313  10.0482368   1.1784316  25.4115319  10.3153324   2.0883149
  25.0841093  10.8626282   0.7156362   8.3851570  38.6383867  25.4238176
   8.5174298  38.5452294  26.3672471   7.9630321  37.8210330  25.1592875
  23.2213306  17.3217046  15.8254421  22.8699017  18.0636501  15.3332579
  22.8054166  16.5546453  15.4319108  35.0970960   1.4426775   4.7953990
  35.5246758   1.7068721   5.6100202  35.4161477   2.0672217   4.1439521
  21.2386084  13.4079444   6.3298464  20.3485465  13.0569148   6.3580966
  21.1395144  14.2819250   5.9522611  62.8315783  90.1016712  86.8914986
  62.1227121  89.6423340  87.3417759  62.4019146  90.5494595  86.1627293
  88.1045723  74.1994524  84.3575287  87.9200268  73.2977009  84.0948009
  87.7394867  74.2714643  85.2394295   8.2679194 105.7762623   1.7081976
   7.5909376 106.0254860   2.3373374   8.2946157 106.5022564   1.0849359
  13.2340348  33.5659695  22.8932452  13.2273006  33.5478210  21.9362402
  13.5249221  32.6901627  23.1473684  26.6959095  13.5891712  14.3201804
  26.7558622  13.4958541  13.3694291  25.9359026  14.1545510  14.4578993
 105.0647259  46.7659998  23.3031154 104.9207878  47.5180864  22.7287674
 106.0120201  46.6296434  23.2863259  38.5123920  12.6020873  17.7205706
  39.2475343  13.1087708  18.0656350  37.7356625  13.0368149  18.0726123
   7.0298624  10.0547612   3.0402529   7.6977074  10.5789542   2.5981718
   6.2005568  10.4594851   2.7859265  88.9194489  80.0143337  78.0221653
  89.1804409  80.8150387  78.4771252  88.7589073  79.3822289  78.7228107
  51.1150265  97.7652740  79.4218779  51.6513586  98.2822418  80.0229836
  51.4425659  96.8709469  79.5173788  73.3755016 108.6032963  18.2626820
  73.4285164 107.8865147  18.8948631  73.6799765 109.3716049  18.7456179
  30.0655317  17.1923900   2.9969299  30.4761577  18.0565369   2.9674315
  29.1509867  17.3537433   2.7649781  93.5328865 106.0567188  56.4564753
  93.7249374 106.5310287  57.2654104  92.9465199 105.3500271  56.7266369
   3.8193747  11.2698507  25.0381732   4.3527743  11.7475462  24.4029379
   4.1943687  11.5011990  25.8879304  79.3567848  48.2888842  80.9946060
  80.0470734  48.6442614  81.5544701  78.7291956  47.9015255  81.6047859
  88.6390781  88.4832478   8.8442242  88.9185619  89.3844795   8.6832446
  89.1278458  88.2163525   9.6227568  62.8576040  91.5213108  93.4677601
  63.3968782  92.2318459  93.8149643  63.1015301  91.4649773  92.5438786
 102.7963638 108.0595875  20.9268188 103.1585026 108.8688564  20.5660248
 101.8744278 108.2605648  21.0876989  13.2269835  10.5367565   8.6387426
  12.3921061  10.0975752   8.8010097  13.4699321  10.9099889   9.4860357
  36.8293762  82.5130939  94.9783707  37.2501159  82.5499725  94.1193867
  37.5316143  82.2621250  95.5784607  25.0816536  43.6528540  21.8857789
  25.9084201  43.9667511  21.5195012  24.6954966  43.1244850  21.1872482
  26.5046930  16.1703026  25.8191490  26.6040039  16.3209319  24.8791075
  26.7969394  16.9866025  26.2247086  81.9727135  64.1301155  78.3450413
  82.4972153  63.6550283  77.7005100  82.4162388  64.9729824  78.4403992
 110.8030224 108.9010715  29.2976475 110.7901955 107.9480267  29.2095780
 109.9838448 109.1898251  28.8954067  37.0466852  25.9850144  34.3836999
  36.6520333  26.8569446  34.3986082  36.3023448  25.3862071  34.3235540
  26.3914418   3.9355358  27.2756076  27.0210814   3.2607710  27.0216799
  26.8088174   4.7594115  27.0240974  28.1274652  15.0187135   9.1655177
  27.8771210  15.2267635  10.0656700  28.7500691  15.7049537   8.9253712
  80.1585007  89.4033051  72.0750475  79.5845699  90.0831604  72.4280834
  80.6030846  89.8236656  71.3389254   5.5255115 110.2946663  37.8822207
   5.4024571 109.8583221  38.7252450   5.1083571 109.7118855  37.2477317
  72.9334164  60.7845592  86.6773796  72.9494476  60.4911947  85.7663822
  73.6599207  61.4044142  86.7422199  68.1989384 109.6908092  89.5650482
  68.3545303 110.6104851  89.3500519  67.3658133 109.4835186  89.1417694
  93.5517120   9.8368913  91.6261959  94.0842438  10.1504576  92.3571587
  94.1876507   9.5144761  90.9875488  66.3959503  43.8942814  90.5870914
  65.5617332  44.2462683  90.2765846  66.6286087  44.4503260  91.3306808
 109.0100479  41.9622707  28.8332129 108.0883217  41.9822121  28.5758090
 108.9929485  41.7657852  29.7698736  66.8409681  12.5135970  14.4144964
  66.8532133  11.5639997  14.5342720  66.1720610  12.8234160  15.0250745
  77.3078728  72.2275925  79.2755795  76.5610552  71.7155266  78.9652920
  77.8226900  71.6098595  79.7948074  90.9836102  70.4685450  68.7646198
  91.6933823  71.0830879  68.9511538  90.2604866  70.7625198  69.3186045
  66.6254557  62.8174999  96.5966885  65.8851397  62.7173152  95.9982516
  67.0503652  63.6287931  96.3183224  91.6865063 107.2018242   6.6557091
  92.6117802 106.9652939   6.7202544  91.6877842 108.1562710   6.5831590
  57.7373743  91.2046337  92.3864174  58.2458448  91.9763851  92.6355934
  58.0351925  90.9973431  91.5006542  43.8595486 108.4346676  85.0067997
  43.2513905 109.1225815  84.7363567  43.3040524 107.6701450  85.1590061
  20.1963520   5.6848162   6.3629234  20.6049991   6.4964646   6.0621500
  20.7401037   5.4008830   7.0977330  77.2243690  82.2530460  88.0671406
  77.5720215  81.3674164  87.9621506  76.2739468  82.1394730  88.0616188
  52.9716206   9.4704705  10.3310812  52.6968384   8.7722552   9.7367561
  52.3439455   9.4315946  11.0527050  36.5205693 103.5776901  85.2039528
  36.5859914 104.0019321  84.3484020  35.9689045 104.1647911  85.7208729
  -0.2649124  15.0425339  19.8208642   0.1370401  14.5326078  20.5241728
   0.3033593  14.8968732  19.0645039 100.4475021   2.4390115  75.9250879
 100.0489235   1.9719334  75.1907778 101.0731983   3.0375069  75.5169916
  79.7627687  95.5598736  55.6912518  79.7865915  96.2531185  55.0316429
  78.8303947  95.3963089  55.8332396  38.4561563  29.2284393  21.6729975
  37.7598476  29.8716593  21.8058610  38.2792997  28.5466719  22.3211837
  34.9627590  32.1866417  12.2036314  35.3871989  31.3310504  12.2672355
  34.1474771  32.0151210  11.7323267 109.5449734 109.9005318   8.8836241
 110.1665401 109.5575237   8.2415694 109.4532967 109.1979885   9.5272619
  48.4746272  73.3048806  95.1919577  48.2240534  72.5647172  95.7447707
  49.3452442  73.5524580  95.5033481  77.8664684  90.7765198  56.0739374
  78.4178257  91.2110901  55.4232645  78.0008268  89.8420429  55.9160042
 106.7920876  11.2548649   9.8136401 105.8432293  11.2085009   9.6963465
 106.9503689  10.8289683  10.6561303  64.3069172  36.2250519  15.7223022
  64.8158264  36.7242932  15.0835526  64.2506552  36.7998314  16.4856458
  16.4826548   3.2316136   5.7668501  16.4668965   3.2020411   6.7234635
  15.7252216   2.7114344   5.4986334   3.5594869   8.7715411  24.0439034
   3.4442812   9.7065794  24.2132020   3.4403065   8.6828810  23.0982995
  67.0065784 106.3718414  84.2564964  67.1388340 107.1110058  84.8501015
  66.1787176 105.9830475  84.5388508  43.8853455  22.5611830   9.5719326
  43.7721491  23.5076094   9.6596605  44.3773317  22.3054647  10.3521824
  37.2342610  61.9659519   0.9892531  36.2775064  61.9372177   0.9840216
  37.4904943  61.2972689   1.6244215  40.1821804  13.8887405  52.3141479
  39.3571377  13.9059210  51.8291330  40.5909491  13.0607033  52.0621634
  55.8942413  87.9263973  74.8653173  56.0740757  87.5192928  74.0178728
  56.6972733  87.7949619  75.3694010  86.0898018   2.0696549  69.8440790
  86.6388607   2.7031857  70.3060293  85.2037525   2.4250811  69.9134874
  69.5723343  70.0214577  93.3031464  69.5974445  69.8522949  92.3613453
  70.0880241  70.8198023  93.4169292 115.8136463  87.3148060  15.2487171
 115.8861828  86.4832401  14.7802317 115.6011868  87.0652962  16.1480701
  31.6183090   7.1834052   4.2396805  32.0034218   6.8595076   3.4254259
  31.1779857   6.4213973   4.6160978  17.3449612  18.5857713  39.9850869
  17.1746778  18.0605543  39.2031765  17.8295994  17.9997349  40.5663967
  81.1750793   2.4591362  75.7066011  81.9790077   2.1576637  75.2834749
  81.4655304   3.1357607  76.3181973  68.2584810  83.1387901  90.5758572
  68.0085564  83.8722992  91.1377525  67.5698376  82.4878883  90.7112503
  89.0996075  69.7889137  95.6173134  89.8783016  70.3121281  95.4272842
  88.9850235  69.8653126  96.5645504   4.2058647  20.3058791  15.3452611
   3.3775282  20.6942892  15.6267381   4.6578026  21.0130429  14.8849308
  61.9511938  93.0118179  47.9815674  61.6012621  93.7493038  48.4814548
  62.8535271  92.9214382  48.2879305  36.9049382  12.0302665   8.8258266
  36.9274950  12.0512128   7.8691214  36.2926507  12.7256310   9.0662503
   6.9825989 104.6847725  27.6493454   7.4117023 104.5919323  28.4999251
   6.6239244 105.5721951  27.6576185  54.0456247  85.8322525  81.9001198
  54.7350454  85.3283119  82.3325253  53.5557938  86.2331772  82.6181316
  24.5219541  35.5143666   9.1100788  25.3840113  35.5732226   9.5219362
  24.3140006  34.5801091   9.1222030  14.2841113  23.7888479   0.3576403
  13.5809577  23.4665537   0.9214963  15.0434601  23.8562274   0.9365015
  85.1747799  88.4672642  87.4280453  84.8995495  88.8713360  86.6051292
  85.5502319  89.1874027  87.9346752  57.5294971  71.4612055  92.9497910
  56.5756226  71.4993811  93.0197525  57.8011894  72.3762178  92.8778839
  14.9873805  23.5342121  13.2320094  14.6626270  24.2686248  13.7529743
  14.7162199  22.7563453  13.7194800  61.4646387  64.4230413  95.0795269
  61.6713762  65.2340603  94.6150494  61.0082150  64.7097301  95.8705425
  25.3962731  20.1866841  41.0604382  24.7472453  20.6788874  41.5631628
  26.0424399  19.9095345  41.7099667  83.4051514 106.0523891  11.1858869
  82.7327538 106.0263920  11.8666530  84.0605259 105.4161644  11.4721429
  66.3924503  32.4791908  12.9173851  66.2506628  32.9341936  13.7475061
  67.3084641  32.2032261  12.9489243 109.0220356   2.8120720  26.6278768
 109.2529392   2.5981715  25.7239079 108.1404972   3.1804124  26.5691590
  55.7761049  78.8985252  79.6327877  55.5309486  78.2656384  80.3077602
  56.6256618  79.2353201  79.9174881  70.3755188  59.6904659  90.3055573
  70.4744911  60.0604010  89.4282913  70.5935001  60.4118776  90.8957005
  59.3936729  73.8952351  92.3708248  60.2081633  73.3995104  92.2865868
  59.2718744  74.3032598  91.5135479  41.2447071   2.6707593  13.2780254
  42.1708965   2.6457694  13.0376399  41.1326551   3.5164931  13.7120867
  79.0938854  66.1613035  55.2376938  78.3061743  65.9152794  55.7226849
  79.1124153  67.1173811  55.2800703 105.1295853  87.8743267  19.7865939
 105.0028992  87.0610428  20.2752137 105.1113701  87.6069736  18.8676703
  60.7257843  48.3852673  91.4475632  60.2567959  49.2111492  91.5667152
  60.7790375  48.2748747  90.4982376 106.8553352 110.2895832  26.1271977
 106.4639187 111.1626053  26.0979152 106.3627148 109.7844124  25.4803872
  65.4814148  69.0928411  78.7389994  65.2883911  68.9764595  79.6692848
  66.3793325  69.4239473  78.7202883  20.3044748  58.3338070  17.7642560
  20.1260042  58.3197165  16.8239462  19.5620465  57.8737307  18.1558740
  18.2233703  20.6929851  22.1245027  18.6005831  21.5251279  22.4099493
  17.5362802  20.5091977  22.7650976  64.3292046  59.3988276  53.0455828
  63.8291931  59.3611813  53.8609362  65.2344894  59.5336533  53.3257866
  37.2637653  34.7711563  18.7244594  37.0476747  35.1345348  19.5832348
  37.1298218  33.8284779  18.8226748 114.9581242  58.5922146  22.6262712
 114.2128468  57.9994774  22.7235341 115.5297565  58.1565285  21.9940948
  23.9357018  49.0333080  22.3279762  23.9482212  48.0789328  22.2555661
  24.0092850  49.3429852  21.4252472  78.3894491  59.4811916  91.1744785
  77.9979849  59.0052032  91.9068909  79.3130493  59.5668840  91.4108086
  74.7842693  75.3629494  59.5459890  74.0743160  74.8319864  59.1850519
  74.7724295  76.1652994  59.0241432  11.4361000   6.5231341  53.7306404
  10.9835744   7.3295850  53.9778042  11.3134813   5.9403700  54.4800282
  48.5271835  78.6116028  93.0669022  49.4143152  78.8018274  93.3719349
  48.3732557  79.2463303  92.3671436  16.7026484  27.5594091   8.5339010
  16.9552279  27.5738192   9.4570625  16.1517251  28.3344436   8.4241927
  68.3087540  73.0861759  87.8656864  67.8797483  72.7198935  87.0923710
  68.6276627  73.9422035  87.5797749  37.2092414  53.1509161  88.6305809
  38.1281567  53.1407452  88.8983822  36.9982433  52.2323132  88.4636211
  15.0982165  81.0850430   4.7818223  14.9068773  80.9639454   5.7118517
  14.2416275  81.2206936   4.3767461  60.8029890   6.1995465  20.2053332
  60.0187302   5.7312965  20.4915309  60.4687595   6.9909936  19.7832775
 115.6419754  89.3534088  19.3194509 116.2846279  89.6266365  19.9741066
 115.3062534  88.5190201  19.6470642  67.0103073  58.9867592  91.5377045
  67.0416451  58.8155174  92.4789333  67.6462126  58.3778000  91.1621666
  16.5689051  33.8702178  35.9064007  15.9101856  34.1245627  35.2601576
  16.5346408  34.5611167  36.5680051  74.8147726 106.4354420   9.7460401
  74.6641207 106.8353367   8.8895255  75.4098034 105.7068920   9.5688921
  36.9860196  18.5712719   2.5661024  37.6485395  18.3193409   1.9228077
  36.1572814  18.5171092   2.0901920  37.6872706  23.2794714  23.3754039
  38.6218357  23.1735849  23.5531902  37.4269438  22.4555278  22.9636049
  48.5129404  20.9389567  25.2915883  47.9464245  20.3999710  25.8436608
  49.3869591  20.5671263  25.4101849  68.4776974  49.3413019  90.4617882
  67.5703478  49.3781948  90.7644272  68.7961674  48.4903049  90.7628155
  77.3527718  89.4355869  52.0565033  76.7878199  90.0503445  52.5246143
  76.7666626  88.7275982  51.7891693  82.5488377  70.7337189  51.1479664
  83.3150387  71.0070562  51.6524029  82.4146748  71.4391422  50.5150270
 103.4717178 102.0947456   6.6441041 102.5664139 101.9586754   6.3645792
 103.6038113 101.4579678   7.3464513  88.2187080  74.9622059  70.0124598
  88.2713223  75.8814764  70.2739906  88.1282520  74.9889851  69.0599203
  66.6035986  99.5662785  93.8300037  66.9889688 100.4314899  93.6916828
  66.9224834  99.2969894  94.6914101  15.6574047  19.8965275  12.3942995
  15.1150358  19.2833471  12.8903639  16.3724732  19.3605065  12.0513856
  15.6406283   5.5311042  10.1791883  16.3858759   5.6856686  10.7596600
  14.8909056   5.4490912  10.7686138  50.5896378  96.7046261  70.9916401
  50.5668020  96.8029118  70.0397730  50.2139425  95.8389854  71.1521196
 105.2025127  62.8643084  88.6440563 104.3026066  62.5503874  88.7327290
 105.2388000  63.6462259  89.1949844  53.2500648  50.3500605  90.0337505
  52.5347519  50.0127983  90.5730247  53.2185078  49.8216248  89.2362690
  59.5435381  66.3827562  93.1278229  59.9802971  66.8771601  92.4342632
  59.6966124  65.4655218  92.9009247  83.4190750  66.0959482  93.6489868
  82.6473331  65.6105089  93.9405346  83.0988216  66.6496992  92.9369259
 111.7871475  47.5229549  35.9503245 111.9196510  46.9943190  36.7372298
 112.6674652  47.6515579  35.5971456  97.6586914  43.1415176  78.4800720
  97.6553631  43.4355164  77.5691462  97.0246410  42.4247980  78.5027504
  97.7513981  42.0985222  25.0495148  98.3064747  42.7223635  25.5174208
  97.0687675  42.6378441  24.6502948  86.2919617  71.6687536  13.7797272
  85.3377628  71.6462946  13.8520372  86.4595795  71.7270088  12.8391194
  58.6994886  12.2673857   7.7215916  58.3678532  11.8397677   6.9320399
  58.1756735  13.0646789   7.8001672  61.1216068  75.8810902  68.2349730
  61.3447618  76.0170078  69.1558218  61.5821838  76.5803719  67.7711821
  54.7308207  28.9527822  95.3480434  55.3791618  29.5314407  95.7493496
  54.2723370  28.5564566  96.0889626  18.8427639  22.8446054   5.5136824
  18.2208550  23.1935477   4.8751676  18.9100862  23.5279274   6.1805928
  80.3217888  99.7770691  96.6778374  80.0834370  99.6415329  95.7607460
  79.5531845  99.4888592  97.1701908 101.2939262   8.1333148  18.7567127
 101.4459610   8.9909327  18.3597159 100.6306171   7.7257782  18.1997859
  14.9705565   7.1318072   2.1813911  14.4839251   7.8144222   2.6434076
  15.0647044   6.4283532   2.8236681  65.6052256  65.4462671  83.8266373
  65.2960539  64.6810770  83.3417416  66.4573956  65.1819038  84.1732693
 108.0282688  14.1946661  15.7920325 107.3712254  14.0639389  15.1083338
 107.5546360  14.6336329  16.4985836  73.7928724  42.9697847  73.3006811
  74.1802883  43.6080170  72.7016783  73.9309216  43.3435869  74.1709948
  17.3969555  13.1413722  13.1916535  17.7630222  13.5182440  12.3915327
  18.1545413  12.7894330  13.6590230  11.9003618  21.0598207   5.0850886
  12.5735784  21.4716506   5.6267583  11.1943257  21.7051291   5.0487143
  44.1440737  52.4727101  95.6766239  44.6118700  52.7827115  96.4520627
  44.8346579  52.1864457  95.0788143 117.5954247 105.6376839  15.2657652
 116.9692898 105.2374458  15.8690977 117.9579258 104.9011898  14.7734118
  66.6680717  44.0854216  72.4689722  66.1413097  43.7837553  73.2090759
  67.1563816  44.8339033  72.8118420  62.6684237  75.7031059  86.9113731
  61.7695284  75.6887627  86.5827179  63.1341457  76.2840223  86.3098145
  26.3695526   5.3335595   3.6773762  27.2335482   5.3546703   3.2659185
  26.5473080   5.1406384   4.5979282  59.5251369  89.0538120  83.9726353
  59.5490360  89.9757004  84.2291355  59.2883873  89.0692711  83.0453110
  76.0009241  59.3630743  83.5797215  76.4583015  58.9101887  82.8712559
  76.5610075  60.1112127  83.7866592  70.5792570  64.8322773  88.5060310
  71.2379551  64.5361471  89.1342449  70.8440065  64.4351768  87.6762962
 112.0165634   5.4030561  18.0840325 111.4404011   6.1325836  18.3121872
 112.7077961   5.8003730  17.5543392 117.5814056  26.2523246  32.7055097
 117.6499748  26.5357089  33.6172223 118.3292294  25.6683159  32.5793290
 102.1398830  61.4394903  64.5581436 102.2360229  61.8908787  65.3967381
 102.5834846  60.6008720  64.6853018  26.3817656  34.5259097   0.8880109
  26.3026964  35.0828555   1.6624708  25.5110514  34.5430282   0.4907770
  25.5821657  43.1308270  33.4449863  25.0115085  43.8852024  33.5916042
  26.0213566  42.9959393  34.2847180  61.2411118  65.9991884  82.5216770
  61.5367746  65.1172733  82.2957420  62.0388699  66.4600945  82.7812481
   9.7156948  32.5132728  49.7811651   8.8614678  32.1567655  50.0249434
   9.6219546  32.7500010  48.8584471  92.7098465  42.5555611  93.1871414
  92.8345680  41.6439390  92.9232788  93.3821011  43.0382347  92.7061653
  66.1276054 106.2783623  71.3214636  65.4545593 106.9394207  71.4834595
  66.7908812 106.7339039  70.8030272  63.5000420  20.8824062   6.9869065
  63.6592388  21.8219042   7.0776343  63.8383532  20.6649375   6.1182958
  32.9345870  36.8513298   5.9893036  31.9948483  36.8366623   5.8078909
  33.0585289  37.6178575   6.5490437  68.5664833 102.6880881  96.2090884
  69.4924224 102.4472377  96.2384427  68.1661833 102.1876952  96.9201445
  71.6275454  67.5485468  78.8118267  72.2569180  68.2284975  78.5714388
  71.1539364  67.9139471  79.5590973  17.5061083  15.9735334  83.7207127
  16.9679022  16.6055739  83.2441711  17.9368651  15.4615235  83.0362225
  71.4311028   8.2195979  20.2480364  70.5001068   8.2875150  20.4598498
  71.5997267   7.2781897  20.2086997  14.2640984 108.1299877  29.2941570
  14.1357255 107.7424049  30.1599073  13.6771452 107.6364231  28.7213469
 100.5822754  14.7598779  87.8211212 101.3146877  14.6956444  88.4340477
 100.9956455  14.8604596  86.9636631  56.9413328  68.3763742  88.5469055
  57.2110510  68.5514402  89.4484806  56.3662100  69.1079187  88.3226204
  71.6297150  93.5159492  93.3248901  71.4631462  94.4575882  93.2824516
  70.8815050  93.1199837  92.8780937  82.5253201 104.7483158  56.9865084
  82.2664261 104.0515518  56.3834190  81.8014240 105.3737736  56.9547987
  53.6263847  37.6581669   1.1879641  53.7360573  37.8283405   2.1235088
  53.3732271  36.7362833   1.1402754  83.1211472  92.4333572  93.3048344
  83.9513397  92.7877998  92.9864311  82.9510498  91.6786194  92.7412033
  88.9006996  89.7274876  85.5226231  89.4521427  89.8258018  86.2988186
  88.0099106  89.8718548  85.8418179  75.2790594  69.6801329  94.4821358
  75.0503778  70.4083872  93.9045715  76.2312269  69.6099806  94.4136238
  93.7388766  49.4177193  96.1512681  94.3489648  49.2216344  95.4402304
  94.2994977  49.6669430  96.8859952  73.2605886 103.6238003  82.4560070
  72.4970150 104.0522766  82.0692348  73.8645458 104.3405151  82.6504135
 113.8508415  95.6684685  60.6103754 113.6754322  95.9984398  59.7291327
 113.9862347  94.7283745  60.4915714   2.9423094  21.9697189  24.5056319
   2.7770185  21.5386009  23.6671519   2.1814471  22.5351501  24.6383190
  36.2463999   1.7038453  31.9212151  36.3309836   1.4994957  32.8525162
  36.2981510   0.8539776  31.4838624  95.9944820   0.6447522  63.8388681
  95.0980759   0.5440948  63.5186386  95.9086800   1.1828144  64.6258593
  77.4158907  77.8190136  86.4226723  77.8301096  77.3377419  85.7064152
  76.7849588  78.3949614  85.9908867  59.3122387  59.8391676  91.4243317
  60.2553844  59.9896383  91.4881039  59.1532326  59.7083378  90.4895401
  40.9266424  23.6699867  50.5263996  40.2172518  23.5770249  51.1622810
  41.0385513  24.6156144  50.4289436  20.2020812  17.9323077  41.2343979
  20.7508516  18.6283791  40.8730555  20.2282596  17.2396326  40.5742836
  59.9187708  55.9256172  17.4764705  60.4357958  55.1485586  17.6888263
  59.1541243  55.8684635  18.0494273  80.6066608  85.6832790  83.6515808
  80.2951527  86.5806675  83.5337448  81.5522861  85.7379532  83.5136700
  24.9038076  28.9217496  34.0064287  24.5054436  28.1358385  33.6324143
  25.4321003  28.5983801  34.7362041 109.5215225  85.3097057  91.8242073
 108.7456894  84.7526646  91.8876266 110.2056980  84.7302151  91.4890575
 113.1317520  13.1397772  27.7738786 113.5117912  13.3799577  26.9288230
 113.6685848  13.6016428  28.4178686 100.9610653  70.5068016  72.8767920
 101.7043972  70.1260805  73.3444881 100.2200603  70.3934383  73.4720230
  94.3634701  85.5448627  82.3326111  93.9058018  86.3245583  82.0181942
  94.3466091  85.6254959  83.2862568  75.0027037  95.6152439  64.9319506
  74.7519016  95.1372719  65.7224417  75.9352112  95.7974529  65.0479650
  34.3215132  57.2196245   9.0782905  34.0741634  58.1320286   8.9280432
  34.0315056  57.0369053   9.9720138  62.2784901  86.4265442  80.2689362
  63.0536890  86.9342327  80.5088329  62.6244688  85.6716728  79.7927999
  24.5656586   5.1523733  15.0946784  25.3446960   5.4785055  14.6441579
  24.4681907   4.2524165  14.7835362  79.4402409  62.2895432  77.5344706
  80.1858902  62.2443581  78.1329679  79.8317909  62.2614622  76.6614676
  58.8280630  98.9596081  95.8009815  58.8070536  99.9132156  95.7209206
  58.7461424  98.7962723  96.7405796  21.9363093  61.1743069   2.6397943
  22.2870541  60.9460735   1.7789114  20.9864187  61.1268902   2.5316671
  35.0721573   0.5008648  92.4156189  34.6768116   0.0570248  91.6653252
  35.6326222  -0.1624539  92.8182507  67.2941685  16.5720773  15.1057529
  68.0949259  16.9519198  15.4673278  67.4800014  15.6350923  15.0444603
  50.7164955  58.9051294   3.2314801  51.1499691  59.6368408   3.6707208
  51.4282274  58.4226322   2.8109214  22.5911880  74.4150162  26.9937325
  22.2199702  74.5714235  27.8620434  22.5430894  75.2649260  26.5560436
  46.1604452  33.1385159  23.1373000  46.7198515  33.7649846  22.6781321
  46.0979700  33.4816790  24.0286851   6.2375742 109.7910500   1.8675271
   7.0992351 109.8342037   2.2821482   5.7353616 110.4905701   2.2854824
  38.1757784 105.1880360  91.1076260  37.5881529 105.7749176  91.5835476
  39.0222883 105.6346893  91.1203194  47.3684502  14.6331847  14.2931545
  46.8483019  14.5334971  13.4958220  46.7281675  14.8477674  14.9715555
 108.8015556  49.1917133  46.7116976 108.6824131  50.1155996  46.4915323
 109.7478008  49.0547228  46.6661072  88.9128590  76.1058044  88.3141232
  88.1375408  75.8957005  88.8346577  88.5789394  76.6354513  87.5901031
  21.1746287  26.7649794  19.1941178  22.0298290  27.1882272  19.1184413
  21.3291049  26.0135317  19.7665644  95.7282829  97.0642376  93.8420105
  96.2440014  97.8607368  93.9679432  96.3485241  96.4322853  93.4784698
   5.6147933  30.4044247  93.1751251   5.0424773  30.7697582  92.5004292
   5.7987851  31.1412144  93.7578106  46.2927580  29.4743538   7.5937325
  46.2189627  28.8805699   8.3408648  45.5141354  29.2943168   7.0668888
  81.6590977  93.2288647  83.1888771  82.0415211  92.4076462  83.4980392
  82.4120235  93.7650013  82.9401016  85.4461479  55.8755970  95.2744579
  84.9287510  55.5753136  94.5272255  84.8241711  55.9013605  96.0015869
  41.0150099  81.7434692  95.3386211  40.9949493  81.6078663  94.3912888
  41.8410826  81.3498306  95.6194782  35.2494001  21.8344021  15.1837254
  35.3569198  22.3802066  15.9626794  34.9379706  20.9944439  15.5209422
  56.7825270  61.3845873  83.7606049  56.9460058  61.6636848  84.6614933
  55.8955812  61.6912079  83.5720825  75.8448267  27.0959401  11.6333711
  74.9579382  27.3084831  11.3426971  75.9809923  27.6432133  12.4067950
  51.9379330  23.1205773  19.9386930  52.6518059  22.8434610  20.5129910
  51.1827850  23.2080245  20.5203652  74.7576618  76.2414932  92.0966911
  74.0881634  76.4779949  91.4547729  74.6298170  76.8607378  92.8153229
  38.2769871  24.8500919  18.8751447  38.4584451  24.0147066  19.3057704
  37.5731540  25.2392149  19.3942118  70.0222301  89.0002632  77.5955343
  69.3793440  88.2949734  77.6696110  69.9304390  89.3145180  76.6960621
  27.0523000  28.9535260   5.4240686  27.9459929  29.2865133   5.3424543
  27.1510196  28.0014467   5.4296249  56.4854527  86.5518379  72.3542738
  56.5205574  86.9471359  71.4832163  57.0508337  85.7820511  72.2909164
 103.5898209  75.9783649  80.3004265 102.6451492  75.8569860  80.2051258
 103.6837482  76.5220308  81.0826302  73.3722401  88.9231110  65.2546597
  72.5004864  89.2936134  65.1167965  73.2127333  88.1025696  65.7210398
  57.4832201  36.3676047  20.3537965  57.0011950  35.7374597  20.8893371
  58.3085537  35.9274077  20.1506019  75.3045654  62.2554159  86.5855408
  75.3058624  62.2971201  87.5418377  75.9055758  62.9494429  86.3147259
  44.7803640  21.0176611   2.1618859  44.4654036  21.6491103   1.5151224
  43.9844179  20.6664705   2.5610945   2.0484853  23.1764507  17.7911747
   2.5096285  23.7391543  17.1691263   1.7715475  22.4216938  17.2716773
 101.0099316  70.9401512  82.0984459 100.7802200  71.0578585  83.0201912
 101.9607639  71.0473776  82.0729923  46.7691517  19.5472407  11.2252796
  46.7012358  18.7186539  10.7508719  46.7003059  19.3013823  12.1478009
  93.8143253  73.9516020  86.9625378  93.6035728  74.8636627  87.1624279
  93.0050087  73.5930538  86.5982819   4.1213599  92.8122330  79.9517822
   3.5612842  93.0370331  79.2088032   4.7887450  93.4982777  79.9648285
  33.6777377  33.4007812  31.5273738  34.3421483  32.8232241  31.1515856
  33.0495715  33.5366416  30.8180213  48.2631826  11.6964746   8.8938856
  48.6712122  11.5496588   8.0405456  47.5970507  11.0124457   8.9617199
  74.9305916  75.5917740  86.3976002  74.6270990  74.9562788  87.0458889
  74.1591787  76.1249018  86.2054253  52.1519852  99.3676376  90.1698399
  52.9380560  99.7350597  89.7656918  52.2363186  98.4227562  90.0421238
  17.1918666  20.7372713   9.2807561  17.1317828  21.6512203   9.5588195
  17.7781832  20.7551026   8.5243523  16.7252445  66.6857910   1.7125459
  15.8451414  66.5117502   1.3788377  16.6459501  66.5852070   2.6611382
  38.2614946  12.7690828  11.2250876  37.8394461  12.5024056  10.4083931
  39.1950560  12.7941728  11.0151684 113.8051891  88.3930969  94.7807312
 113.1058979  88.3654022  94.1276932 113.7613106  87.5411606  95.2149200
  23.7084651  25.8028460   7.1541584  24.4657898  26.2706399   7.5060993
  22.9888511  26.4309502   7.2163796  83.1927872  83.7477493  87.2741127
  82.7613068  83.8877296  88.1169987  83.7595749  84.5114040  87.1654415
  28.2469988  16.9533610  42.9511213  28.6442208  17.0541131  42.0860815
  27.8777266  17.8144932  43.1468773  36.3165641 109.4388294  78.0579042
  36.0197377 108.7035275  78.5940599  36.3675952 110.1747608  78.6678410
  21.8701577  23.9914775  16.6882348  20.9389949  23.7717175  16.6587079
  22.1520185  23.7229252  17.5626874  54.6491671  19.9422872  23.9736152
  55.2755976  19.4597745  23.4341717  55.0913095  20.7672215  24.1741753
  50.0724554  34.7595096  17.9831672  50.2531242  34.8851490  18.9147270
  50.6829119  35.3481841  17.5392759  61.0812044   3.6713332   7.8360277
  60.8080006   4.3998823   8.3935302  61.4040518   3.0096391   8.4477156
  66.3616228  60.0255394   3.9332739  67.1399975  59.4684362   3.9353812
  65.7436037  59.5714092   3.3605191  61.6708279  28.3990169  21.1792660
  62.0140839  28.6504197  22.0367050  61.1516094  29.1526508  20.8987761
  90.6616592  76.8510675  93.7220573  91.2984371  76.3148594  93.2495785
  89.9452877  76.9763041  93.0996895  54.9970245  45.7107878  18.3111024
  54.3524504  46.3260460  17.9615140  55.1829243  45.1187944  17.5822568
  95.0232792  53.5159063  76.8532610  95.0156116  53.0520821  76.0159779
  94.1351700  53.4095860  77.1941137   9.9716967  10.9251153  81.9808865
  10.6287169  10.5688524  82.5789070   9.1605163  10.4780102  82.2223759
 117.5887156 101.8718052   1.4796726 118.1145579 102.5758171   1.1000714
 118.0215294 101.0678864   1.1922373  57.8178549  77.4150944  87.4266720
  57.0465994  77.0844269  87.8871632  57.8830147  76.8671894  86.6445065
  87.6385117  26.7262554   5.1172245  86.7920303  26.9812226   4.7501981
  87.9738617  27.5253987   5.5235988 105.2704048  58.7523651  86.0396385
 105.7550812  59.4809103  86.4276505 104.9381638  59.0995836  85.2118206
   3.9252761  21.0462379  33.0323505   2.9761907  21.1552358  32.9724503
   4.0425494  20.2412605  33.5368204  53.7852049  10.7054794  31.4848971
  54.0572929  11.4883900  31.0060954  53.6825752  11.0014689  32.3893809
 103.6691380  81.6275406  89.0538979 104.1839981  80.8357716  88.8981628
 103.6234188  81.6998482  90.0072670  65.0777721  84.6907616  91.6119576
  64.4414234  85.3502178  91.8883705  64.8651743  83.9183712  92.1358395
  17.7658021  28.3060765  42.3601055  18.2508838  28.9706993  41.8710232
  16.9480681  28.7387371  42.6057673  42.9517508  42.8680086  16.8574977
  43.1878614  42.0587730  16.4040446  43.6237574  42.9697084  17.5315118
  33.1267333  60.0768805   1.7727274  33.5551310  59.7452068   2.5618428
  33.5285378  60.9328079   1.6238175  59.2206860  43.5348940   7.9036576
  59.6617079  42.7441835   7.5929999  59.8881865  44.2187452   7.8486758
  48.4983397  54.5315838   9.1319305  47.9254818  53.9052582   9.5743990
  48.8016129  55.1129007   9.8293036  12.9021394  21.5789819  22.1356416
  13.0572259  22.2247338  21.4463067  12.0245492  21.7810297  22.4600554
  83.2799053  62.5029182  52.9268789  83.2131767  63.3098841  52.4164009
  82.6502609  61.9085884  52.5187683  28.3057284  21.1206937  38.6135030
  28.7636685  21.4189601  37.8276539  27.5351834  20.6600523  38.2813835
  83.2376862  61.0495567  78.1878948  83.9064217  60.9199381  78.8603687
  83.5986519  61.7295551  77.6190901 100.9752083  65.8733273  83.1007481
 100.3119850  66.2594700  83.6728191 101.7199326  65.7039070  83.6777401
  37.2858882  60.3639650  15.4612446  37.3240948  60.0200987  14.5687604
  38.1746292  60.2529430  15.7989466  69.5460987  81.0780239  73.4630823
  70.2527809  80.6784725  73.9702225  69.9772787  81.7588711  72.9465914
  55.6535292  15.8956027  36.3248110  56.0809708  16.2291980  35.5359888
  54.7177744  16.0001850  36.1526155  36.6364956  57.3048353  12.5618494
  36.7321110  56.6943026  11.8308663  36.1013007  56.8327618  13.1997693
  74.6969843 106.0212135  93.8962746  74.2947674 106.4230537  93.1262207
  75.5998468 105.8460236  93.6309814  23.7475419  57.0478916   3.6413139
  23.3273315  57.4267721   4.4133911  23.0699658  57.0684290   2.9655182
  17.7839041  11.1341953   5.9694177  17.9653966  10.2783728   5.5810100
  17.0465386  10.9779370   6.5594238  19.5965862  18.1070685  32.8076530
  20.0489402  18.7747097  32.2920322  20.1383138  17.3236012  32.7130842
  51.3957977  75.9819412  95.2831268  52.1458435  75.5078554  95.6421661
  50.7376623  75.9501171  95.9774399  40.5824375  29.8186278  19.8600674
  40.2742958  28.9731240  19.5338726  40.0022268  30.0177479  20.5948734
  62.6817465  52.6025677  90.2898312  62.6187229  53.3579922  89.7053719
  62.6096153  51.8444252  89.7099590  39.4030952   7.1072620  48.6478329
  39.0423989   6.5159929  47.9871273  38.6891699   7.7149940  48.8407135
  84.6254349  93.9653206  83.9772034  85.0606728  93.2769680  83.4742451
  85.2684402  94.2219639  84.6381950 107.9170799  83.4815025  89.3389511
 107.6682186  83.7732697  90.2159786 107.0861149  83.3858776  88.8735676
   0.5492115  35.2770329  17.5786817   1.1312180  35.5412459  16.8661571
   0.6820966  35.9410310  18.2552028  30.3251219  31.6091251  79.5994806
  30.9049678  31.0965133  80.1627254  29.5433927  31.7569208  80.1317310
 112.2027397  31.7143607  15.8082879 113.1598854  31.7052579  15.8138466
 111.9615746  32.0656323  16.6654229  65.8864784  83.3207893  86.3668442
  65.8456516  83.6073112  87.2792435  64.9809027  83.1070518  86.1421680
  94.1119385  60.8460760  93.1099319  93.8302040  60.6345129  92.2199249
  94.3364620  61.7759323  93.0754089  44.7465563  46.0235739   3.0708241
  44.2087889  45.2763510   2.8087249  45.6260490  45.8056831   2.7622017
  67.3913097  68.0872822  83.3965111  66.5295172  68.3339167  83.7322330
  67.9138708  67.9169083  84.1801739  -0.1040185 103.7530231  29.4299006
   0.7562338 104.1433620  29.5842576  -0.6237806 104.4613934  29.0500355
  14.8433983  16.2667322  16.5376151  15.6477964  15.9176993  16.9214785
  14.5103836  16.8783414  17.1943247  84.9052334  84.2585850  71.8507099
  84.6735096  83.5850525  71.2112665  85.1055908  83.7713242  72.6498747
  90.1140499  64.8330832  85.1657391  90.2314758  65.0575542  86.0888100
  89.2304707  65.1357460  84.9561691 100.4331779  27.8734994   2.2008891
  99.8596096  28.4969831   2.6464474 100.7876873  27.3293853   2.9040939
  69.3726826  90.1817989  90.7989502  69.3453789  91.1383343  90.7759666
  68.4548044  89.9147415  90.7499123   3.7192929  91.3812256  37.2285795
   3.1798330  91.0632229  36.5046406   3.2222977  92.1130657  37.5941348
   2.8905860  85.3234291  83.6800480   2.7692813  84.3916035  83.8622952
   3.8061982  85.3976536  83.4110165  65.3402233 103.2519817  81.5755272
  65.0441217 104.1622257  81.5772152  64.7110939 102.7944279  82.1332645
  24.6227336  69.6712255  13.2312775  25.3445077  69.2455244  12.7686203
  24.5553589  70.5358410  12.8261447  68.9632654  91.1291695  75.7809925
  69.6917295  91.7329979  75.9257698  68.1989241  91.5880489  76.1294746
  37.1290684  34.7262788  36.8545890  36.8783259  34.6331453  37.7736568
  37.8643680  35.3389692  36.8678308  13.0341494  64.6741247  32.6825142
  13.1963933  65.3096485  31.9853640  13.7317705  64.0262938  32.5831580
  13.2733357  28.7121844  19.3876469  12.9222131  29.3415642  20.0175858
  13.5823643  29.2499995  18.6586165  73.9553642  42.7946281  12.1180415
  73.7794828  42.3239899  11.3033056  73.3895063  43.5655308  12.0762730
  49.2653322  81.7798615  90.9529114  49.9218035  82.2711658  90.4590607
  49.7729826  81.2673283  91.5820694  10.3338802 101.4707565   9.9664468
  10.7815695 101.9479370  10.6650925  10.8927500 101.5902233   9.1985768
  41.4113092  85.5443668  92.9930973  40.9438372  86.3620472  93.1636810
  42.3310757  85.8024406  92.9325962  29.0819645  44.8626947   4.2232475
  28.9216089  45.1752186   5.1136678  29.4137716  45.6296062   3.7563571
  17.4385333  31.2389851  29.9892068  16.4958107  31.3861656  29.9127722
  17.7592707  31.2675595  29.0877962 112.4147797  12.0205653  32.4052262
 112.7075577  12.9068542  32.1930814 111.7185211  12.1462190  33.0499482
  34.1294861  97.5246716  78.1428003  33.6362004  97.1147633  77.4322510
  34.6097517  98.2371712  77.7209997  86.0691357  70.0663614  56.3972235
  85.5028820  70.5768681  56.9759941  86.7383671  69.7024775  56.9768333
   2.7759460  33.0915093  19.8935437   3.0968145  33.8682246  19.4352984
   1.8690532  33.3021355  20.1158357   7.1890563  13.4661770   4.1659155
   7.6661921  12.7117419   4.5114613   6.3750702  13.0979061   3.8223547
 115.4862309  34.8808050  13.1327784 115.7495213  33.9605689  13.1412780
 116.1997890  35.3299093  12.6796007 107.0433998 108.0276680  68.3942556
 107.1527100 108.8431454  68.8834190 106.5653229 107.4523640  68.9914989
  43.7560034  27.3552203  19.2544019  44.2470264  28.1536174  19.4485545
  43.3562374  27.5215244  18.4007263  61.3736296  80.1187611  79.1891909
  61.0685015  80.7969475  79.7918463  62.3282576  80.1801014  79.2230797
  33.4565592 109.2582607  60.7531834  34.2456269 109.6723080  60.4036570
  33.7774324 108.4855175  61.2180996  85.2700043  86.3247967  79.9602175
  85.1821709  85.3733540  79.9029684  85.0854588  86.6361141  79.0740728
  73.0145407  95.0900555  60.0562334  73.1885290  95.7904434  59.4274235
  73.5254669  95.3298759  60.8293247  65.9755516  96.2269497  77.4277973
  65.3674698  96.6098499  78.0601406  66.7687750  96.7567825  77.5072050
  41.9295931   6.6830325  14.3919766  41.1811447   6.0889423  14.3362248
  42.6728153   6.1609602  14.0898228  56.0931921  22.9433131  26.3612866
  55.9740114  22.7167320  25.4389572  56.7366695  23.6518979  26.3526344
  16.4493513  41.1435699   6.6695130  16.7866051  41.6151762   7.4311417
  15.6851268  41.6495800   6.3935733  47.1635580  48.2873392   0.2618391
  47.7110243  48.3018589   1.0468877  47.6425362  48.8188076  -0.3740493
   4.9263340 102.5813484  44.4134092   4.2527342 102.9738903  44.9687529
   5.4732740 102.0801258  45.0182772  64.8469305  99.3198872  88.9652443
  65.7298136  99.6166706  88.7446213  64.5587301  99.9175835  89.6551228
  34.0227580  25.6566668   0.6931143  33.1136084  25.8185482   0.4411730
  33.9673615  25.3228879   1.5885222  27.9813313  10.7613385  43.2712746
  28.9021230  10.5462408  43.1225872  27.6642895  10.0690460  43.8513136
  76.2994051  59.7069597  10.7502198  76.5740347  59.8831749   9.8503536
  76.2550879  60.5705929  11.1605883  24.7277021  12.2932327  10.5900061
  24.4977951  12.3983645   9.6667939  23.9209533  12.4982917  11.0625923
  56.6289663  36.3460970   7.6389939  56.5118456  37.2683072   7.8671277
  57.4919796  36.1211133   7.9865927 106.1100483   6.2926298  14.7896349
 105.2504826   6.6291964  14.5364511 105.9405899   5.7665759  15.5711615
  71.2409449  85.6778717  71.9575644  71.6573381  85.2054405  71.2366915
  71.9709778  85.9979630  72.4875021  19.0022993  13.9447176  30.0771642
  19.6966672  14.5957422  29.9759126  18.5774100  14.1742742  30.9036064
  70.9284735  87.0185471  91.3906384  69.9721575  86.9784069  91.3815975
  71.1819839  86.8963432  90.4757404 116.2595416   3.6047167  96.2120526
 116.5231395   3.3101744  95.3402774 117.0710135   3.9110512  96.6168981
  91.9169140 110.2500439  10.1482010  92.8303242 109.9702930  10.2086747
  91.8380642 110.6222343   9.2698580  67.9802179  73.4343863  92.6639080
  68.9279175  73.3030176  92.6930141  67.7479696  73.3004951  91.7450142
  51.8676901  47.8616381  69.3839598  52.6232433  47.3817492  69.7231865
  51.1152649  47.4652815  69.8232651  61.8696022  98.1717014  42.1588516
  61.0255384  98.6031151  42.2917747  61.7119122  97.5509548  41.4474869
  74.4575214  97.7850437  94.8836040  74.5976591  98.7300301  94.8237514
  75.2217770  97.4592018  95.3589725  75.3951263  90.4613018  87.5623798
  75.1744032  89.9857712  86.7615128  76.1436510  89.9868298  87.9240704
  25.0203729  10.3805804  38.3205986  24.4694209   9.7053725  38.7165499
  24.8869658  11.1519766  38.8714004  14.8680091  10.7851219   2.0529875
  15.4590654  10.1501179   2.4575265  15.3489423  11.1084795   1.2911645
  60.7063723  77.6649284  78.1362057  60.7873297  78.6003828  78.3222342
  61.2415981  77.2402191  78.8065672  36.7091274  29.5831037   5.6063974
  36.2056255  29.5948529   6.4203876  36.0557055  29.4353628   4.9226987
  69.8840475  93.1677055  91.2282467  68.9712477  93.4275723  91.1037254
  70.3714323  93.6936283  90.5941391  65.8153677  25.3093529   0.0355754
  66.7438841  25.3657508   0.2611989  65.5503035  24.4373894   0.3282353
  79.8209953 100.4111671  88.2178020  79.4470930 100.1928711  89.0714836
  80.7635593 100.4645729  88.3757305  22.5057054  43.3160639  16.3769090
  23.2220912  43.8228512  15.9945631  22.4275851  42.5476027  15.8115804
  48.0488968  27.5353241  23.8592720  47.6350212  28.3917403  23.9664578
  47.5301552  27.1017408  23.1816721 105.1944256   5.1095080  78.7282944
 104.3307972   5.0099152  78.3277225 105.0459385   5.6867886  79.4772434
  93.7719059  18.1135821  20.2683973  93.5634327  18.8597834  19.7062969
  94.2360306  18.4967053  21.0127306  91.1607456  92.3995399  71.2678909
  91.1826801  93.3508110  71.3720036  91.5799713  92.2414494  70.4220247
  34.9856615   5.4593730  83.5630989  35.3673935   6.0665780  82.9292107
  35.5834699   4.7118255  83.5686970  52.9174995   1.1990418   7.5050718
  52.5321007   0.5444786   6.9226205  53.1128120   1.9421992   6.9342828
  69.9997425  94.6291733  78.4214926  69.8639679  95.3296852  79.0595198
  69.2930698  94.0071964  78.5946751  74.0005255  74.1387415  76.9606161
  74.3342495  74.9690676  76.6208744  74.4437599  74.0286922  77.8018427
  16.6337144  36.6958117   4.1221994  16.2270093  36.9621325   3.2976419
  16.3315642  37.3438525   4.7585809  81.1469078  18.4233975  24.7907424
  80.8423615  19.1940224  25.2699280  82.0782185  18.3618820  25.0031304
  73.3931780  36.2540579  71.3728237  73.7985992  37.0525885  71.7107773
  73.7684679  35.5516601  71.9038820  28.7741041  36.7619252  29.7814894
  29.4092655  37.2567868  30.2990937  28.8788247  37.0960355  28.8906264
  55.5721879  66.2205499  -0.0011569  55.7656193  66.1718040   0.9350175
  54.6162236  66.2117522  -0.0489932  10.5337310  45.9816599  20.2195406
  10.7740510  45.0552130  20.2327585   9.6279073  45.9897423  19.9102676
  72.4169159 101.7568493  62.8942347  73.3439302 101.8385887  62.6701927
  72.1948147 102.5930977  63.3036184   4.2568773  44.1939592  32.0299387
   4.9963164  44.1128159  32.6323318   3.5393241  43.7368584  32.4685812
  20.0764990  48.4881830  45.3004599  20.3589511  47.8748608  44.6220160
  20.8713651  48.6758280  45.7996702   8.5882235  41.8218040  16.4805007
   8.3527738  42.2754574  17.2898161   9.0933597  41.0620499  16.7700541
  31.4982891  57.0869064  15.0857592  31.9494510  57.3425531  15.8903277
  31.5932417  56.1351013  15.0499928  71.5095186  97.6954174  80.3648186
  71.9389296  97.0279980  80.8999729  70.5793619  97.4732208  80.4056740
  68.9047623  88.5150623  94.9407768  69.3296051  87.7634335  94.5275116
  69.2701674  89.2753601  94.4883823  97.6944542  83.4632111  53.6046839
  98.2286453  82.9339886  53.0124044  98.2559299  83.6116219  54.3655682
  14.5069873  16.5470064   8.4149367  15.2935088  16.3669324   7.8999716
  14.6069980  16.0097003   9.2007685 117.1481514  95.8473682  92.6736355
 116.4208412  95.2342987  92.7803898 117.0279598  96.2111568  91.7964554
  25.1252651  73.0803585   1.3488509  24.8263955  73.2046890   0.4480451
  24.4282246  73.4562588   1.8865022  91.9532871  99.0598106  90.7681370
  91.7188358  99.5942402  91.5268612  92.7001286  99.5133400  90.3772926
  94.8323345  75.3860855  93.6004257  95.3508472  75.5446053  94.3892574
  95.4696083  75.4078531  92.8865337  22.6939011  28.5853839  26.1146975
  22.7852201  28.4762335  27.0612574  23.5044670  28.2270932  25.7529783
  38.7446332  72.6789618  18.8808703  39.3419600  73.3858728  18.6365163
  37.9649782  72.8285885  18.3460963  57.6143694  67.6194572  37.8782582
  57.1086693  66.8072557  37.9070830  58.4538460  67.3654413  37.4948668
  33.7200594  33.1582689   1.0081911  34.3855906  33.5870075   0.4701572
  32.9187083  33.2142687   0.4876769  38.3749962  15.7177317  96.0835171
  38.6737609  16.6104162  95.9100628  38.6234474  15.5545533  96.9933987
  98.1944466 104.7202301  76.0585976  98.1889915 104.4538975  75.1392126
  98.1374168 103.8985825  76.5463209  48.2049274  73.8206053   2.1173166
  48.8055468  73.1024504   1.9179600  47.6025391  73.4560442   2.7657378
  22.8704143  97.2419739   2.1269022  23.2188416  96.5700626   1.5409259
  23.6445427  97.6238346   2.5405866 104.2802811  74.4762230  92.0140553
 103.6061573  74.6887398  92.6595211 103.8848782  74.7011614  91.1718559
  86.6468334 104.5884705  91.4864349  86.3839531 103.7287807  91.8151760
  85.9286022 104.8553944  90.9127426  60.4808760  40.0704432   7.3557353
  60.5380821  40.2021980   8.3020961  61.3365746  39.7182941   7.1107835
  33.9594436  47.2858524   1.0600435  34.2022681  47.7755404   1.8458396
  34.7792673  46.8939304   0.7591825  89.0701199  97.4576950  60.2635813
  89.3440723  97.9825211  61.0157394  88.4114838  97.9951668  59.8236370
  96.7749023  72.4493742  86.8230057  96.5737915  72.0089722  87.6487350
  96.7516136  73.3820295  87.0371151  62.3368025  49.0058231  20.7514071
  61.5692568  48.7061071  20.2642965  62.0109653  49.7244024  21.2933540
  80.8871651  85.4302216  86.3832951  80.7153988  85.2515793  85.4587269
  81.7496777  85.0478840  86.5449047   0.8552954  33.4447885  52.9806376
   0.5704582  34.3271375  53.2184601   0.7977869  32.9466343  53.7959719
  16.1328185   9.4081557  85.7422829  15.1915002   9.5112395  85.6025505
  16.3788211  10.1603544  86.2807178  89.4556046 109.1912174  95.3630447
  89.2200470 110.1183128  95.3982639  88.7035179 108.7685871  94.9483204
  41.9741392  46.9500923   3.9812309  42.8479910  47.0349646   3.5999039
  42.1325302  46.8170452   4.9158120  80.1404762 106.1167908  92.0919418
  80.7366467 105.4301929  92.3909378  80.3906059 106.8888760  92.5994396
  33.2794189  38.7469745   7.7216238  32.5967216  39.1676259   7.1989340
  33.1687832  39.1128469   8.5991937  87.3943043  65.6287861  84.9026299
  86.8177509  64.9725437  84.5112705  86.8776321  66.0081244  85.6135273
 117.4937916  19.9092376   8.9484316 116.9694233  20.4978251   9.4914138
 118.2584190  20.4291940   8.7009960  57.4096584  87.9597569  91.8964291
  57.3255587  88.7872982  92.3700714  57.7556515  87.3466682  92.5449944
  42.4302959  18.1363380   5.2343774  43.2157326  17.7719569   4.8262838
  42.0102406  17.3870611   5.6567180  39.5017576  27.6031280  18.1138420
  39.5494747  27.6389289  17.1585023  38.7529850  27.0350575  18.2951319
  67.9136562 105.3869629  96.0287857  68.1408215 104.4571209  96.0252380
  68.7341881 105.8347702  95.8227825  59.2404318   4.3201184  15.6592166
  59.2337322   4.3799439  14.7039115  59.1520500   3.3845487  15.8412337
  38.4144211  26.6776395   8.6214548  39.1023803  26.2927747   8.0784810
  37.7287507  26.0102677   8.6479652  38.1218290  60.2161884   2.8838617
  38.6445045  60.0763321   2.0942518  37.8384328  59.3390894   3.1419659
  69.8927975  49.0529442  12.9745138  69.0085554  48.6885214  12.9352689
  70.2364588  48.7573910  13.8175905  69.5695353  26.9520545  34.1277742
  68.8887596  26.3054943  34.3141365  69.1299486  27.7969813  34.2231488
  47.8772259  63.1441927   8.3782846  47.8773022  62.2347689   8.6769193
  48.4857130  63.5898733   8.9676434   5.5533606  24.0912485  15.6964409
   6.4098740  24.5133924  15.6300068   5.6450558  23.2827711  15.1922715
  88.7422180  92.4437237  84.3781281  89.0607262  91.5713787  84.6100521
  89.2278671  92.6732063  83.5858345  35.2612615  46.8427229  15.1430643
  34.9008465  47.6577950  15.4923391  35.8371997  47.1212339  14.4310522
  36.2642503  50.9653950  24.5956659  37.1706700  50.8999205  24.8962426
  36.3097167  51.5195894  23.8165402  52.6282835  45.1466513  13.9794016
  51.8041945  44.6724892  14.0902078  53.1436300  44.5966148  13.3893895
  79.3973017  99.6301079  79.1886377  79.1768360  98.7701225  79.5464849
  79.1967058  99.5597649  78.2553387  79.0670347  54.8668718   6.6259003
  79.3662548  55.7101536   6.2859380  78.1127119  54.9090099   6.5648383
  43.7730694  40.5642319  23.2603836  44.6048594  40.5325747  22.7877855
  43.6444235  41.4921618  23.4569168  78.5808992  35.6755209   2.2919893
  77.8500795  36.2933230   2.2706881  78.6686563  35.4400897   3.2156250
  60.8843851  94.4850922  66.7311907  60.6779432  93.6328411  67.1149588
  60.3152943  95.1002407  67.1937466  40.0749207  35.9327626  21.4586735
  39.1281080  36.0699296  21.4896750  40.4005146  36.6358590  20.8966446
  96.6843510  93.5959625  57.5232410  96.8385792  93.9447308  56.6452837
  95.8361626  93.9582634  57.7792931 107.2543335  19.4286740  91.0145569
 107.4745369  18.6153233  90.5604649 106.3861752  19.2688632  91.3846874
  43.3060503  23.6000204   1.7745574  42.5738907  23.4881210   2.3809043
  43.7614584  24.3804598   2.0903878  88.0190182 106.6091633  78.3901358
  87.7990818 107.5275898  78.5461903  88.5830593 106.3696671  79.1254807
  99.4191170   6.9285131  78.9984083  99.4272995   5.9922445  78.7994957
  98.5043621   7.1885109  78.8895702  59.3081760  59.2660379  85.8874702
  58.5582256  58.7258387  86.1364555  59.5405006  59.7368145  86.6878605
  86.9399738  59.1253710  85.4123020  87.6187515  58.9146614  84.7711372
  87.2385025  58.7112379  86.2220001  35.8659959  16.3552284  87.9948044
  36.3805699  17.0722795  87.6242828  34.9580979  16.5844560  87.7962875
  49.1718864  48.7990236   2.0459557  49.1809225  49.4356537   1.3312152
  49.9744606  48.2916164   1.9249092  37.1972847  31.0491467  45.1288795
  36.7931581  30.6413341  44.3629837  36.5597892  30.9231186  45.8316946
  33.8808084  77.2153759  23.9771414  33.7895131  76.2876749  24.1945481
  34.7338891  77.2778702  23.5475111  39.8994756  22.0657945  15.5453920
  40.7991362  21.7998838  15.3552926  39.9854922  22.7303076  16.2289524
  20.2733493  29.9825835  13.9193141  20.1049757  30.9248304  13.9263558
  20.0267124  29.6886444  14.7962427  76.8566132  29.9742174   3.4807992
  77.3459768  30.0980592   2.6675233  76.9591331  30.8019662   3.9504313
  56.8227863  35.5236173  12.5100219  57.6813841  35.8993793  12.3154831
  56.5086031  35.1952457  11.6675889   4.4204861  15.2698243  50.1165104
   5.1049995  15.9223628  49.9686384   4.5620924  14.9737048  51.0156727
  56.7317104  18.6282599  28.9819217  57.3722744  19.1174555  28.4655881
  56.0016346  18.4809637  28.3806515  76.3883209 108.1988144  53.0590057
  75.6341887 108.0289745  53.6235142  76.3254738 107.5374126  52.3699331
  75.1209259 105.2280998  90.9029198  74.5940113 104.4816208  91.1881733
  74.5076704 105.9629250  90.8893681  78.4316492  47.5601673  16.8126154
  77.4917221  47.6410198  16.6506457  78.7075901  48.4408903  17.0664132
  64.4358015  53.5600805   4.9366644  64.1289759  54.3739748   5.3362447
  63.9309883  53.4856844   4.1268122  87.9755783  78.5765886  90.5469990
  87.3504066  79.1897011  90.9336281  88.1429768  78.9254475  89.6714973
  92.4543667  96.3199139  91.7218018  93.0471420  96.2548733  90.9730530
  91.9894218  97.1458721  91.5881538  44.6452951  54.3603516  10.0133860
  44.5584631  54.8938560  10.8033645  44.1490126  54.8360825   9.3473434
 100.2957058  97.3047066  80.8121681 100.3204536  98.1097126  80.2948856
 101.0334492  97.3856735  81.4166641  93.0670452  90.0873852  95.6207561
  92.7344894  90.2484798  96.5037537  93.8289738  90.6615734  95.5433273
  37.8274083  71.8258810   0.4099861  38.6469722  71.3728476   0.6082480
  37.1660471  71.3590240   0.9207448  88.5886574  26.5227461  27.6750636
  87.7731037  26.8403196  27.2874570  88.9271736  27.2707486  28.1671333
  22.7561426  37.6038241   4.5628881  23.4780860  37.6810241   5.1866406
  22.5412464  38.5076118   4.3322009   9.1275066  26.1599374  79.2079973
   8.4954965  25.9492946  79.8953295   8.8106900  26.9827008  78.8352776
  17.1492708  41.4678955  91.4535046  17.6292801  40.6484318  91.3338947
  16.5586734  41.2947083  92.1866035  22.9339576   6.6836917  84.3488026
  23.0448508   7.1964449  85.1494408  23.6958337   6.1046118  84.3277931
  67.3711729   5.2025753  16.2921929  67.1967745   4.4312602  15.7528496
  67.4003029   5.9287852  15.6692946  92.2141266  90.5880642  79.6972561
  92.1103287  91.5394783  79.6805668  92.0538998  90.3456116  80.6092739
  18.1480920   7.6379681   6.8822527  18.7474310   7.7451235   6.1436445
  18.1531668   6.6974908   7.0603240  34.4815254  20.1036239   7.4435258
  34.9453807  20.7656074   6.9308412  34.3496346  20.5122614   8.2990098
  85.9838295  88.5459900  70.2548170  86.0077286  88.5094452  71.2110186
  86.5452576  87.8236103  69.9734163  82.8926277  72.0506859  91.7113113
  83.0751991  71.3724756  91.0609722  83.3761024  71.7728424  92.4893093
 116.9973660  26.0988402  17.7460539 116.6837311  25.6817555  18.5484910
 117.2920418  25.3717828  17.1976185  86.1133575  79.8421526  77.1652317
  86.1009598  80.5406284  76.5108490  86.9382668  79.9679232  77.6341963
  96.3017941  90.4007912  69.3563271  96.9847393  89.7746468  69.5966768
  96.2346649  90.3282547  68.4042406  28.6695886  25.4398966   3.2621175
  28.3933496  24.9941015   2.4613735  29.3971992  24.9121594   3.5912222
  84.8064840 110.6233689  96.1300036  85.4798830 111.1915156  96.5041335
  84.2943275 110.3305146  96.8837725 104.5855427  30.6351328   4.8791558
 105.4957771  30.3402376   4.9063727 104.0888309  29.9152994   5.2681893
 100.5671120  99.2135906  78.9909983 101.2044430  99.8921967  79.2135525
 100.5690670  99.1877174  78.0341482  25.6961989  32.5800776  22.3740935
  26.1260939  32.2818351  23.1756377  25.2339029  33.3773565  22.6326704
  94.1730976  81.5722466  78.0001211  93.6457539  80.9356403  78.4826851
  93.6017227  81.8686581  77.2916651  65.0692415  76.2469673  92.0622444
  65.5879307  75.6527042  91.5199852  64.3162632  76.4735842  91.5164375
  84.2018032  95.3895378  81.2220192  84.4404793  94.9312782  80.4162502
  84.3588257  94.7500610  81.9167423  65.0504827  61.6488504  14.8183370
  64.3812656  61.9736433  14.2159379  64.7053909  61.8467093  15.6889665
 103.2038212  81.0782242  85.3303146 102.3284054  81.3484764  85.0531197
 103.7293720  81.8763924  85.2758312  25.4397535  18.9958262  24.3361831
  26.2057161  19.3947494  23.9233994  24.8312783  18.8416791  23.6135292
  52.8772640  21.4837670  79.1712046  52.7712297  20.7326794  79.7550344
  53.0910492  22.2121072  79.7543383  98.7496853  96.9132137  77.4585152
  98.2158184  97.1210861  78.2253313  99.3715477  97.6381969  77.3959446
  98.4289742  89.3326092  87.8286552  98.4843445  88.3868599  87.9654884
  97.5158596  89.5488930  88.0175114  88.1560230  74.6559477  50.0759029
  88.2431126  73.8516378  50.5875063  87.9200363  75.3244972  50.7190132
  61.6965437  43.4148502  10.4772258  61.2380314  42.5878811  10.6259525
  62.3585081  43.2064962   9.8179674  57.7872658  45.9339094  12.7218509
  58.7164831  45.9011841  12.4944413  57.6655340  46.8013668  13.1077588
  61.0806990   9.4635439  79.2361259  60.5054760  10.1832211  78.9764786
  60.5217552   8.8856465  79.7555923 110.1065445 107.8232002  69.6956825
 109.6753788 107.0164204  69.4138479 110.8755970 107.8939152  69.1301918
  29.3789911  15.5785751  32.8655863  29.4332933  14.6408045  33.0496216
  29.7666478  15.6747842  31.9957018  96.5236282  98.7827778  75.6077957
  96.1401558  99.2613029  76.3427782  97.1793461  99.3805790  75.2487755
   4.8974344  94.4486809  68.1609297   4.6626192  94.3470287  69.0832996
   5.1866037  95.3580952  68.0862141  29.5183706   2.5600436  81.7536259
  29.0691090   2.0408891  81.0866356  29.3446183   2.0982230  82.5738430
  52.6305485  10.5683672  60.0941038  52.1555424  11.1742890  60.6628370
  51.9526386   9.9964768  59.7340870  39.6060228  14.9601042  68.7693024
  39.7868204  14.0202999  68.7869883  40.4670334  15.3679466  68.6767721
   1.2806396  74.0494204  46.7462778   1.0221549  73.3115005  47.2984457
   1.6118774  73.6443329  45.9447718 107.9506302  27.6170778  77.2909164
 107.6937962  27.8455472  76.3975716 107.6642990  26.7099905  77.3978806
  33.9027977  25.6241679  49.8637295  34.8456097  25.4589152  49.8689604
  33.5208201  24.8210073  49.5098114  90.9328079 107.3521614  93.7980366
  90.0752449 106.9301128  93.7461948  90.7743454 108.1566811  94.2918777
   7.8996962  95.1686192  89.8576260   8.5271376  94.5479774  89.4870090
   8.4371305  95.9005833  90.1603222   8.5544974 100.0831318  57.0832348
   8.4574366 100.7232189  57.7882910   7.7359545  99.5870781  57.0957279
   6.8727422  78.4710121  93.9229870   7.6104581  78.3022356  94.5090866
   6.1796945  77.8901625  94.2368793  69.3029356  74.5817232  24.0101075
  70.0414848  74.7185230  24.6034527  69.5828581  73.8651848  23.4405017
  15.5374622  17.9602540  65.1508904  16.0076416  17.2895074  64.6556520
  14.7415900  18.1189322  64.6433067   6.3842392   5.8814037  76.2291527
   5.9616435   6.7276418  76.3758659   6.4146835   5.7908124  75.2767372
  27.3018670  10.7818007  67.4297142  26.4321995  10.4548883  67.6600122
  27.7820921  10.0045204  67.1443176  80.4293728  34.2320275   0.8944189
  79.6677017  34.7744560   1.0990193  80.3638840  33.4904671   1.4961083
  77.5280762  57.1574831  12.0960295  77.7631712  56.2366438  11.9819415
  76.6385412  57.2223997  11.7485416  56.3606644   0.1038229  87.0441246
  55.4509830   0.2147018  87.3205566  56.5770912   0.9228399  86.5984726
 114.5215034  72.0380402  62.1578217 113.5761833  71.9069862  62.2315264
 114.7336388  72.6523924  62.8605270  30.4942513  23.7141418   3.9316761
  30.3618693  23.3165479   4.7922730  30.4083991  22.9863882   3.3158535
   2.1633023  83.2408047  89.0461922   2.8136408  83.2087708  89.7478008
   2.6694947  83.4435272  88.2594872  16.9348991  10.3658414  56.7878914
  17.2623229   9.5883721  56.3355970  17.0625746  11.0786486  56.1619186
  13.2808042   9.3668687  86.3214207  13.4665525   9.7669655  87.1709251
  12.9007590   8.5149288  86.5358925  18.5772371 105.9967995  72.0059443
  18.3208752 106.7713356  71.5053463  19.0769136 105.4655266  71.3860273
  41.7703962  29.8157430  80.8304214  42.0204306  30.5867839  81.3395500
  40.8854389  30.0094843  80.5213165  12.6024246  38.8386631  66.8549252
  13.2690811  39.1947365  66.2675476  11.9123936  39.5019913  66.8641901
 103.4932041  14.0653551  76.8011713 102.7342510  13.5803294  77.1251726
 103.1456280  14.9262381  76.5681362  62.6779270  77.3509502  16.4481175
  62.5650930  76.4149284  16.2826884  63.5311031  77.5602245  16.0679460
  21.8659377  17.2455490  96.6012001  21.4440870  16.4512765  96.9289207
  21.9887280  17.0830691  95.6659126  62.0480251   9.2152506  65.5320597
  62.0749187   9.4494957  64.6043539  62.0199442  10.0550950  65.9904337
  84.8841000  90.1740456   4.7206843  85.6591129  89.7308826   4.3754482
  85.1133347  90.3876686   5.6251425  21.3219619  30.0614691  87.1153259
  22.0277786  30.5475569  87.5416756  20.9690237  30.6709075  86.4670563
 111.7355633 104.0948868  35.5903769 110.7837105 104.1905117  35.5576992
 112.0708466 104.8998737  35.1956487  40.0510359  24.9246907  76.2920189
  40.0287008  24.7265983  75.3558064  40.4606056  25.7882524  76.3444042
  95.4347324  98.4714222  90.8006859  95.0387669  97.6030636  90.7272625
  96.1778831  98.4475327  90.1978588  29.2026114  25.3831458  86.6109276
  30.1202655  25.6354332  86.7133617  28.8510871  26.0097980  85.9784985
  42.1691751  30.1075506  84.9966145  42.4823236  29.2177343  84.8341370
  41.3900518  29.9917006  85.5404758  86.7002106  86.2303066   5.5925089
  87.5949097  86.1647606   5.9263456  86.4292622  87.1229076   5.8071780
  91.8453026  67.1508217  22.5735402  91.9911385  67.6275158  21.7563987
  91.5984058  66.2687969  22.2954941   0.1709925  77.4067068  87.6019192
  -0.5810178  76.8293190  87.4702740   0.4145896  77.2775126  88.5185432
  86.8841267  96.9630718  81.9335175  86.1151695  96.4840508  81.6245365
  86.6563034  97.2336674  82.8229618  73.8501644  25.5327725  73.5391331
  73.9921331  25.5845356  74.4843292  74.7025824  25.7417464  73.1571007
  70.4703236  23.7000322  17.0290339  70.3040409  22.8358555  16.6524959
  69.7173929  24.2269039  16.7611969  11.7008364  19.2494178  81.9655228
  12.0823610  18.6735845  81.3028908  12.3498905  19.9431908  82.0823193
  10.4506207  35.8875656  62.7943516  10.2806938  36.7997360  62.5591946
  11.1785305  35.6264138  62.2302771  34.3697882  36.9356537  53.4097147
  34.8010683  37.2821093  54.1908646  34.5181131  37.6020432  52.7387762
  41.2788868   7.9529983  90.5547714  40.5874443   8.5980219  90.4061699
  41.6077900   7.7484733  89.6794319  90.2454948  51.4866877  13.7540770
  89.2963791  51.4563560  13.6337304  90.5426407  50.6027079  13.5384011
  60.4307127  65.3785086  26.3185906  59.7993612  64.9709940  26.9115138
  61.2852097  65.1438951  26.6805601  35.8922124   1.8972425  88.0944920
  36.0656524   1.9527248  89.0342045  34.9527264   1.7241748  88.0341339
   0.0419127  86.1101532  79.7387075  -0.5717576  85.5858803  79.2241383
   0.5472647  85.4674053  80.2364254  52.8662729  63.3536625   6.8309158
  52.4920940  64.0711689   6.3196343  52.2970009  63.2833195   7.5972170
  51.1685753   4.4852379  92.0840740  50.8677149   3.9502412  92.8185749
  50.7746363   5.3442383  92.2362518  58.7156010  32.6227999  83.6042976
  58.5575199  32.9073048  84.5044708  58.2263994  33.2457209  83.0668259
  97.2684860  86.0893250  57.8738976  97.0425415  86.9341564  58.2630491
  96.7259121  85.4562664  58.3440971  47.1272707   8.1956512  66.4102268
  47.3183584   7.9550326  65.5036831  46.1715126   8.2247496  66.4539337
   3.0193579  11.4332867  66.6051912   3.3531636  10.5392265  66.6791010
   3.6881354  11.8978095  66.1020136  51.7945528   9.3630457  44.4629288
  52.0382595   8.4402353  44.3904018  50.9515190   9.3532234  44.9161720
  29.0541983  25.9867597  77.6986599  29.4562340  26.8554235  77.7036142
  28.2672763  26.0839844  78.2348824 116.0704994  28.3263087   1.4253777
 116.6360664  27.5744700   1.2490031 116.2591362  28.9397454   0.7152068
  37.4988580  35.0007248  63.5968971  36.7481804  34.6481824  63.1189585
  38.2559586  34.7669244  63.0598974 100.7765770 107.5498962  64.7849512
 100.6484318 108.2843399  64.1846132 100.8918762 106.7907238  64.2134666
 108.5342598  74.2638922  11.1011362 109.4076824  73.8855791  10.9999454
 108.6548996  75.1963758  10.9218264  19.3336082  12.5719619  48.4147024
  18.5734761  13.1307554  48.5765076  19.6645665  12.3592126  49.2873049
   6.0768521  99.0856457  49.0803862   6.0126007  98.9169121  48.1403685
   5.3110135  99.6240520  49.2799807  60.0890207   1.3333866  81.7767239
  60.3809834   0.4315994  81.9100189  59.2988205   1.4108072  82.3113441
  94.9667072  92.0086765  86.1369038  95.3772449  91.1440468  86.1472797
  94.2257786  91.9292355  86.7376995  97.0234966 106.6936779  45.8859491
  96.4556026 107.2389984  45.3415680  96.4195728 106.1663628  46.4088678
 117.7140798 100.4088497  57.7234173 117.8618137  99.6342182  57.1808767
 117.1387621 100.1037407  58.4249544  10.7157969 109.9793243  68.0932522
  11.0607815 109.2955399  67.5190973  11.2438464 110.7514572  67.8902626
  42.1712446  21.2924862  91.5981197  41.3657713  21.2653255  91.0816860
  42.8355885  20.9082127  91.0260963  87.7502346 106.3203144  66.5372086
  87.1010685 105.8463192  66.0174608  87.2686100 107.0620155  66.9034576
 106.3724041 110.7947540  53.4587812 106.2794399 110.4009342  54.3262434
 106.0167789 110.1392078  52.8587675   1.7960078  73.6934900  78.7818384
   1.1786453  73.0113125  79.0459013   1.2444612  74.4462633  78.5688591
  11.0378802  97.7359390  94.1599274  11.1645675  97.3784733  93.2810688
  10.8530128  96.9712448  94.7051716   8.0218577  89.1725731  72.0090532
   8.2233953  88.3624268  71.5407753   8.0237317  89.8480415  71.3308430
  38.7456083   0.4354089  60.8452082  38.0634022   0.1017964  60.2625179
  38.2874846   0.6323902  61.6622448   7.5428575  62.3748016   8.3261347
   7.0057058  61.9446754   7.6607847   7.2142577  63.2733679   8.3550996
   5.4894662  90.6979179  86.9645405   6.4306998  90.5482197  87.0534325
   5.3462690  90.7686234  86.0207653 104.9978733 107.4873352  82.2271824
 105.3654957 107.4492455  81.3442135 105.1256084 106.6059685  82.5780392
  98.8006210  81.2442207  49.2123222  99.6225739  81.5761185  48.8511181
  98.7703133  80.3281689  48.9363480  -0.0585178   1.9165805  74.0049124
   0.6410084   1.7601480  73.3705425  -0.3250106   2.8226224  73.8490200
  92.4604130 101.3405132  68.9700842  92.3475647 102.0962429  69.5465946
  93.2892227 100.9497452  69.2468834  26.8959379  14.6366143  40.7607698
  27.6198888  14.0146410  40.8334112  27.2864008  15.4127872  40.3591108
  24.4914794  41.7033577  63.6767483  24.6898723  41.0610104  64.3581152
  24.4446397  42.5388288  64.1415358  24.3163371  15.0959921  95.2424240
  23.4992146  15.4492414  94.8906326  24.0615344  14.6754134  96.0636520
  37.9869533  33.9322615  60.5677319  37.9502463  34.3556404  59.7100401
  37.1662879  33.4433794  60.6288290  19.8421335  12.8593731  75.2186871
  20.4847074  13.5662282  75.1579714  19.0904367  13.1753087  74.7173214
  98.2225132  86.7786694  88.1728745  97.4859524  86.2067986  87.9568100
  98.8302994  86.2156296  88.6522579  54.3548727  22.3150468   0.4750564
  54.5505190  23.2209182   0.7145420  53.4404230  22.3340702   0.1928358
  27.2541904   9.8739052  53.8725758  27.4535894  10.5643344  53.2402945
  26.7552686  10.3153765  54.5598984  73.7641048  46.0635996   3.2574928
  73.8240480  46.1954021   4.2036784  74.6574211  46.1959791   2.9401591
  54.1974688  47.6982641  64.0435505  53.4492922  47.9776239  63.5158920
  53.9936638  48.0023193  64.9279976  94.9263763  85.2189445   5.0736010
  94.3164444  85.9565926   5.0826079  94.9176216  84.8899269   5.9724361
  38.3064795  45.1132774  88.5825825  37.9020596  44.4482565  88.0254269
  38.9437819  45.5462933  88.0146217   1.0677887  11.3535893  89.4995785
   1.8821430  10.8762276  89.3408871   0.4711610  10.6967306  89.8584747
  54.7612143  40.6080198  75.5166578  54.1388083  41.2753439  75.8056545
  55.6005096  41.0661840  75.4729795  98.1844521  79.5781279  13.2613552
  97.5557232  79.7431278  13.9639974  97.6692963  79.6482038  12.4576533
  54.0917015  57.7187538  10.7603490  54.2774725  58.0574465  11.6361403
  53.1463528  57.5686359  10.7571554  37.9391074  23.0160928  96.2278652
  38.8617682  23.2698655  96.2048626  37.8932381  22.3407984  96.9046974
  39.2860079  25.6377292  65.3794956  39.9344921  25.5723143  64.6784830
  39.7883892  25.9158444  66.1453295  43.1174755  27.8215265  83.7663841
  42.6102734  27.4327207  83.0537701  44.0196133  27.5528669  83.5925865
  15.9154701  26.1784911  70.2150583  16.5727937  25.5911613  69.8419571
  16.3968313  26.9818234  70.4129934  66.8723249  16.0066283  93.3871174
  66.2447357  15.5738223  92.8082848  66.6403246  15.7002938  94.2637920
  56.2533903  39.2615771  83.7969398  55.9127092  38.5402083  83.2679749
  55.5290699  39.8854136  83.8461018  48.6870289  21.2359285  65.6657267
  48.9735699  21.2058496  66.5785360  48.3244562  20.3657484  65.4997110
  74.4086135 107.9597375  96.6225296  73.7631572 108.6631343  96.5528994
  74.6824754 107.7957770  95.7201170  50.1625967  26.6140795  56.7183542
  49.8601532  26.2884855  55.8705616  49.5136642  26.2920117  57.3439646
  25.2458048  35.8647037  85.4097271  24.8689985  36.2909031  86.1795330
  24.7699261  35.0373650  85.3370285  92.8559875  77.6233292  11.3994479
  92.4747944  76.7514372  11.5030372  92.8073215  77.7958393  10.4591799
  18.4988928 103.9210796  92.3842621  19.0538931 103.1422424  92.3439026
  19.0191019 104.5609570  92.8702259  44.9591732  26.6000342  52.3864412
  45.6162643  27.1567011  52.8042698  44.2250156  26.5937996  53.0006123
  45.8130693  65.8186674   0.7168108  45.4215574  66.5243053   1.2316157
  46.6424799  66.1811066   0.4054469  63.5469675  35.0208235  91.7153263
  64.3033218  34.5071316  91.9986629  63.8667727  35.9225845  91.6873741
  26.1297727  32.6416516  76.7097616  25.5655909  32.1733546  76.0944366
  26.6475964  33.2297397  76.1599970  49.7908783  90.7855129   3.2481629
  50.2904797  90.3287792   2.5713858  49.3805790  91.5185547   2.7893257
  51.0246658  17.0718777  69.4291019  51.0729980  17.2537768  70.3676128
  50.1043987  17.2106469  69.2053175  70.7784414  93.4638023  16.4313447
  70.3898239  93.4941769  17.3055792  71.4463282  92.7806091  16.4897323
 106.8235779 107.6075172  65.6412840 107.0658684 108.3814335  65.1327753
 107.1731281 107.7766991  66.5161705  65.4384279  63.0590534  18.0973089
  66.1626673  63.3432913  18.6549103  65.0631714  63.8720894  17.7591038
  45.8899689  21.7863965  48.8093090  45.8587170  21.5603113  47.8797150
  46.1911392  20.9865594  49.2403364  90.2070427  60.0200415   4.8214841
  90.5169296  59.5284033   5.5820727  90.8325195  59.8084927   4.1284764
  89.7857189  41.5615702  14.8411250  90.0154400  41.2449789  15.7147563
  89.2984772  40.8391237  14.4450188  60.9714699  31.0221267  82.9391670
  60.9422350  31.4327145  82.0749950  60.2882099  31.4682388  83.4395313
  34.9473214 106.9151020  64.9397421  34.0277553 107.1805763  64.9521399
  35.3539228 107.4901962  64.2915344  23.9891505  26.7669988  92.7815914
  23.0454516  26.6357517  92.6897526  24.3465400  26.5459132  91.9215775
  90.1866055  92.8301620  14.5221305  91.1323261  92.6823711  14.5203376
  89.8143005  92.0026875  14.2173243  27.9430199  10.6774509  81.9332027
  28.7800598  10.2362728  82.0779610  27.2919965  10.0856531  82.3102665
  38.1702352  51.5693474  62.2062206  37.8017616  52.4518490  62.1655607
  38.5570502  51.4312363  61.3416195  15.3174531  91.4348984  92.6363468
  16.0612464  90.9971046  92.2224140  15.4528141  91.3015175  93.5744953
  36.5412116  18.6159718  40.7544851  36.3057661  18.1423259  41.5522671
  35.7053423  18.9206505  40.4013205  35.4706144  29.2136216  77.8128719
  36.2185454  29.7491193  78.0775785  35.8612728  28.4133196  77.4619722
  17.1112907  26.8118930  39.0319443  16.6687405  26.8427539  39.8801374
  17.6343513  27.6131010  39.0054131   1.4130943  86.8435669  51.1216974
   0.7041425  86.9066906  50.4816723   1.7202178  87.7438450  51.2284899
  89.3877792  77.0441198   2.1686070  88.4758091  76.8756008   1.9316787
  89.3753147  77.1320915   3.1216744  65.9831142  85.0864410   5.2600616
  65.1825953  85.4797077   4.9125826  65.8314800  85.0283051   6.2033850
  12.6768827  42.2648191  87.5925350  13.4449112  41.8750715  88.0102158
  12.6247096  43.1462669  87.9620743  51.8578243  88.4769630  16.8181181
  51.0263634  88.8801670  16.5684605  51.9708729  88.7117767  17.7391565
  42.9905796   5.4109067  74.6939564  42.3836517   5.1237112  74.0117598
  43.5956192   6.0002762  74.2436171  20.6425309 110.5826283  92.1883583
  20.4873586 111.3855457  91.6908836  21.5213656 110.3060818  91.9287395
  55.6709099  30.4595566  84.4963169  55.3188658  29.7758985  83.9263058
  54.9007845  30.8372855  84.9211216  15.1692450 109.3550014  79.0754032
  14.3590772 108.8466549  79.0373802  15.6882489 109.0340042  78.3379602
  34.6406770   1.9850339  95.1403713  35.0687909   1.3365480  94.5814323
  34.6369839   1.5861553  96.0104942  62.4598789  90.8521843  44.2716599
  62.7937841  91.2619305  43.4736347  62.0148230  91.5607357  44.7365379
  39.0330887  26.0034728  87.8181839  38.2231283  26.4858508  87.9840279
  39.7082138  26.6799688  87.7653408   6.3040537  47.3089314  77.4913788
   5.5904490  47.1557951  76.8720627   6.3615388  46.4975548  77.9959536
  50.8695078   8.0235213  61.6629887  51.7538023   7.7693099  61.9268656
  50.6677485   7.4533838  60.9210539 106.5469360  81.1003208   6.5493357
 106.1703968  81.2705326   7.4127460 105.7894325  80.9623814   5.9806514
  29.7958732  11.0995579  92.9557896  29.8124552  12.0273149  93.1907845
  30.1264262  11.0739827  92.0578384   9.0149713  88.6980820  24.9247646
   9.5819885  88.6126614  24.1583252   8.3093643  88.0696011  24.7719193
  38.0548739  36.9811583  43.2518196  37.3833084  36.5934825  43.8130140
  38.3993745  37.7141881  43.7619400  54.1692019  37.6008964  70.5265474
  54.3767929  36.7092848  70.2469683  53.3783245  37.5073719  71.0575819
  53.8618469  94.0172672   5.1073194  53.0770206  93.6304188   4.7192091
  54.1741562  93.3563328   5.7252753  47.3199797  22.1992898  35.2774978
  47.4522924  22.5450516  34.3947911  46.3732386  22.2419047  35.4120064
 118.2760965  10.4076719  57.5914955 117.6185152  11.0366428  57.8885078
 117.9435848   9.5583761  57.8819513  17.4376237 106.9237804  85.8130169
  16.6708100 106.9384480  86.3857460  17.4502075 107.7906895  85.4073811
  18.8189864   4.2842448  58.7093306  17.9803514   4.6441996  58.4206200
  18.5875320   3.4781688  59.1707468  37.5742292  38.5986567  41.0638285
  36.6317081  38.7519979  40.9977198  37.6770210  38.0791020  41.8611526
  28.5269022  62.6493549  53.6657858  27.6078439  62.5282383  53.9043140
  28.9647484  61.8634129  53.9926100  74.4246912  86.7363262   8.6514473
  74.8814917  86.7412853   7.8102928  73.8013554  87.4601173   8.5897559
   5.3617638  34.5757532  87.6817894   4.7549728  34.2200470  88.3310223
   4.8016542  34.8512125  86.9560909  23.4793162  93.9322662   4.0605584
  22.9272723  94.2657661   4.7678447  22.8936982  93.8769341   3.3054277
  56.8876696  48.0074263  71.2355089  56.5372658  48.6116886  70.5810499
  56.1142731  47.6644135  71.6832018  97.7759552  97.1465683  82.1176147
  98.5993862  97.3069954  81.6566849  97.9956150  96.4904499  82.7790546
  60.7966375 101.4091969  20.8290076  59.8434544 101.4506817  20.9061718
  60.9855080 100.4811954  20.6898332 100.0820732  84.3534374  17.2686148
  99.7341347  84.5727730  16.4042866  99.3514824  83.9316654  17.7209246
  69.8782206  83.2923317   5.5209899  70.0184298  83.6956978   6.3776517
  69.6765566  82.3774147   5.7171714  16.4061522  46.5575361  89.9797821
  16.3067305  45.6182337  90.1348972  16.5835714  46.9257593  90.8453274
  43.6916876   3.8658446  83.3707047  43.4024382   3.5710761  82.5071716
  43.3789539   4.7683772  83.4328651  26.0805488   9.8659670  86.4162159
  26.0124063  10.4076159  85.6299591  25.7237601   9.0173084  86.1540890
  42.4086094   2.5779399  51.8106270  41.9094133   2.5654405  52.6272583
  42.7441645   3.4722546  51.7486954  30.2850032  26.1005712  90.3270435
  31.1659503  25.7262993  90.3361988  30.2125430  26.5629959  91.1619949
  50.8126593  85.7850170  32.9920602  50.2455807  86.2995052  32.4176431
  51.5466881  85.5263233  32.4348259  11.7247355 108.5947704  65.6129932
  11.8857360 107.7504826  65.1916885  10.8576560 108.8557911  65.3027201
  61.8736219   0.4896142  68.3886671  61.7249298   1.2257972  68.9820957
  61.5541363  -0.2739143  68.8694859  80.1055527   0.8321034  82.1317863
  79.2308760   0.7883261  81.7454433  80.6953049   0.5915464  81.4172649
  50.9824085  36.9348311  57.9113007  51.2830305  37.4407029  57.1563482
  50.7686996  37.5940466  58.5715961  65.5139065  61.0436535  78.9172363
  65.5698872  60.6776857  78.0345345  66.4156628  61.2774849  79.1372061
  27.5460815  20.0854063  52.2071934  26.9848967  20.4553938  52.8886747
  27.0939255  19.2881179  51.9313002  89.5957470  48.0503511  81.1489010
  88.7009621  47.8437138  80.8788967  90.1142788  47.9590130  80.3495121
  27.5769305  14.3961644  81.0225677  27.3752117  13.9374220  80.2070332
  26.8053651  14.2583525  81.5720463   7.9006428 109.0127087  78.0147648
   8.3708024 109.1800308  77.1979475   7.2983384 109.7517490  78.1001425
  67.5891972  11.5840101  65.5162716  68.1565285  10.9382117  65.0951862
  67.0027685  11.8782783  64.8193216  71.8490124   7.3864728  94.4690132
  71.6176224   6.6297960  95.0076580  72.6451874   7.7328318  94.8719788
  82.7590942 102.3390865   5.7159394  82.8792858 101.4327717   5.4324400
  83.6473942 102.6899529   5.7795435   0.0714671  15.1628840  71.0199308
  -0.5717195  15.2221417  70.3135109   0.5573260  15.9861636  70.9711552
  21.1038899  12.2778761  68.5979652  20.9539819  11.3575900  68.3815575
  21.3904953  12.2655654  69.5111656  15.4975379  90.8623028  77.3980093
  16.2177587  91.4797211  77.2703123  14.7068954  91.3912773  77.2916937
  24.9139810 104.4866467  18.2323325  25.0669861 105.0534725  18.9883304
  23.9874029 104.6084118  18.0253112  43.1174231  10.6482673  73.3002377
  43.5208797  11.4507771  72.9694223  42.1786261  10.7799590  73.1677818
  33.9226580   4.8914322  72.6729822  34.0090704   4.0128529  73.0429316
  33.8707519   4.7492850  71.7278194  49.8223162  16.1044860  88.3517742
  49.6073723  16.0216200  89.2808437  50.0939703  15.2249408  88.0894089
   9.3138093 102.0648861  94.0428352   9.5587718 101.5137291  94.7861099
   9.8102814 102.8732967  94.1702271  27.4826312  29.6977186  62.0074749
  26.8192601  29.3573737  62.6077557  28.2937098  29.6867657  62.5156736
   0.7476130  95.2363014  48.7106752   1.2843725  95.0938225  47.9310465
   1.3222617  95.0094986  49.4418192  61.7057228  61.4364195  86.7124462
  61.7298841  60.7034683  86.0972786  62.6084185  61.5214443  87.0192719
  67.9862118 104.1552830  10.3747988  68.4395456 104.9672699  10.6015110
  68.4885120 103.7968063   9.6430713 105.9979343 108.8236237  72.0025396
 106.7010021 109.4727516  71.9788742 105.9232140 108.5850525  72.9265165
  75.6944084 105.0246811   0.1761604  75.3119373 104.7217846   0.9996919
  76.5582800 104.6133995   0.1477066  54.3214369  25.2797890  81.1390495
  54.3809795  25.0483608  82.0659351  55.2052879  25.5637836  80.9058285
  17.6473296  13.6251926  58.6011839  16.8205667  13.1442356  58.6382771
  18.2274151  13.1506228  59.1965961  43.4191942   7.6797074  59.1809320
  43.1539965   7.2089869  59.9710703  43.7776661   7.0022678  58.6075163
  69.8385954  18.9984751  88.5273743  69.1959333  19.6079803  88.8903046
  70.6743860  19.2837524  88.8965511  28.7190151  11.5404153  74.8486614
  29.1697168  10.9215105  74.2741537  28.2324314  12.1097922  74.2526102
  94.0583992  18.9556098  86.7707539  93.2403469  19.4207263  86.9459724
  93.9142609  18.0769038  87.1219444  27.3289824   1.0659304  57.2366142
  27.7182531   0.2930456  56.8275309  26.3912868   0.8756746  57.2642088
   4.2832440   1.8698701  14.2533946   4.2473999   0.9673511  13.9365244
   3.6397481   2.3366427  13.7202263  40.1952791  35.3420377  68.3981037
  39.5392895  35.4102135  67.7043772  40.1366043  36.1750650  68.8659239
  41.9623470  20.2794075  94.0222359  42.8972816  20.3055429  94.2258358
  41.9037676  20.6037116  93.1235600  16.4972067  41.6731215  94.3679237
  15.5484223  41.5957260  94.2676735  16.7252648  42.4667072  93.8837242
  81.2848759  55.6669426   1.8855152  81.1563587  56.6109180   1.9784087
  82.0915127  55.4863930   2.3681833  87.0379066  48.2351446   4.8218626
  86.1182404  48.4823656   4.9184480  87.1995354  47.6271963   5.5433255
  87.9355907  80.6358051   9.4893217  88.2686234  81.5326405   9.4577444
  87.7948093  80.4001617   8.5723239  41.4604187  18.0415773  86.0509300
  41.1470318  17.7509391  85.1944542  40.9816790  18.8533795  86.2182999
  38.2029128  43.9120150  67.3021555  37.3980284  43.4547997  67.5457716
  38.6345410  43.3235693  66.6827536  72.4620008  86.9550133   1.9924352
  72.3757076  86.1472702   2.4987212  73.2142162  86.8003464   1.4210528
  43.6507893 104.5973969  90.9796429  43.9021635 105.4887009  90.7375240
  44.3907881 104.0565395  90.7037544  71.1093664  49.6679068   2.8514421
  71.9807053  49.4132662   2.5478655  71.2383413  49.9192333   3.7660086
   3.9520168  18.1467557  64.5395947   4.1557503  18.4205449  63.6452961
   3.1993747  18.6831379  64.7887039  62.3079062  67.1230268  12.5229156
  62.4763346  68.0649567  12.4977279  62.4725008  66.8262720  11.6278875
  53.2687378  47.2883129  81.2327957  52.8731537  47.5563383  82.0621967
  53.8615942  46.5751028  81.4696217  29.4383740  26.6589046  64.5546961
  30.2753448  26.2768698  64.2905664  29.6734452  27.3336267  65.1916599
  47.9555798  29.6238399  80.4554462  48.4847641  28.8263321  80.4686165
  48.1582737  30.0319052  79.6136427  48.3192158  21.9635940  73.4619951
  49.0532351  22.1106529  72.8654861  48.5912037  21.2180877  73.9972305
  35.6215262   5.9144640  79.0853643  36.2810469   6.3634604  79.6142006
  34.9388814   6.5708071  78.9459324  29.9246573  93.8817310  83.8581848
  29.1696715  94.4597912  83.9680767  30.0084233  93.4344387  84.7002888
  69.0956163   9.4860208  79.1381073  68.4780693  10.0108361  78.6287594
  69.9408674   9.9152607  79.0056849  59.9106693  39.9849892  73.7855482
  60.7961845  40.1549482  74.1068029  59.8607111  39.0317845  73.7139034
   6.9359964  87.2790051  84.1186428   6.3927400  86.8713474  83.4441662
   7.1498746  88.1422043  83.7645626  73.1418943  74.1745758  20.8696175
  73.3779287  73.5038757  20.2287745  73.6172771  74.9552584  20.5854034
  81.6415215  16.1119115  76.8190002  81.7951584  16.9129431  76.3180256
  81.1726570  16.4044297  77.6005602  78.2130051  64.9887562  12.2186565
  78.9204788  64.9972868  11.5739536  78.6434364  64.7643185  13.0436337
 107.5749493  98.2774639  63.5518360 108.1486130  98.8402843  64.0718174
 106.7670441  98.7818527  63.4563065  61.8678236   8.5974288  86.6594887
  62.7653027   8.5263145  86.9846058  61.8308163   9.4594514  86.2450218
   4.3181321  27.2822785  81.4076233   3.6681515  27.1988726  80.7099152
   4.7184375  28.1392765  81.2608433  49.4375515  22.4385643  68.4218359
  48.4975719  22.3024392  68.5407591  49.6626186  23.1210136  69.0541601
  56.2782955  11.0888076  82.2800350  56.8466187  10.6437409  81.6514206
  55.7425690  11.6748631  81.7454624  56.4629364  86.2407780   7.9637659
  56.3281631  85.6622982   8.7143850  57.2595787  86.7270756   8.1761485
  58.1738091  28.5757208  66.7155600  57.4766684  28.1186295  66.2451410
  58.9766788  28.3203745  66.2612057  39.5123935  89.4411087  59.0690994
  40.3949738  89.0708256  59.0556669  39.1631150  89.1966534  59.9261189
   6.9702750  85.7265282  88.1338692   6.5527648  85.5670071  88.9803123
   6.9942838  84.8672009  87.7129078  30.5254745  38.9440489  35.9475160
  29.7627401  38.4203887  35.7020617  31.1086082  38.8872933  35.1905704
  18.7563860 110.8387375  84.5759964  18.6091602 111.2286568  83.7143040
  18.0055082 110.2600670  84.7084904  68.7594604 100.4700851   3.3934116
  68.4220266 101.3512611   3.5543308  68.2368040  99.9057293   3.9631188
   0.7699191 105.6846714  56.5694380   1.1735426 105.1706409  57.2687912
   1.4318549 105.7103825  55.8784914  53.3416653  12.8588140  53.3334208
  52.4068594  13.0640221  53.3495760  53.5316944  12.6797628  52.4125195
  67.2844744  69.7739983  20.5825400  67.1994352  70.4739428  21.2299013
  66.5781355  69.1639900  20.7951665  38.1732428  31.0187955  95.9919065
  37.2328245  31.1722607  96.0829380  38.4855282  31.7525811  95.4624973
  81.0622406  85.4237556  13.7410533  81.6579628  85.1408958  13.0472660
  80.6799698  86.2371445  13.4116483  72.9754066  69.4013929   4.3591118
  73.1248665  70.1678419   3.8055342  72.7944899  68.6920929   3.7423527
  68.1186533  48.0680418   3.7728694  68.5770464  48.3110714   4.5772606
  68.3628941  47.1544647   3.6246911  49.7563314   5.8575189  50.4771423
  49.6843004   5.4713428  51.3500166  50.6720209   5.7254034  50.2316046
  85.0325394  42.2528124  20.3202295  85.9038448  42.6026821  20.5063581
  84.5014000  42.5214624  21.0698652  88.9242268  41.2106133  26.1166716
  88.6486721  41.9996786  25.6501126  88.7711906  40.4990435  25.4949999
  72.5543690  81.9679546   8.8023251  73.2255793  82.6347446   8.9475793
  71.7260599  82.4422455   8.8743222 117.2800732  95.3512669   4.6228260
 118.1728458  95.0061703   4.6130091 116.8485641  94.9202824   3.8850647
  13.5039246 104.1480446  82.1372128  13.7302291 103.9870739  83.0532455
  12.6958549 103.6537266  81.9997120  53.6056948  20.3519344  92.7417278
  53.4544039  19.5850503  93.2942009  54.5026541  20.2456665  92.4248695
  51.8628216  21.1256027  67.7026272  51.1352110  21.1740994  68.3226776
  51.4728355  21.3497758  66.8577099  51.7781496  20.2014399  26.5693545
  52.3090696  19.9926925  27.3379755  51.1593723  19.4743419  26.5010262
 112.2546291 110.3050709  94.3820953 112.3836327 110.7593918  93.5495186
 113.0787277 109.8419476  94.5324421  62.4241352  40.7074356  74.3495274
  63.0503178  40.3564501  74.9827242  62.9680538  41.0639954  73.6472082
  62.6895237  30.2527237  90.9345150  62.0756960  29.6419621  91.3424587
  63.4052420  30.3301525  91.5653706   0.8190490 102.2561646  59.6545315
   1.2223182 101.8207073  60.4055166   0.3002216 101.5721607  59.2312288
 105.9468555 101.8670177   5.6664890 105.0941372 101.9808674   6.0861814
 105.8806419 102.3637199   4.8509350  26.6754985  16.9881392  89.4645977
  26.2098002  17.6888514  89.9210644  25.9824657  16.4435399  89.0913010
  34.8116994  33.8774920  75.8377552  34.4566679  33.8166833  76.7245960
  35.7605815  33.8346839  75.9561729  30.5337345   1.1883826  95.3831855
  29.8920977   0.8835358  96.0247514  31.2212240   1.5982527  95.9081569
  43.8095522  19.8409867  89.6075726  43.8618803  18.9336872  89.9080753
  44.2504311  19.8377001  88.7579536  30.0406361  29.5900321  90.2504921
  29.7391796  29.4308829  91.1449337  30.7902408  30.1767015  90.3512001
  45.1911688   6.5634364  78.7848186  45.7879305   5.9701604  79.2410326
  44.3540525   6.0993797  78.7738228  42.1528387 102.1474838   3.2838809
  42.3323965 102.6900959   4.0517119  42.2161722 101.2483120   3.6059183
  76.8072987  85.9671783  84.0161228  76.4321995  85.0912189  84.1067982
  77.3768330  86.0640240  84.7793293  24.0027094  43.6472797  76.6453934
  23.5732651  42.8085518  76.8137598  23.2971883  44.2224169  76.3492680
  69.9569035  90.0910282  71.0491991  69.6060991  89.2471981  70.7643890
  70.5963326  89.8685074  71.7258406  35.5803967  23.6473536  85.0761700
  35.9277773  23.7350965  84.1885567  34.8973846  24.3155408  85.1331997
  91.5228653 107.9486179  64.2280006  90.6160831 108.1588268  64.0048695
  91.6749001 108.3969212  65.0599527  87.5847435  64.9094868  11.9415486
  87.0601463  64.1475868  12.1875870  88.3877087  64.8234653  12.4554336
  68.2470179  51.5814590   9.5290822  67.3023605  51.4330149   9.5717430
  68.5162783  51.6749954  10.4428554  85.4384136  96.1501598  17.4272394
  86.3147163  95.9541988  17.0957041  85.0506783  96.7158890  16.7595172
  83.7789249  37.4667573  13.5208738  84.1117001  36.6836905  13.0823553
  84.2985916  38.1838226  13.1575656  42.7171659  16.5878534  68.1831503
  42.6890182  17.5334609  68.0373192  42.6545382  16.2083638  67.3066282
  95.9836292  55.7340717  28.5072684  96.3561630  55.2572870  29.2489719
  95.1548958  55.2895975  28.3287096  53.9220238  23.0943036  92.9312992
  53.3231258  23.6260009  92.4070358  53.6202908  22.1952295  92.8014660
  49.8848057  15.2883708  65.3451014  49.2336321  15.0418961  66.0019541
  50.5913115  15.6931210  65.8483458 102.7559853 105.1709461   2.7333418
 102.4544525 104.3556786   2.3325221 103.7052536 105.0680161   2.8005567
 104.4074154  54.0269947   8.1911093 103.7744427  53.9859009   7.4742442
 105.0294399  53.3244801   8.0019587  58.7519360  39.3902779  85.3591347
  58.1056213  39.4385457  84.6547318  59.1627836  38.5327959  85.2488804
  52.2951841  20.6465769  83.5348606  53.1459999  20.3714466  83.8764095
  51.6577101  20.2089047  84.0990448  14.6656573  27.5511503  74.5728970
  13.7995112  27.2116423  74.3476009  14.8241198  28.2461047  73.9340210
  40.1096296  36.3556170  81.2402821  39.6294308  36.3353848  80.4124928
  40.5883980  37.1842122  81.2192440  83.6422443  11.2473774  61.6207504
  83.5024834  11.3196206  62.5649357  84.0459442  12.0794737  61.3740301
  53.8098097   9.2280877  72.7672720  54.5212507   8.7596112  73.2038593
  53.5288954   8.6386102  72.0673895  60.1588535  43.1149483  91.1144829
  60.1816940  43.4133148  90.2052593  59.8403883  43.8714838  91.6068840
  24.5267200   8.6658835  77.4485302  23.6023355   8.4388942  77.3474312
  24.7404742   9.1583598  76.6560602  33.8094831  41.5434837  74.8976803
  34.3227506  42.2141123  75.3482866  34.4373751  41.1088467  74.3205547
  41.7409134  18.5464144  21.6679478  42.6937675  18.4584951  21.6917372
  41.4248085  17.8985608  22.2977066  47.7687263  32.5184298  73.2240582
  48.4476757  33.1594682  73.4345961  46.9468737  32.9995513  73.3205652
  47.6540947  18.6888516  94.3585682  47.8596258  19.6166265  94.4735527
  47.0118475  18.6719656  93.6490154  31.9218826   0.9183133  73.2015753
  31.4192533   1.5293296  73.7403250  32.8341579   1.1751109  73.3359003
  25.3736138  53.9766788  75.9606791  24.4522548  53.7693596  76.1167288
  25.4449153  54.9113750  76.1542940  51.1445427  23.1905246  83.7154007
  50.7491732  23.2773876  84.5827866  51.1797571  22.2464037  83.5616875
  50.1625919  23.6189842  79.6266460  50.1164579  24.1432357  80.4261875
  50.8738995  22.9989791  79.7874784  53.5176277  39.1471004  68.5448074
  54.4388437  39.2660880  68.3136559  53.5330009  38.5422969  69.2865658
  80.4236603  99.2894650  12.8164673  81.3707733  99.2371559  12.9447889
  80.0753593  99.4944668  13.6841619  47.7542114  45.0499344  64.4837236
  47.6217651  45.9197140  64.8607779  48.7048340  44.9601078  64.4168139
   6.5978658 110.8056450  28.2260156   6.6546607 110.8354950  29.1810632
   7.3969334 110.3551769  27.9525232  51.3719368  44.2028379  88.2588196
  52.1225452  43.9452887  87.7235699  51.7446280  44.7612619  88.9410877
  61.1748838   3.4947819  58.3281517  60.3785133   3.6701491  58.8294220
  61.6427135   2.8379375  58.8438272  62.8320694  35.4915071  70.2359104
  63.4679508  34.9816942  70.7378864  63.3397627  35.8652377  69.5156336
  49.5742702  48.3563662  74.7511005  49.6046638  47.4303341  74.5107555
  50.3095388  48.4718561  75.3529978  91.2036419  70.1045561   6.2510091
  91.2405396  69.9572277   7.1960831  90.2713108  70.2090883   6.0611176
  38.9057636  53.1153345  65.4818153  39.7761989  53.4636164  65.6748819
  38.3860826  53.8847971  65.2492476  52.8490686  32.7245927  89.3664169
  53.4969139  32.2281265  89.8664761  53.3685732  33.3185601  88.8246155
  68.9303780  67.4386263  32.2099042  69.5139074  68.1968689  32.2381258
  69.4787550  66.7265081  31.8806624 108.7684631  54.0964270   0.2875194
 107.9445934  53.6091757   0.2794005 108.5736370  54.8880100   0.7891916
  73.8204193  27.1039486  67.2276068  72.8647137  27.1501136  67.2546911
  74.0116215  26.5324497  66.4839268  49.2881680  45.7222271  74.0164661
  48.8092470  45.4780626  73.2244730  48.9513922  45.1328087  74.6912956
  89.8423136  84.8331981   1.0101957  89.0412939  84.7749358   0.4894227
  90.0143946  83.9330297   1.2864465  31.6916776 100.3701591  61.6453743
  32.2850895 100.4488182  60.8984423  31.5660930  99.4273949  61.7532635
  48.4212637  48.1658602  87.2112751  48.6499453  47.2413397  87.3071861
  47.4685431  48.1685877  87.1188068  51.1742687  48.2448196  89.4330597
  51.5585518  47.3753500  89.5452118  51.1276770  48.6022854  90.3197861
  88.6426449  72.5307274   8.2719314  88.5095787  71.6952848   7.8240913
  88.8070488  73.1569052   7.5668752  39.9916744  19.9538803  75.9558725
  40.0581503  20.8516240  76.2812471  40.2785158  20.0076723  75.0442457
  56.0936213  34.9234343  92.0795918  55.2024221  34.7640109  92.3903751
  56.6424322  34.8047948  92.8548145  54.8899317  55.4618263  64.3164444
  54.0068722  55.0945616  64.2770243  55.1463175  55.5679369  63.4003448
  55.5488873  47.5046349  83.6206627  55.4555130  48.3942366  83.2798958
  56.3242388  47.5428152  84.1806602  92.0595360  86.0835171   6.7451024
  92.4572945  86.6137791   7.4356371  91.8319988  86.7129612   6.0608071
  43.7477922  22.3982668  76.7645645  44.0295839  22.6391339  75.8820629
  44.4995213  21.9390297  77.1390438  42.9365301  32.9284382  56.9706059
  42.7136135  32.5724006  57.8307056  43.1128597  33.8550758  57.1333361
  55.7312822  30.5345130  54.7888470  54.9761295  30.8908033  54.3208361
  55.6761360  30.9217429  55.6624842  38.6581707   7.6564860  70.5135345
  38.5413647   8.4721416  71.0006666  39.2006803   7.1122515  71.0842562
  34.5705676  50.3888941  94.9955940  33.7333345  50.3018951  95.4513454
  35.2167583  50.0495148  95.6148624  74.2619562  40.6727552  85.9682369
  74.7831059  40.5655050  86.7639351  73.5253668  41.2219858  86.2365818
   6.3279092  32.6229596  82.7271557   5.5940610  32.2184825  82.2644520
   6.3020384  33.5418725  82.4603939  88.3996296 101.0003567   2.1589132
  87.6330090 101.5640354   2.0550913  89.1016865 101.5964794   2.4196741
  66.8191433  27.3570848  48.4705067  65.9798336  27.1260715  48.8685417
  66.5891647  27.6911545  47.6034784  59.4689035  45.9138584  89.5919800
  59.5438623  45.0531054  89.1800117  60.1996279  46.4162970  89.2316532
  57.7463388  97.2107983   9.4339484  57.6202679  96.5427399   8.7601215
  58.3181286  97.8597164   9.0238416  48.1707716  19.3712819  49.8473263
  48.3684063  18.5948813  50.3711319  48.4074259  19.1237664  48.9534807
 108.0421543   0.3578860   3.0309695 108.6932278  -0.2491190   3.3829424
 108.5566139   1.0180773   2.5665247  51.9780302  82.3607826   3.1044176
  51.8590403  83.3104610   3.0908650  52.6830769  82.1987724   2.4776085
  70.9465933  24.4317675  49.8323774  70.9903431  25.3877044  49.8547077
  71.2076807  24.1594410  50.7120991  42.9409552  27.8978205  94.5458317
  42.5082111  28.5377359  93.9806080  43.7836170  27.7350283  94.1219807
  88.3045101 110.2507782  12.9672468  88.5028172 110.3838825  12.0403230
  88.5910988 111.0592842  13.3920002  68.9507341  22.6881337  75.2633572
  69.4867897  23.3103132  75.7550526  68.2949352  22.3875022  75.8924723
  17.2053599  78.8666630  23.3393741  17.1935022  79.1541243  22.4264359
  16.5830743  79.4448328  23.7806320  15.7982016  72.7191639  10.1513600
  15.9105718  72.4369955   9.2436224  16.6494310  72.5594378  10.5589485
  81.3367176  66.5592575   6.5294594  80.8813095  66.8484783   7.3201472
  81.0884571  67.1992874   5.8624071  75.8849907  26.6199708  71.9014025
  75.6842518  26.5213823  70.9706974  75.6463575  27.5246787  72.1033716
  89.3613052 100.6879520  12.8023422  90.2962208 100.5655670  12.6374614
  88.9350605 100.0079918  12.2806108  28.4535456  21.8614197  96.2714577
  27.9708219  22.4089313  96.8906784  28.9837623  22.4793410  95.7681942
  88.6937046  67.8976297  16.3435590  88.5877419  68.6134386  16.9701505
  89.6235657  67.6751089  16.3891280  82.4484253  89.7159481  17.7072740
  81.9461155  90.2571201  17.0981276  83.3520031  89.7837257  17.3987639
  51.6095066  49.3400860  91.9307899  52.1772814  48.7983370  92.4788475
  50.9281111  49.6517372  92.5264359  19.2494214  37.0954943  92.4279118
  19.4131923  37.2580647  93.3568764  20.1109004  36.8889332  92.0653915
  37.9877973  20.9289670  70.8990765  37.6229119  20.9235883  70.0141668
  38.6057496  20.1980138  70.9077883  98.7765121  46.0688114  92.9561806
  98.7857437  46.2880278  93.8878918  98.1802845  46.7077684  92.5656891
  51.4442539  15.1237249  59.3064117  51.0232401  15.9612072  59.1125059
  52.3494959  15.3535879  59.5160294  52.1657896  29.9592614  77.3547792
  53.0450296  29.8265958  77.0004320  51.6129112  29.3588567  76.8547058
   6.8390459 111.0637379  58.1674671   6.9385672 110.1298046  57.9828072
   5.9159982 111.1649132  58.3998013  67.3057461  30.9111023  75.5213451
  67.7853060  30.1335263  75.8070660  67.9813766  31.5783834  75.4009485
  70.7880402  55.1983356   8.4336334  70.0285149  54.6370411   8.2777548
  70.7935524  55.3362799   9.3808252  52.0944023  25.6863427  74.3108702
  51.9652033  25.5364823  75.2473927  51.3318300  26.1990952  74.0429163
  25.7988977   0.4763418  26.3014269  26.2107658   0.7536002  25.4830599
  24.9893808   0.9851430  26.3465357  18.8173425   1.9231401   5.3241789
  19.1984808   2.2202456   6.1504316  17.8951418   2.1729448   5.3822803
  97.2782230  71.1243534   3.7113765  97.4189949  70.6737471   4.5440638
  96.3944054  71.4853001   3.7807894  59.9692011  40.8013582  62.7184486
  60.4131079  41.4553881  62.1786118  59.3257093  41.3017368  63.2202148
   6.6237825 108.4658813  57.1631193   5.6967473 108.5545540  57.3844194
   6.7672455 107.5211716  57.1066713  31.9311070  33.6375928  74.7048187
  32.0202065  33.4825444  75.6451654  31.6101217  34.5370173  74.6397257
  45.2369452  15.3932512  66.9546127  44.8990107  14.6679854  66.4292383
  44.4545317  15.8478332  67.2667217  63.9146328  44.6271467  71.3492250
  64.7426653  45.0807905  71.5067005  63.2426643  45.2631140  71.5946579
  56.9012117  37.7143049  79.9428177  56.5694761  38.3897018  79.3511915
  57.3438740  37.0893216  79.3686438  63.4113932  48.1618404  70.2880716
  64.3329430  48.2296705  70.0383043  63.1448650  47.2932959  69.9867058
  53.4054899  33.6252666  54.5097303  52.4495983  33.6623120  54.5433998
  53.6379051  34.1375828  53.7352943  36.7405963  42.5587082  95.6402302
  36.6312957  41.9519329  94.9080372  36.1946034  43.3109093  95.4115009
  75.0223351  42.1458578  70.1773596  74.7883368  41.2330246  70.3453159
  74.1875696  42.5775576  69.9956083  72.2573566  42.5913763  78.7200785
  72.3483562  41.8205547  78.1599140  73.1482172  42.9304314  78.8075113
  22.5410938 100.0833130  82.6346684  22.7967072 100.6187916  83.3857727
  22.6414180  99.1811657  82.9384613  41.2505865  24.6322799  89.5998859
  40.8523512  23.9338398  90.1193333  41.4879274  25.3021169  90.2411461
 100.6767750  94.8905087   6.4801025  99.8637295  94.6303654   6.0470575
 100.8049011  94.2330551   7.1638983  55.4594469  44.0329981  72.4209833
  55.1062632  44.9192810  72.4984074  54.7473001  43.4648705  72.7147675
  97.0223904  96.9021988  13.2727623  97.4682045  97.3568439  13.9874506
  97.5619507  97.0799160  12.5023556  97.2705173  81.6201115   0.6333868
  96.6505909  81.7432213   1.3522491  97.0996475  80.7322502   0.3191668
  85.8622551  90.9187317  33.4399033  85.9135437  91.0674572  34.3840861
  85.0878429  91.4079475  33.1620908  13.7297773  81.4155483   7.0894289
  13.5854793  81.2957859   8.0280805  13.1161547  80.8099365   6.6735798
  43.5910988  44.9763966  68.3309078  42.8467607  45.5014324  68.6250687
  43.5045338  44.1503954  68.8067818  25.9055233  48.8091230  94.6980190
  25.7959914  48.0386162  94.1407394  25.1732945  48.7659597  95.3130054
   8.3822888  34.5523548  89.0664005   8.3964670  34.8700738  88.1635857
   7.5536841  34.0789390  89.1407299  31.2043810  45.5172396  74.2448616
  30.3134680  45.2471828  74.4675207  31.3809466  46.2598658  74.8224115
  59.7924709  49.1632032  86.8048954  59.8905754  49.9663687  86.2934971
  59.5302868  49.4638252  87.6750278  45.8927059  49.3926716  64.1598082
  46.6678858  48.8877344  64.4055033  45.1796484  48.7541103  64.1640663
  37.5449967  51.1444283  71.0852003  36.9770694  51.7364454  70.5920362
  37.5902009  51.5295553  71.9603348  40.1942015  28.9748287  46.8690157
  39.8879886  29.8164701  47.2068071  40.0652552  29.0354085  45.9224749
  42.0420885  29.3363643  71.9017267  42.0382357  29.9775696  72.6124096
  42.3693752  28.5327864  72.3059273  67.4661350  38.4696150  71.6958523
  66.7756462  39.1250825  71.7949343  67.8728485  38.6755252  70.8541775
  77.0423746  99.3794155  27.2159410  77.5669479 100.0529861  27.6487947
  76.6748428  99.8182869  26.4487743 114.6641254  95.9694290  28.7773561
 115.1506329  96.2031460  29.5678687 114.8494148  96.6798973  28.1632495
 106.4346027  81.6101074  22.1525788 105.8667946  82.3292065  21.8755937
 105.8445358  80.8626652  22.2494435  32.1223783  40.0437355  76.5790033
  31.4152122  40.6809282  76.6796398  32.7148414  40.4421568  75.9414482
  73.2720566  26.4739299  63.0132103  73.2798386  27.3285413  63.4442663
  72.3938417  26.4022756  62.6392651  55.0508308   1.2610988  60.2171373
  54.9259520   2.1749148  60.4732180  54.2051458   0.9959887  59.8555183
  51.9717073  43.9684439  84.9442577  52.8486395  44.3517733  84.9610806
  51.3946533  44.7000837  84.7252941 109.7862816  99.5772457   1.6543823
 110.7381630  99.4789982   1.6320103 109.4909668  99.2424107   0.8076763
  45.3986549  28.7750173  81.1958218  46.2718868  29.1623211  81.1350155
  45.3521633  28.4277463  82.0865917  75.7788086  55.2015352  75.6618071
  76.1881161  54.3594456  75.8607578  75.4944277  55.1204777  74.7514248
 112.3584175  14.7647440  75.7527161 111.5868664  15.0517559  75.2642822
 112.4135208  13.8244128  75.5825043  45.7240295  15.8964598  69.7879076
  45.4866076  16.8155694  69.6650314  45.9378195  15.5846822  68.9085197
  96.6835308  52.8285408  16.8513131  97.1304798  53.6612463  17.0032132
  97.3669338  52.2472572  16.5177155  65.6311131  26.8141794  86.7908287
  65.0252390  26.2644839  87.2877979  65.1287794  27.0926166  86.0250854
  43.3655500  37.3127508  66.3743734  42.5447464  37.3562121  65.8838463
  43.1068134  37.4449778  67.2864056 104.0673828  84.9570560  15.7738268
 104.1961575  84.0406418  16.0184324 103.8526058  84.9281883  14.8414814
  65.4872561 102.2865391   6.3882315  66.4416361 102.3099804   6.3186771
  65.3194761 102.0135021   7.2901934  59.4972181  87.7609539  90.0004387
  59.6169806  86.8368816  89.7813988  58.8373947  87.7591705  90.6938744
  61.8650532 109.6357441  56.4725065  62.7745295 109.4732571  56.7228651
  61.9264221 110.1673222  55.6788492  66.1012125  62.5799322  92.9155922
  66.8577480  62.1068096  92.5691223  66.4428568  63.4449100  93.1421280
  44.0650606  41.2427568  66.0731792  44.9665165  41.5556765  66.1486244
  43.8642597  40.8805180  66.9361353  26.4269543  47.9179811  75.5027151
  27.0233059  48.5864735  75.1655054  25.7203126  47.8802729  74.8581457
 109.0617466  13.5053849  88.1815720 109.5850468  12.9247868  88.7341118
 108.3262634  13.7652886  88.7363243  69.8431110  14.5876658  85.1913071
  69.5593786  15.2276385  85.8441162  70.7941723  14.6892405  85.1539040
  91.1936760  93.7239456   1.2127969  91.7474270  93.5847569   0.4445370
  90.4587269  94.2436886   0.8873124  51.4316559  35.0209475  81.6170788
  51.1317396  35.9163880  81.4606476  50.8586645  34.6941829  82.3107243
  65.1782846  40.0065804  74.3121004  65.9251022  40.6052780  74.3194771
  65.5386257  39.1705084  74.6076727  54.9746752  16.1648810  95.8403301
  54.9721861  15.9394014  94.9100685  55.4638195  15.4556286  96.2573814
  24.1973591  51.9309521  87.8187943  23.6880136  52.7383137  87.7483177
  23.5431242  51.2465191  87.9593658  44.0862560  33.7137866  94.5185661
  43.6651039  32.9729462  94.9544811  44.0802336  34.4119525  95.1733685
  33.5868216   2.8762567  44.0873766  33.2513332   3.7691200  44.1678381
  33.2354474   2.4186295  44.8511457 101.2143803  73.6917114   9.4429809
 100.6294441  74.3886375   9.7402662 101.1379051  73.7055254   8.4889406
 113.1588459  78.2731628  22.5770187 113.4980011  78.7139225  23.3560824
 112.3763561  77.8144836  22.8828812  36.1344981  11.6451001  70.1052761
  35.5989265  10.9429514  70.4745770  36.2451005  11.4035809  69.1856766
  71.3287354  26.8621159  73.7495279  71.1042070  27.2905874  74.5755005
  72.2424269  26.5979648  73.8573647  81.1699772 107.6308632   3.2428870
  81.4952660 106.7311287   3.2129949  81.2743187 107.9531479   2.3476332
  78.5833883  54.9493551  72.2514153  78.3519840  55.2667379  71.3785124
  79.4509888  54.5599556  72.1424723  61.6023016  33.5532618  64.1532373
  62.1794367  34.2505217  64.4646406  62.0801926  32.7452970  64.3404293
  76.6805744  46.2828636  87.6475811  76.1021709  45.5225849  87.5870895
  77.4144888  45.9833813  88.1841564  63.4845209  58.2341194  10.6509650
  64.0574312  58.2856512   9.8858845  62.6304960  58.5244226  10.3306580
  95.8668518  66.1937857  19.6489847  96.6600990  66.2945175  19.1228127
  95.1617622  66.1143208  19.0065181  95.4237556 110.5639267   0.6529346
  96.3129425 110.8528709   0.4478057  94.9654579 110.5844116  -0.1871732
  36.7974663  36.9221759  55.5454063  36.0134792  36.4851069  55.8779240
  37.4836516  36.6926312  56.1720562  92.7323532  78.4517241   8.8531375
  92.3512650  79.3015671   8.6322969  92.7668953  77.9810429   8.0203730
   6.1381119  53.0244732   4.3523696   5.6072259  52.5171137   4.9663562
   5.7230115  53.8867569   4.3325874  31.2335777  10.9372294  49.5104361
  30.9417367  10.4387474  48.7471724  30.9078145  10.4395545  50.2603912
  46.1184168  41.4343834  92.2049522  46.2572289  41.8606043  93.0506992
  45.9378719  40.5202866  92.4241734  70.0093174  50.4449415  82.7276421
  70.8060932  50.9016132  82.4577713  69.8990440  49.7511148  82.0775127
  41.7987823  24.4932985  93.3699131  41.8821526  25.2839065  92.8367901
  41.3740110  24.7906637  94.1745090  98.7174225  72.0967197  16.4174485
  99.3683624  71.7990971  17.0530009  98.6133957  73.0304670  16.6005337
   1.6123781 110.7470131  84.6068954   1.8030632 111.0603905  83.7227821
   1.5180549 109.7994137  84.5099926  25.5436516  56.9570494  95.1745033
  25.0201178  56.2634039  95.5757523  26.0756350  57.3011112  95.8920288
  56.0791206  40.3110123  90.1665211  57.0110083  40.1002550  90.2248573
  55.8118629  40.4677773  91.0721874  48.9836311  40.6458282  73.4249973
  48.1866693  41.1326075  73.2149267  49.5240259  41.2691116  73.9105082
  72.5433874  94.6802902   1.0336675  72.4158430  95.1040459   0.1849069
  73.3339691  95.0871944   1.3881284  60.2981329  14.7425878  78.9745855
  61.0611534  14.2277193  78.7120152  60.6502295  15.6116951  79.1667080
  51.0922289  13.1798255  50.5015612  51.6105318  12.9224098  49.7391081
  50.1956415  13.2412446  50.1720285  71.4669085   3.4040397  88.0353451
  71.3693142   2.4920684  88.3092308  71.9745636   3.8118136  88.7369442
  94.2352486  96.3527298   0.6605882  94.5458317  97.2479439   0.7961083
  93.6036873  96.4240932  -0.0551423  92.4888898  52.0705512   0.2220125
  91.7212892  51.6454223   0.6044836  92.2721172  53.0028823   0.2238626
  61.8071842  50.2916718  84.5515728  61.3552427  51.0524511  84.9165344
  61.3731527  50.1347780  83.7129784  64.4352055  55.2635860  78.0462742
  63.5361290  55.0245523  78.2715702  64.8876762  54.4260931  77.9457569
  53.0660820  94.7552586  19.1416645  52.9427814  94.0739346  19.8025954
  52.1984863  94.8737240  18.7550449  56.6035986  81.3779926  17.6792467
  57.2151852  80.7176876  17.3533797  57.1266890  82.1768570  17.7457774
  41.9760180  26.9285703  75.9129667  41.2485504  27.1015406  75.3153801
  42.6741600  26.5941572  75.3499413  83.0966473  42.9869699  73.4834766
  82.9297066  43.9148474  73.6490011  84.0389919  42.8855371  73.6174297
  52.8695774  57.1585131  78.4467125  53.7073421  57.5701141  78.6587620
  52.9881668  56.8166971  77.5605249  47.6141739  42.6157856  87.1323204
  47.0065689  43.0811787  86.5574646  47.0690489  42.3035192  87.8545094
  58.9298153   3.3029148  56.2804270  59.0122747   3.2736453  57.2336197
  59.6431875   3.8741222  55.9957314  59.2007017  29.5546627  93.8369942
  58.5182333  28.9859986  94.1934872  58.7971926  30.4220676  93.8050652
  21.1110950 102.7303410  91.8172932  21.8383789 102.1650791  91.5569687
  20.8992577 103.2272720  91.0270882  78.7070656  21.4927912  80.7617092
  79.1554642  22.3357773  80.8291340  79.2692137  20.8835340  81.2402725
  36.7277551  35.5172682  94.0655994  36.2568998  36.1318803  94.6284294
  37.6418352  35.7964277  94.1181278  81.4907646  43.0351353  89.2297077
  81.9045734  43.3281946  90.0415516  81.9472599  43.5176182  88.5404587
 106.2771988  33.8722134  87.0293331 106.4828014  34.3695974  86.2377739
 107.1144295  33.7926674  87.4864388  39.7663808  49.2649460  84.0416431
  40.5998611  49.5767736  84.3942070  39.3182564  50.0584984  83.7489033
  94.6656799  71.9252539   3.7561765  94.0663624  71.2230444   3.5033020
  94.1923618  72.4129725   4.4302198  38.4167492 111.4164840  80.3891468
  38.0476200 110.7218940  80.9346008  37.6546204 111.8921532  80.0587940
  62.9378176  33.6465788  83.6933708  62.6636887  33.7163424  82.7789211
  63.4391451  32.8320622  83.7316513  70.9407949   6.9710088  80.3882313
  70.9997177   6.0530055  80.6528664  70.2661467   7.3414850  80.9572887
  78.0767679  24.8360634  76.4643621  79.0290689  24.9283338  76.4934206
  77.8049040  25.3881502  75.7312059  62.3173237  35.6763196  96.1398029
  63.2548094  35.4908609  96.1941814  62.2285223  36.5647650  96.4847851
  15.3457952  56.9669628  59.6815825  15.9409881  56.8045902  58.9497280
  15.5819583  56.3069105  60.3333426  49.0992498  43.0842972  90.1206303
  49.9933910  43.1939363  89.7970295  48.5911942  42.8469563  89.3448830
 109.3979740  50.7615042  14.3329358 109.0409660  51.0647154  13.4981644
 109.4142151  51.5435219  14.8846769  63.0065584   7.3084646  91.1407852
  63.7303591   7.8227854  91.4982986  62.2889709   7.9354572  91.0503101
  70.0856733  18.6548197  74.2513132  70.3944159  19.3176770  74.8689938
  70.3897095  18.9628994  73.3975697  88.9652443  80.3346252   4.5735216
  89.7507000  80.1519012   4.0578580  88.7198162  81.2267017   4.3281758
  48.1082869  12.1578705  87.5535011  48.1723309  11.8861687  86.6379070
  47.2771597  12.6298165  87.6057148  51.1566448  22.6031852  61.6608906
  50.7448483  22.6245356  62.5247192  51.0747385  23.4992123  61.3343000
  35.0260019  40.2233839  49.5908976  34.3500018  39.6828914  49.1820860
  35.0915742  40.9930754  49.0256500  56.3862610  43.0251789  89.1345119
  55.8817625  42.2630310  89.4188499  57.0155096  42.6743364  88.5042858
  42.7608156  33.0746770  65.7947350  42.5438547  33.6188865  65.0377703
  43.1377792  33.6850858  66.4283991  80.9372139  80.8155632  12.4178600
  81.2507248  80.0841999  12.9498863  80.4271603  81.3519192  13.0248165
  20.7340956  90.9805584   4.6124229  20.3501773  91.7695332   4.2298707
  20.7526064  91.1552143   5.5533701  68.7978172  23.2062435  43.7243795
  69.5521927  22.6181102  43.7596226  68.6187220  23.3103418  42.7898645
  60.7510662  30.2963901  95.9276867  60.1717758  30.1153970  96.6678905
  60.2047443  30.1519680  95.1550961  68.1440258  23.3707976  82.7193165
  67.6534748  23.5524797  81.9177055  67.6595306  23.8293886  83.4057522
  27.3766303  43.9959621  59.3046093  26.6561484  43.3882141  59.1379213
  27.5904679  43.8662720  60.2285576  77.7266466  28.4427304  96.0817229
  77.1150553  28.6122937  95.3651797  78.1469786  29.2874856  96.2428045
  26.7382050  29.1326737  78.8142538  26.3176274  29.0046501  77.9639816
  26.1253071  29.6805739  79.3045521  80.6417179  72.2303724   8.9268953
  80.0489521  71.6750288   8.4204835  80.4570198  72.0081949   9.8394495
  59.6443987  53.9441204  79.6932554  59.6173811  53.7477970  80.6297207
  59.1864586  54.7805929  79.6105909  62.0819235  36.4725685  76.2036657
  62.6234531  35.7815862  76.5851355  61.9602108  36.2059164  75.2924538
  91.7613888  33.3123875  64.8115396  91.5272141  33.6784124  65.6644297
  91.2403965  32.5123167  64.7430468  87.1486759 109.0050316  49.1197491
  87.0650864 108.0527306  49.1684246  86.5532017 109.3325043  49.7938442
  96.4623260 102.0550632  12.3376107  97.0927143 102.5334835  11.7991376
  96.6176414 102.3724556  13.2272005  46.5892792  42.5321388  72.9513407
  45.7410717  42.4723959  72.5117826  46.4713478  43.2194185  73.6070633
  50.6356525  45.4790688  65.4895496  50.8137035  44.8085928  66.1490917
  50.4821205  46.2773561  65.9949160  39.2018294  24.2795491  52.6029730
  38.5953951  23.9706087  53.2760429  38.6620617  24.8157620  52.0221472
  68.4658301 110.6440055  81.7974377  67.5438940 110.7548586  82.0297718
  68.5608732 111.1087699  80.9660530  16.0018587 110.2890301  19.8512292
  15.2806044 110.7655334  19.4401777  16.5921891 110.9733868  20.1664901
  30.0508046  30.2649975  63.4491205  30.7695293  29.9998379  64.0230131
  29.4368505  30.7174253  64.0275669  78.9928913  90.0745010  12.6673949
  78.4403038  90.2986431  11.9186354  79.7203207  90.6950378  12.6224887
   4.9297974 107.8310680  24.2400217   5.2523780 108.5585403  24.7719717
   4.0035295 107.7583599  24.4701791  62.7897310  36.4068460  83.5462379
  62.3239183  36.8813086  84.2348099  62.8436279  35.5074787  83.8694572
 105.7226753   5.5260634   6.3648319 105.0613022   4.8788956   6.6097575
 105.9875488   5.2747649   5.4800004  99.8483753 104.9334526  12.2919333
 100.2646828 105.7247925  12.6335502 100.5731869 104.3256283  12.1455467
  34.8938274  38.7534332  92.2686577  34.1320205  39.2422485  91.9573021
  34.5601726  38.2273245  92.9953766  65.5849361  20.6507635  82.5190258
  65.2509356  21.2528491  83.1839848  65.8985472  21.2200427  81.8163204
  44.3813181  26.3650417  70.4340172  45.0339270  26.8573022  70.9320259
  43.8639975  27.0359182  69.9884415  56.9905806  45.2152824  90.7097721
  57.7974224  45.3829432  90.2228165  56.6231060  44.4312429  90.3017616
  55.9853125  37.4211621  86.2568283  56.5676594  37.4680495  85.4986095
  55.1552677  37.1028066  85.9019947  84.4511700  79.1986752  87.1894360
  84.6270561  79.0631104  88.1205177  84.7668457  80.0848484  87.0125961
 117.1906090  68.2505989   4.8108500 116.3010216  68.5984373   4.7486112
 117.3765850  68.2351017   5.7496822  76.6741705  47.9401731  75.3421926
  76.7398167  48.7325859  75.8751106  77.3399639  48.0520439  74.6636343
  51.7922401  77.6466942  48.8616133  51.4776659  78.5243702  49.0783072
  51.8331623  77.1923828  49.7031355 103.1083775  99.1767788  17.6233077
 103.2655907  98.3696747  18.1133032 103.5416603  99.8576832  18.1379604
  20.8962893  19.4315243   8.9825153  20.3989983  18.8996398   9.6038312
  21.5840745  18.8471031   8.6637127  72.8502941  40.9595156  64.5434666
  73.4649134  41.0833597  65.2667522  71.9866800  40.9900475  64.9551296
 114.2519760  90.9050274   5.2913833 113.8159752  90.8172417   6.1389869
 114.0182590  90.1065826   4.8179877  82.3937130  38.9351583  87.6433372
  82.8635597  39.6499276  88.0729675  82.9225826  38.7302303  86.8722725
  80.5146694   3.8126278  90.5114460  81.2006092   4.4533664  90.3238964
  79.8902559   3.9129692  89.7929287  80.7677174  37.4097323  80.4440784
  80.7670593  36.5086341  80.1211929  79.9621105  37.7901578  80.0940704
  93.2223701  40.2129555  68.5633802  92.3760319  39.8977613  68.8805628
  93.6128712  39.4546390  68.1289959  99.1379154  75.3219240  -0.1069766
  98.2558525  75.5118387   0.2125997  99.4636858  74.6397584   0.4801816
  75.1001835  52.4088144  77.0034266  74.8412514  51.5102243  76.7991543
  74.6042252  52.9470873  76.3865709  84.6242619   7.0628309  85.0033569
  84.9209595   7.6046497  84.2721653  84.1845512   6.3206685  84.5885277
  69.4716644  46.9412899  91.2210655  70.2253819  46.4500713  91.5479374
  68.7450314  46.6645575  91.7793274  64.0817022  37.9801774  86.7318916
  63.4589386  37.3081040  87.0088577  64.5365906  37.5918126  85.9845734
  54.3627691  59.6856689  76.1647558  55.2760410  59.4859791  75.9591103
  54.2929125  59.5422935  77.1085739 112.4539852  94.3100739   9.2828256
 112.1913815  93.4091568   9.4715476 111.6592598  94.7262764   8.9490432
 115.6736755  98.9612198   2.0023407 116.3605404  98.8592815   1.3435137
 116.1262798  99.3167496   2.7671790  90.8049774  54.2227983   5.6229019
  91.4134789  54.5637894   6.2784076  91.3237095  53.5973310   5.1169938
  77.5464821  65.0828791  90.2638531  77.6471806  65.8753872  89.7365761
  78.1719351  64.4637012  89.8874664  59.1112852  66.3701630  80.4538059
  59.6941137  65.8879757  81.0403538  59.6974611  66.9137573  79.9273682
  60.7599783  67.0275497  90.8244419  61.0208941  67.9161596  90.5825233
  61.5624619  66.5120125  90.7439613  61.2396526  46.5590620  69.4766188
  61.0595036  45.6875658  69.1240835  60.4168224  47.0359993  69.3683863
  72.1387243  67.8981256  53.8962221  73.0749893  67.7223349  53.9897013
  72.0949697  68.6668539  53.3275604  85.2397346  77.1986914  92.5038719
  85.2160358  77.9427433  93.1055832  84.8324299  76.4829826  92.9918289
  92.1720600  66.1385012  90.1346302  91.4202118  66.5995693  90.5066013
  92.5019836  66.7270327  89.4556427  61.1756277  28.6005735  92.2770405
  61.3760948  27.9311967  92.9312420  60.6235218  29.2304897  92.7403069
  42.5233507   7.7570981  84.0858650  42.6562357   7.2586888  84.8921967
  42.0451546   7.1595436  83.5109806  78.1835079  42.2713041  74.5999479
  79.0679026  42.3188353  74.9630213  78.2751131  42.5933170  73.7032032
  64.4755125  57.3493242  64.2482948  64.6793222  58.1597662  63.7815237
  65.2781391  57.1396399  64.7258472  50.9724140  38.7271094  76.7912245
  51.2589598  38.8867712  75.8919859  51.3156652  39.4701672  77.2874832
  56.1619616  55.9677887  77.5715542  55.3167152  55.7539129  77.1765137
  56.7999029  55.4791069  77.0514965  97.6313972 110.0564003  14.5417738
  97.8981972 110.5283546  15.3306401  97.4790478 109.1594601  14.8392892
  99.8190594  58.9692116  68.5090256 100.2880383  58.2825756  68.0348730
  99.5165539  59.5679808  67.8262424  26.9011664   0.7892143   4.3497679
  27.1864080   0.5896650   3.4581128  26.1516500   0.2121546   4.4962582
  86.6474628  39.2203879  92.4339008  86.9186115  38.7542939  91.6430378
  85.7131004  39.3846798  92.3066235  56.3812923  23.6784124  91.8654251
  55.4947329  23.4107375  92.1074867  56.5235281  24.4956756  92.3430061
  73.4813929  30.4598641  73.7489080  73.6474705  30.8326626  72.8830719
  73.8249397  31.1114717  74.3601513  73.2473564  54.3969011  71.1442041
  73.6741066  54.3911839  72.0009899  73.4751272  53.5514212  70.7575321
 115.9863853  50.0137186  12.4851429 116.3175869  50.8812666  12.7172971
 116.1619568  49.4758224  13.2572031 109.1979885 105.4209995  35.2121401
 108.9934540 106.2619019  35.6211352 108.6947918 105.4220009  34.3978763
  83.7744045  55.1440573  70.6388855  84.1445160  54.6977091  71.4004803
  84.2800331  55.9535933  70.5665874  89.3319511  51.0132408  81.7661953
  89.4015980  50.0679398  81.6328239  89.3514919  51.1230803  82.7168751
  85.4388142  38.6855531  76.9906569  85.4274845  38.9468622  76.0698891
  84.5167923  38.5610437  77.2156477  69.1343260  41.8147659  86.7687225
  68.4733868  42.2937918  87.2686481  69.5760632  41.2677765  87.4182606
  36.7454028   3.1811887  39.7030973  36.7924190   3.6320779  38.8600564
  36.5306878   3.8703996  40.3316832  89.4233513  62.1321392  85.2449322
  89.7086811  63.0457640  85.2554607  90.2056122  61.6341639  85.4822445
  70.1991463  43.3082581  95.3662491  70.2646732  42.8576326  94.5242977
  69.8525858  44.1735315  95.1484680  29.3988609  98.8718510   6.3982314
  30.3309703  98.6890221   6.2800026  29.0724182  98.1311417   6.9091308
  69.3560743  56.3618231  87.9441643  69.8108292  56.2373161  87.1111393
  70.0412655  56.2732697  88.6066628   8.4556699 103.5116577  13.2718396
   7.9486966 103.9583111  13.9498639   9.1423821 103.0489445  13.7519944
  67.4381304  61.3529587  85.2813148  67.9247284  61.7802477  85.9862137
  66.8561506  60.7394075  85.7297421  44.5355415  39.7833490  81.7583084
  43.7135601  40.0646400  82.1601295  44.6271324  40.3402948  80.9852314
  13.3878863  63.9663696  23.0614853  14.2368388  63.8854361  23.4961843
  12.7575576  64.0374517  23.7783289  85.6658268  49.5242643  83.9375782
  85.1202393  50.1931810  84.3512440  86.2022686  49.1780424  84.6507359
  55.6916714  14.7144711  48.9144564  55.9858990  15.1051545  48.0916405
  55.6811523  13.7729430  48.7422752  66.5107346  34.7818446  76.6797066
  67.2736692  35.2840996  76.3935137  66.6103125  34.7152662  77.6293802
 109.0924072  91.4008427  15.5212736 109.6043396  91.3393307  16.3277352
 109.7438526  91.3660336  14.8208165   0.6159260  99.3008232  13.5676003
   0.3546936  99.9399567  12.9046524   1.4643380  99.6140957  13.8811183
  56.2142277  66.5601587  62.5052786  55.4553366  65.9884834  62.3890734
  55.8419371  67.4376678  62.5925255  91.0285950 108.3107281  11.8873179
  91.6443539 108.8776970  12.3516619  90.8196354 108.7899780  11.0855162
  91.0923672  51.8065071  70.5104208  90.2646065  51.4678764  70.1692677
  90.8354568  52.5044203  71.1130381  84.9504185  29.9552250  86.5775204
  84.7799873  29.3037581  87.2577953  85.0094318  29.4469666  85.7685566
  21.8935466  12.3068535   0.8917563  21.1809969  12.1519041   0.2716794
  21.6559410  11.7922783   1.6631107  25.3083205 106.8579960  64.8793745
  26.1224794 106.3580132  64.8210812  24.9831629 106.6840553  65.7626963
 109.7334003  78.7146378   2.1952112 109.6869659  78.9709044   1.2741232
 109.1939163  77.9259825   2.2518894  76.5465736  15.5875063  83.5927105
  77.0336723  15.0344038  84.2034817  75.6746435  15.6623363  83.9804935
 112.0467854 101.3636971   0.9870239 112.9859924 101.4123344   1.1652642
 111.9554520 101.6918850   0.0924947  83.1308842  36.0448575  70.2224016
  82.5462818  36.5792537  70.7598925  83.9033318  36.5943503  70.0896883
  66.8162632  49.3066502  71.6950417  67.6828718  49.6130896  71.9620991
  66.2161827  49.9844074  72.0061350  86.1265564  79.9456310  61.9299269
  85.3368950  79.5090151  61.6104984  85.8883381  80.2647686  62.8003502
  57.4708796   8.8017374  71.5122604  57.7365208   8.3412558  70.7162571
  56.7273045   8.2981199  71.8434668 103.2515335 105.0080395  43.0173349
 103.2497311 105.9482765  43.1967306 102.4324989 104.8523712  42.5470448
  95.5994701 102.9631996   3.5803011  96.5005875 102.8071308   3.2977310
  95.6676197 103.6764336   4.2150298  62.0114517  44.5808315  67.4176741
  61.3104296  44.8024893  66.8047523  61.6337585  43.9035034  67.9787493
  96.9839478  66.7039919  79.7879267  97.0161152  67.5737715  80.1862812
  96.3579845  66.7927170  79.0692282  57.8298664  47.5427580  85.6723118
  57.1816826  47.3010063  86.3338566  58.5783482  47.8626060  86.1760044
  74.3736315   9.0168077  95.7299137  74.3857861   8.5701799  96.5764332
  74.5650864   9.9311227  95.9387302  59.0043068  63.2285929  90.3593636
  58.6333704  64.0870142  90.1550388  59.1996193  63.2687521  91.2955570
 113.7728214  92.0082664   0.2849340 114.0288639  92.5485897   1.0324202
 114.4815254  91.3710308   0.1960909  43.5224867  76.2689638   2.7301833
  43.2253933  76.6621113   1.9095743  44.4208431  75.9911680   2.5512287
  69.0781164   8.1852657  81.9015217  68.8860703   8.9636576  82.4244499
  68.9142847   8.4570080  80.9984493  62.9300785  56.4689207  73.5677910
  62.9617453  56.7549086  74.4807196  63.2585382  57.2180176  73.0706024
  80.6579781  62.8334284  75.0551176  80.6416512  63.7904644  75.0617075
  80.2292728  62.5922155  74.2339849 103.4342098  64.0806437   9.3440109
 103.7369823  64.7460508   9.9619055 102.5097656  63.9568949   9.5592302
  74.5825720  57.2960949  77.5737429  75.0756216  56.8745422  76.8698835
  75.1579332  57.2391653  78.3366013  52.5736523  36.4489412  92.8325939
  52.2561026  36.9120097  92.0573807  53.3613968  35.9943962  92.5341320
  65.2154589  57.2677898  86.5671062  65.7344913  57.3036623  85.7636547
  64.7489786  56.4336491  86.5138721  69.1557169  57.4581385  91.7717075
  69.7910166  57.8895187  91.2002754  69.6756935  56.8379879  92.2828484
  58.3877802  76.2395668  60.9978962  57.8612995  75.5905628  60.5311584
  57.7848625  76.9650364  61.1604214  72.1841145  58.9074850  74.5558929
  71.9496059  58.3350086  73.8254738  71.4154005  59.4641113  74.6803093
  62.8010798  65.2578402  90.2396679  62.8428698  64.8265362  89.3861675
  62.4286366  64.5973301  90.8238220  56.7954731  65.4802647  95.7794120
  57.0603669  65.2648476  96.6736480  56.5100956  66.3926753  95.8273672
  64.5585728  49.0903521  80.8440399  64.3678904  49.0172195  81.7791939
  65.3335190  49.6505451  80.8007050  58.9402008  63.6640167  84.7233963
  58.8244867  62.7576685  85.0086689  59.2456961  63.5933113  83.8190174
  95.6561470  57.4688482  23.0757451  96.6119003  57.4245453  23.1041026
  95.3828621  57.3283339  23.9822793  77.9414368  31.8234539  82.2462845
  77.2941589  32.2037792  81.6524696  77.8769350  30.8799505  82.0983791
  32.9624462  19.9396765   3.9375013  33.3569765  19.0836561   3.7707466
  33.6879230  20.4813433   4.2481637  27.2159958  10.4617417   6.3565975
  26.6851258  11.1535442   5.9618580  28.0575991  10.8799207   6.5384269
  18.4831369  13.5782611   6.8437088  17.9669178  13.7466979   7.6319844
  18.1993556  12.7118301   6.5521669  76.9597530  49.4737196  68.6649513
  77.3877764  49.1937208  67.8558588  77.4975204  50.1994991  68.9816284
  31.9198179   8.1616509   7.4428529  31.0416794   8.3641881   7.7654731
  31.7958570   7.4049956   6.8698448  58.9367771  40.7168198  77.9729414
  59.7188568  41.2686396  77.9814816  58.7858820  40.5009747  78.8931990
  81.2065697 100.7877064  52.9038763  81.0676098 101.6012859  52.4190950
  80.5674839 100.1774788  52.5358820   7.1902055   4.8230827  10.3917742
   7.5193965   4.1090912   9.8458058   6.4306605   5.1582819   9.9153644
  85.7135773  66.9450808  88.8242054  85.6684208  66.1710882  88.2628536
  84.7991943  67.1790361  88.9835930  68.0635548  44.2951822  66.1145639
  68.8334990  44.8466301  65.9755802  67.4906254  44.8202229  66.6734171
  38.4659052  15.2419996   8.1837744  38.8910484  15.5999613   8.9631009
  37.9492617  15.9694970   7.8372824  69.2362309 102.1288586  61.3951778
  68.7618780 101.6945934  62.1041489  69.3173790 103.0381298  61.6830587
  64.0538323  71.3615593  96.3796859  64.1238988  71.9549951  97.1274535
  63.1906140  71.5445563  96.0087471  76.0205173  68.8759327  85.1329899
  75.4763317  69.6601152  85.0612164  76.8436289  69.1891003  85.5080032
  70.7583380  91.9674587   3.8644779  71.0503864  91.1225796   4.2067003
  70.1497507  92.2964001   4.5260274  56.0063219  58.8423777  82.7958488
  56.4029360  59.7120094  82.8474998  55.2167130  58.9069653  83.3330536
 101.4959145  36.7373061  81.3311958 101.8908310  35.8745599  81.2049294
 101.1917400  36.9913268  80.4598808  49.2681265  38.7494349  67.0252275
  50.0382757  38.1816435  66.9985056  49.4705677  39.4566178  66.4127398
 102.9339314  82.9408455  55.7784891 102.4784279  83.7624645  55.9620237
 103.7991142  83.2103443  55.4701662  98.9662838  98.2083416  27.6389170
  98.1892300  98.1339645  27.0849419  99.5340443  98.8228512  27.1738744
 108.0358028  96.8595600  13.9267957 107.3197174  96.2684536  14.1592634
 108.6043644  96.8614769  14.6968424 111.8685246 102.1636009   4.8978060
 112.7201748 102.5894928   4.9954489 111.5258884 102.5002766   4.0698668
  95.8438969  59.0201283  60.6422138  96.7934990  58.9260530  60.5671835
  95.5300236  58.1363201  60.8335304  72.2068024  56.0353327  76.4758968
  72.7607822  56.6007948  77.0140266  71.9939518  56.5678024  75.7094717
  89.4711208  40.4246235  75.3668165  88.9649105  39.6487403  75.1260233
  88.9914227  41.1545849  74.9753094  67.7101803  58.1400919  74.5103931
  68.2058573  57.6371193  75.1565790  68.3787584  58.5773420  73.9830923
  89.2449379  37.5509119  80.1706409  88.5618210  37.7049088  79.5180559
  89.4842052  36.6314030  80.0545025  91.0774803  22.4852300  93.5748100
  90.1797867  22.3265147  93.2829285  91.6230679  22.1646619  92.8566170
  82.5533962  88.3405590  36.1702800  81.8687534  88.5830498  36.7937303
  83.3439732  88.2566357  36.7033672  86.8383121  92.4620628  19.8857522
  86.1507034  92.1673203  20.4828739  86.9057941  91.7635822  19.2347467
  34.7536635  45.4237223  66.6264439  33.8187218  45.2890682  66.7813206
  34.9399328  46.2788582  67.0140982  68.8562393 101.2850475  45.6611824
  68.9487362 102.1172237  45.1973200  68.1683874 100.8203506  45.1845884
  51.6986799  40.6866693  78.3343458  51.0250378  41.2962103  78.6358452
  52.1619129  40.4283667  79.1311693  35.1452494  39.6239758  82.3626995
  34.9110270  39.4478703  81.4514542  34.4153619  40.1421833  82.7017498
  53.5082972 111.0807070  92.6276016  53.7980044 110.1762276  92.5083637
  53.3885634 111.4131019  91.7379856 105.8467293  92.3850346   5.1561254
 105.9474182  91.5351295   4.7274476 105.1104355  92.2650528   5.7558739
   4.5462361 103.0813789  40.8918381   5.3863299 103.0020142  41.3436937
   4.3293044 104.0117836  40.9512138  93.7938023  32.9377723  77.1282482
  94.5392799  33.1206036  76.5563440  94.1830349  32.7961302  77.9911900
 109.6158981 108.3933544   3.8135046 108.9628029 109.0359306   4.0906367
 110.2768135 108.9080524   3.3503479  77.0425367  60.7543325  76.5015030
  77.6296520  60.0351000  76.7343855  77.3735714  61.5036440  76.9966602
  68.2873487  36.7791486  67.6760149  67.4790430  36.3222361  67.9086256
  68.3730650  37.4659061  68.3372641 101.3320446   5.6047070   7.4689072
 102.0906067   5.0487703   7.2907257 101.5689278   6.4572930   7.1039200
 103.7475204  42.5262594  72.8357553 103.2307434  43.1380320  72.3114347
 103.1053257  41.9082546  73.1848812  73.1382084  77.8376579  94.2185593
  72.6479483  77.9156303  93.4001446  72.4882174  77.5528526  94.8609161
  77.2862339  58.6585045  81.3395214  76.9271374  57.8800869  80.9136677
  77.6335955  59.1861916  80.6204128  63.6918497  57.2488117  76.3820410
  63.6839867  56.4218044  76.8639421  63.1240940  57.8277874  76.8906450
  79.3045807  58.4311628  69.4032621  78.9619160  57.5439835  69.5115137
  79.1753483  58.8436985  70.2572775  97.0703983 107.6229095   9.7773832
  97.8314686 107.0501041   9.6830004  97.1149635 108.2070827   9.0204227
  79.8519182  48.3434105  91.3921738  80.2763176  49.1829872  91.2154770
  79.1631222  48.2792854  90.7306004  81.6345787 101.5631962  20.3469563
  82.2236919 101.0446262  19.7989976  81.5169430 102.3814964  19.8644722
 110.1791859 106.9526100  23.3549500 109.8083305 106.1310768  23.0328226
 109.9569416 106.9669819  24.2858815  64.6184301  17.1066511  72.0183372
  65.3269625  16.4698815  71.9248486  65.0580788  17.9190421  72.2692585
  99.4745445 107.3816204   4.0630460  99.0031624 106.8501377   3.4215194
  99.6296597 106.7882919   4.7979885  56.1633539  81.5154171  92.5688362
  56.7969561  81.3476372  91.8712425  55.3723001  81.0542679  92.2898960
  72.2360134  49.9487734  78.4649229  71.4411736  49.6699858  78.9196110
  72.5925827  50.6480265  79.0127659  71.1232662  19.5186472  78.1258774
  70.7820654  19.3330979  77.2510147  71.3007593  18.6563444  78.5015917
  41.8934345  34.5955992  82.5721264  41.2548590  35.2592325  82.8329849
  41.9597864  34.6875811  81.6216755  88.2438278  68.2067204  20.6408429
  87.4035645  68.4649467  21.0196614  88.4887981  67.4145365  21.1190319
  58.9268208  34.2186260  73.4547234  58.3389616  33.5451078  73.7968206
  59.6908522  34.1845202  74.0303278 117.1034813  49.1262865  56.9594049
 116.6821671  49.2625380  57.8080273 117.4895954  48.2526016  57.0212173
  45.0366461  23.2466883  95.9873913  45.4536307  22.4923701  95.5710330
  44.6267473  23.7226815  95.2651423  87.8983307  57.6218271  87.5649452
  87.8994274  56.6999674  87.8226280  88.7586403  57.9460239  87.8313923
 100.7287502  56.8396664  39.7937560 101.2818813  56.2648058  39.2647839
 101.3375282  57.2754145  40.3901958  43.5811901  27.0967984  73.5980129
  44.3978119  26.7759347  73.2153797  43.8353682  27.8841090  74.0794373
  41.7286158  31.0379934  73.8560200  40.7812500  31.1297655  73.7545156
  41.8424940  30.6963563  74.7428942  44.0576220  13.6651134  13.6648631
  44.5710135  14.1909325  14.2781937  43.1470203  13.8502586  13.8945627
 104.1234398  54.3139887  84.4506836 103.8740826  53.8928127  83.6280823
 104.6782398  55.0475788  84.1856003  64.3580246  49.0994072  85.6873894
  64.2952156  49.5615435  84.8514938  63.4720278  49.1349936  86.0479069
 102.8197098  38.2679391  86.1447525 102.0364189  37.7365088  86.2871361
 102.9424858  38.2640409  85.1954651  62.0482254  51.8818331  92.6839161
  62.1948385  52.0150614  91.7474461  62.6557159  52.4866104  93.1098747
  94.1663551 106.3181210   3.3942065  94.5927715 105.9315205   4.1590196
  94.8305416 106.8937683   3.0151165 101.3075352  88.7529755  13.7987947
 101.9697762  88.3303642  13.2519388 101.7715549  88.9797688  14.6046984
  61.0707378  15.1152766  75.9511232  61.8730927  15.2061844  75.4371262
  60.6284714  15.9588265  75.8559608  64.3213081  59.8712778  93.8977242
  64.2420292  59.0749550  93.3725357  65.2491808  59.9143600  94.1288757
  63.0178738  47.2366190  66.4725733  62.6607609  46.4834785  66.9431877
  62.6020765  47.9947472  66.8831682  71.8079329  78.4046221   1.4498426
  71.4065313  77.6921320   0.9523843  72.7360392  78.1742191   1.4918160
  60.1245308  43.6126709  88.2726955  60.8582830  43.0274582  88.4607697
  59.7786760  43.3019018  87.4360180  51.5597200  21.2763476  64.9589682
  50.8171129  20.8625913  64.5190001  52.3300362  20.8680582  64.5638227
  69.0712118  50.6853247  72.5677490  68.5831070  51.5081167  72.5993013
  69.7533989  50.7859230  73.2316303  70.8858299  73.9667082  92.3034668
  70.5989742  74.8746872  92.4009895  71.0598898  73.8697672  91.3672256
 113.9055824  30.3332138  78.8637257 114.2963791  29.9818683  79.6637630
 113.1034374  30.7644725  79.1583872  94.7392941  73.1863356  49.7771311
  93.8849926  72.7551746  49.7995901  94.5363617  74.1214466  49.8019505
  60.5418015  36.8647051  70.2663803  61.2913609  36.2736511  70.1953459
  60.8930874  37.6469564  70.6917238  67.9254246  53.6985493  79.7668743
  68.1885386  52.7799320  79.8229790  67.0019913  53.6990213  80.0188732
  62.0402193  41.7868233  88.3937168  62.8313208  41.4322424  87.9879379
  61.3567066  41.1511850  88.1815720  71.4012718  62.3047304  67.4545193
  71.4039803  63.2266188  67.1969509  72.3105478  62.0243168  67.3505163
  60.8596325  51.8598413  63.9644003  61.0748196  50.9825516  63.6477089
  59.9611616  51.7847395  64.2858648  66.6037655  27.1326113  69.2367363
  66.5402651  26.3121557  69.7256660  67.4849367  27.4558139  69.4246292
  95.9186077  85.2830124  40.5811214  96.7483521  85.6442451  40.2692461
  96.1513615  84.7964096  41.3718605 109.2220116  10.3836787  45.0991774
 109.0174580  10.7369757  45.9649563 110.1634121  10.2126467  45.1265860
  74.4755316  25.8123732  90.7188129  73.5340643  25.6861973  90.8369255
  74.7757673  25.0026679  90.3059387  63.0220747  85.6309605  58.1434631
  62.7047682  86.5089130  57.9319429  63.5039377  85.7414532  58.9631176
  77.2172117  45.9040689  93.5808086  77.7089834  45.3174877  93.0060768
  77.1091509  45.4087877  94.3927479 111.1217499 106.1986446   5.3215170
 111.6310024 105.6905937   4.6900353 110.4537392 106.6362476   4.7937852
  89.4343090  18.5246706  51.9751596  89.7406483  18.3104336  51.0939741
  89.4159794  19.4814610  51.9963455  99.5808029  86.1883545  13.6067903
  99.7501659  86.7487526  14.3640864  98.6567879  86.3334370  13.4033453
  85.7040119  42.9461956  89.0885353  86.6001320  43.1746912  89.3355179
  85.2503490  42.8210783  89.9220562 108.5124969  93.8747787  23.7583089
 108.9508915  94.5706081  23.2685614 107.7123833  93.7005234  23.2626271
  92.2564983  91.7159367  86.7805958  92.1614170  90.8505535  86.3827229
  91.6541862  91.7050266  87.5244617  53.9256430  34.3111134  76.2449169
  54.7465849  34.3436527  75.7537651  54.1139698  33.7385917  76.9885492
  71.6985178  68.7171984  73.1748152  71.5384197  67.8291988  72.8553581
  70.8886051  69.1901827  72.9836082  72.8230858  55.5471087  66.9074488
  73.6465883  55.1104450  66.6897345  72.3021984  55.4891396  66.1064816
  85.6725216  54.4920301  81.1969852  85.2119923  55.2524853  80.8422279
  85.7404900  53.8871050  80.4582882  69.2584038  47.9316473   6.2025768
  69.9141407  47.2503948   6.0537922  69.6120739  48.4508753   6.9247597
  18.3027196 106.1343288  18.2571733  18.0588281 106.7893505  18.9111507
  17.7091515 106.2955666  17.5237501  56.9033861  60.6935120  67.2133398
  56.5341520  61.4677620  66.7885637  56.7585230  59.9845552  66.5867472
  55.7454634  69.6991825  81.6168213  55.9996080  70.4205322  82.1924019
  56.2030792  69.8759651  80.7948875  63.7944031  87.3972702  66.7952156
  62.9749966  86.9783878  67.0585394  63.9695597  87.0517063  65.9199238
  90.4689789  67.9847145  78.8198328  90.3529358  68.6106920  79.5346165
  91.2568283  67.4950123  79.0558577  66.8467236  33.8984823  71.5106487
  67.1508741  33.0829263  71.9088936  65.9156084  33.9389086  71.7288780
   3.1313157  57.8508949  73.9486742   3.6666945  58.5298061  74.3593836
   2.8333169  57.3070860  74.6778536  22.9746389   2.9899213   2.7168301
  23.6959791   3.5917330   2.5331900  23.0328488   2.3287398   2.0271328
  66.6062021  73.5324621  83.5105896  65.9060287  73.7218714  82.8859997
  67.2461939  73.0289268  83.0075073 110.9218502  92.9774094   6.6506344
 111.3504601  92.1412945   6.8334776 109.9918461  92.8076839   6.8007207
  26.9703341  19.7469306  34.6041584  27.8564525  19.9279833  34.2907119
  27.0265126  18.8724196  34.9892616  87.4583149  72.6290035  81.0014248
  86.7138863  73.0750275  80.5975437  88.2041740  73.2035589  80.8288002
  77.8980541  82.8445339  78.3407974  77.6127052  83.4720421  79.0049076
  77.5263834  82.0094585  78.6249495  34.2794085  30.8530521  15.5630279
  34.3041158  30.5028129  14.6725488  34.1428399  30.0856018  16.1185467
  73.3313417  50.1691437  75.8882284  72.8196096  50.1104307  76.6950178
  72.7039957  50.4625797  75.2275038  87.4602032  89.5851898  90.6017876
  88.1213379  90.0085163  91.1494541  86.7738724  90.2448750  90.5017948
 110.6637001  57.4804831  61.2767220 110.9352016  56.9355059  62.0153093
 109.7458267  57.6853800  61.4549160  72.8037834  69.8453093  75.5350780
  72.5975084  69.4753170  74.6767139  73.6597490  69.4776058  75.7549667
  98.0837822  22.7286315   3.4359425  97.7454853  23.4219050   4.0026483
  98.2862949  22.0085478   4.0331888  55.2605438   1.5191565  82.0638466
  54.8740959   1.9336157  82.8352833  54.5146561   1.1485426  81.5921211
  83.8900757 103.2045555  28.5540771  84.5730305 102.9395294  27.9379964
  84.0596676 102.6829910  29.3385792  45.9521770  34.6227360  11.3418031
  46.5465117  34.7076821  10.5962920  46.1589193  33.7665653  11.7165852
  84.2396927  85.9310055  49.8394012  83.3246994  85.9625053  50.1187468
  84.2984867  85.1422882  49.3002272  90.9666252  73.7526178  57.0891809
  90.9525394  73.2151604  57.8811216  90.5789948  73.1951666  56.4144754
  34.2662024 108.3566284  18.4961855  33.7520885 108.0885410  17.7345741
  33.9371157 109.2291260  18.7122369  32.8307319  16.7238414  22.3920512
  33.2447147  17.3745620  22.9589844  33.4969044  16.5194726  21.7357898
  56.0481453  66.8338394  75.5156612  56.9300413  67.2011471  75.4558229
  55.5745935  67.4395561  76.0858250  76.5247107  48.1882143  85.6640339
  76.4897728  49.0863848  85.9931278  76.5549421  47.6454544  86.4518929
  78.8240814  28.6849475  77.6938820  78.2885075  27.8963780  77.7807760
  79.6495581  28.4624743  78.1243753  73.3799362 103.4815693  91.9551468
  73.9246893 102.7566433  92.2616768  72.6484776 103.5089779  92.5719452
  58.8958883  54.3390465  92.6014519  58.2174063  53.6657047  92.6514626
  58.5309505  55.0828648  93.0808163  33.9502811  18.4395087  10.9110677
  34.8951983  18.4373152  11.0639024  33.5762787  18.7694860  11.7280555
  68.1338728  72.6818344  96.5705164  67.7271664  73.0149171  95.7705920
  67.5393212  72.9500505  97.2710891  41.1582232  80.6841946  92.8778172
  41.3934660  81.4901829  92.4181557  41.9829798  80.2051926  92.9587650
  80.4380989  71.4704275  96.4702034  80.9723282  70.8049107  96.0367107
  80.3255272  72.1544695  95.8101749  96.5864182  88.4574509  58.4462118
  96.5029144  88.9904785  59.2368698  96.7791939  89.0874863  57.7518654
  82.4624443  61.7215395  67.4055433  82.0370865  62.4687195  67.8262901
  81.8569279  61.4607811  66.7115736  39.7498989  97.1885872  92.2516346
  40.6438923  97.1901131  91.9095802  39.2155051  97.5126934  91.5266418
  46.4356279  27.0869470   9.4005716  46.7955971  26.3230896   8.9498210
  46.3617849  26.8128514  10.3147113  77.7598286  91.0420322  80.6883526
  76.8602324  91.3304138  80.8426285  78.0202198  90.6210327  81.5076160
  80.5179024  51.1023474  85.5403233  80.1171017  51.0736656  86.4091015
  81.3599777  51.5357685  85.6792259  31.1415005   5.8081692   1.2145284
  31.0057449   5.1621741   0.5213524  30.2680087   5.9590071   1.5757643
  66.9294786  88.1344795  45.4146147  66.9181967  88.9917660  45.8402586
  66.6409492  87.5256634  46.0945606  18.1528890  81.5167904  81.5063858
  19.0734923  81.4364243  81.2568665  17.8733695  82.3493767  81.1257362
  63.6160421  71.2675428  90.1833534  64.4405270  71.5025902  90.6090450
  63.1862307  70.6778622  90.8028412  62.9668331  79.2954588  82.0197964
  63.7024212  78.7675095  82.3303032  63.1519318  80.1774025  82.3425198
  70.8570099  41.0475063  66.3760471  71.0821772  40.8714914  67.2895861
  69.8999405  41.0453606  66.3605690  79.3123770  70.3035450  80.1014996
  80.2107716  70.4578543  79.8094082  79.0289307  69.5339108  79.6079922
  41.7269754   3.7380522   1.2435476  41.9233704   3.0023614   1.8235636
  41.3117075   3.3369112   0.4800881   2.0125096  76.0366917  75.5004692
   2.8146625  75.7226658  75.9178066   1.3488950  75.9858847  76.1884165
  64.9277878  77.2486448  66.6018867  65.0733185  76.7541790  67.4084568
  65.4838610  78.0225563  66.6917562  51.5961790   6.0439187   5.7109100
  50.9489727   5.4311407   5.3618258  51.1436749   6.4871556   6.4285541
  74.2297411  55.4077721  90.6881046  75.0979805  55.4142332  90.2851677
  74.1117001  54.5065546  90.9882736  26.4634466   5.5219549  13.3315253
  26.0262823   4.8079988  12.8674281  26.6003156   6.1935806  12.6633799
 111.4044189  40.2072191  81.6680050 111.5514946  41.1450434  81.5451717
 111.3784790  40.0912333  82.6177979  30.1662183  53.7054157   9.4864202
  31.0278392  54.0788507   9.6718633  29.5695186  54.4532585   9.5166141
 115.4843712  95.5241489  13.2369637 115.7236290  96.4236832  13.4602022
 115.1196003  95.5854034  12.3541164  94.4424629  56.9765902  83.2829666
  95.2194691  56.8041229  82.7512264  94.1470718  57.8425121  83.0016136
  79.1079426  34.7568274  65.3820562  80.0361156  34.6724439  65.6002331
  78.9313841  34.0198469  64.7973204 112.0883656 109.4423389  12.6639926
 111.7201614 108.9095497  11.9591510 112.8596973 108.9555168  12.9543102
  80.6837940  56.9982958  64.6913004  80.2722359  57.3782301  65.4675102
  80.0366497  57.1149445  63.9957237  57.0343018  80.5228138  31.0715199
  57.2038746  80.1565647  30.2035689  56.0821438  80.6122017  31.1119199
  40.2997684   8.7668866  38.1844854  41.0712242   8.6163223  38.7307620
  40.6553459   9.0085012  37.3292542  73.7949848  55.8364534  82.1293259
  73.0229378  55.8280087  82.6951122  74.5181799  55.5932903  82.7073288
  88.2246494  50.9808731  77.4550629  87.9471111  51.5414286  76.7305040
  87.4106598  50.6117725  77.7977180  74.2365551  68.2657146  70.7618189
  73.3471346  68.1104279  70.4439306  74.2064905  69.1456985  71.1372614
  61.7624807  47.4745798  88.9972496  61.8431664  48.4260559  88.9308071
  62.6460171  47.1469593  88.8291550 111.5926266  52.6748085  45.1878643
 111.6004562  52.4109793  46.1079550 112.4024868  52.3130083  44.8280621
 114.3870640 100.3366566  11.1864436 114.3791962  99.9809170  10.2978373
 113.9043427 101.1604595  11.1189187  18.1032646   2.6881617  16.8974948
  17.1697795   2.5788748  17.0788622  18.2738006   2.1036245  16.1589384
  68.7367725  88.3333778  73.3249474  68.8051224  88.1964493  72.3800611
  69.5305634  88.8162899  73.5550165  54.2976761  17.2090483   6.1102951
  53.9631319  16.6379380   6.8017751  53.7401199  17.9860473   6.1507332
  50.7587671  34.1002727  89.4362450  50.6488276  34.4602394  90.3163433
  51.4455032  33.4403062  89.5314693  74.4942665  85.4532719  81.3212109
  73.6974907  84.9554634  81.5044212  74.4102240  86.2442684  81.8536472
  75.8091497  70.6822348  73.7163925  75.7266808  69.9588680  74.3378210
  75.0881386  70.5521774  73.1003904  57.8413486  38.7372041  69.6959877
  58.0677700  39.2157102  70.4934788  57.7235603  37.8322840  69.9849176
  78.4847784  78.8636684  94.0317345  77.8979826  78.8996077  94.7871208
  78.1926155  78.0976248  93.5377216  61.6506243  60.7850933  80.4909134
  62.3276567  60.1712656  80.2061939  61.4396715  60.5118036  81.3836861
  58.4732676  56.6034508  78.8991165  58.1210804  57.4184990  79.2567444
  57.7205038  56.1762333  78.4903860  74.4066715  26.7224693  95.0066471
  73.8546801  26.9142222  94.2485142  75.2693081  26.5390158  94.6345711
  67.3226309  60.9336185  67.1667147  67.5254965  60.8873749  66.2324047
  66.6429949  61.6045523  67.2313166  84.8305511  80.4141331  83.4418106
  84.4285774  81.1457825  83.9101505  84.3169975  79.6503496  83.7047005
  86.3478279  86.5125561  60.5446577  85.4770470  86.6804600  60.1843977
  86.6429234  87.3649216  60.8650017  59.6118546  29.8793721  68.5859632
  60.4973316  29.6839786  68.2793903  59.0390444  29.5189571  67.9090405
  72.9798889  51.5315247  82.9809189  72.7499247  52.4085903  83.2876873
  73.8871479  51.4100933  83.2608509  96.8247128  59.9235106  89.7674084
  96.0168266  60.2709484  89.3894672  97.1946716  60.6575060  90.2579403
  21.0693264   1.5383095  38.2984066  20.4007030   1.2496050  38.9195538
  21.8938994   1.2282340  38.6727929  88.8388538  86.6868973  56.3917637
  89.4383907  86.7239380  55.6465006  88.3078003  85.9064293  56.2333822
   1.7021567  18.8255119  72.9411030   1.3952328  18.4675419  72.1081066
   2.2724576  18.1449616  73.2986546  85.5753517  66.9896936  76.6105556
  86.2664318  67.3177433  77.1859026  86.0220718  66.7945051  75.7867956
   4.8039272  92.1145439  16.6180491   4.0303570  91.8568325  16.1166430
   5.0741619  91.3148594  17.0693851  79.7026956  91.6138908  96.5148392
  80.4964483  92.1467325  96.4671842  79.2198956  91.8315265  95.7174870
  76.9199467  75.6513643  51.3072491  77.1690083  75.8828020  50.4124641
  77.6428843  75.1102638  51.6247416   0.9955885  65.7942915  95.2823162
   1.4938828  64.9780464  95.2413273   0.8626739  65.9470463  96.2178516
  89.7410583  49.1471958  89.6949673  89.5292282  48.2238865  89.8323059
  89.6038055  49.5542240  90.5503750  24.7378612   4.4703299   1.4096974
  25.3182125   4.8907602   2.0442538  24.3205714   5.1976919   0.9481287
  93.0035877  67.2106314  71.8153477  93.0795765  67.3101234  70.8663702
  92.3709393  66.5018415  71.9319677  34.2073345  29.4520092   4.2178208
  34.3999743  29.1408205   3.3333531  33.5286546  30.1158595   4.0956414
  62.2688198  53.5624695  85.7341766  61.5204334  53.0911255  85.3681374
  62.9393768  53.5132599  85.0528812  74.1049099  77.9565144  88.1358433
  75.0083113  77.7932453  88.4068394  73.9981937  77.4421072  87.3357010
  86.8382168  69.9032784  91.3863182  86.8304348  70.7773733  91.7763615
  87.2575378  69.3504810  92.0457268  65.8727503  79.8320770  45.2921057
  66.2997675  79.7763681  44.4372463  66.2017918  80.6469250  45.6715536
  86.8127155  52.7054739  96.0850620  87.6496220  52.5753498  96.5310287
  86.4249229  53.4647226  96.5202427  76.8093204  55.6996965  89.4222736
  77.4096918  56.1051130  88.7966347  77.3299694  55.5913877  90.2181530
  41.1905956  38.2795382   1.5723234  41.4678574  38.7508440   0.7866857
  41.9671822  37.7909184   1.8450803  47.0349073  21.5973449   4.0860581
  46.2844944  21.5993714   3.4918317  46.6810083  21.2821817   4.9177179
  43.9025259  28.5992265  10.0580740  44.5759439  27.9257822   9.9621052
  43.2808208  28.4184408   9.3530726  57.6103306   6.4805174  88.6930180
  57.6412296   6.2147629  87.7739716  58.3483076   6.0256094  89.0988255
 109.5708370 100.9286308  31.1513901 109.3559742 101.4322186  31.9365406
 109.7786140 100.0531197  31.4777970  66.9520140  73.3095360  90.0918579
  66.2756824  73.7022018  89.5399284  67.6805305  73.1406784  89.4943810
  25.3853202  15.7028651   3.2282755  25.1617742  15.5076051   4.1382930
  24.7643328  16.3839424   2.9699355 102.8887558  74.9456167  16.6948617
 103.2323933  74.2619133  16.1198008 101.9917202  75.0852728  16.3914549
  50.0863743  85.1702118  64.1971207  50.7096195  85.7353687  64.6536255
  49.3233919  85.1397228  64.7743225  73.3391476  66.3238621  75.4191208
  73.7362766  66.4965010  74.5654726  73.7301731  65.4973888  75.7024527
  30.2039576   6.2609994  17.0292151  30.1698685   5.3935844  17.4325275
  29.3357968   6.6323692  17.1861041  70.3068018 101.1694050  92.7247906
  70.8872747 101.9096088  92.9019356  70.8950138 100.4193592  92.6371956
 106.1485672  79.8591948  72.7615452 106.9549084  80.1773643  72.3555803
 105.9866238  79.0140820  72.3422718  67.0535803  56.1638927  78.0668592
  66.1328697  55.9031296  78.0898476  67.1615648  56.7292404  78.8316822
  61.8997574  60.2579403  92.4416637  61.9827509  59.5371819  93.0660439
  62.7926254  60.5857992  92.3342705  24.2304921   7.6959318   1.2810640
  24.2795253   7.3823792   0.3780068  24.8068905   8.4598684   1.3009845
  90.5941200  73.9479971  74.0151787  90.8532619  73.0539083  74.2380619
  91.3873577  74.3445349  73.6549616   0.5717519  85.0017643   9.8849118
   1.2728193  84.4624519  10.2508104   0.7598659  85.8856010  10.2006292
  70.9825277  43.1525564  75.6236219  70.9818172  42.4840403  76.3086843
  71.4334488  43.8991404  76.0179806  92.9318619  82.6981544  70.4284334
  92.4330616  83.5119629  70.3565788  93.7041855  82.8415203  69.8814440
  60.0839043  53.9092445  72.6981068  60.6650639  53.2708788  73.1115913
  59.4232178  53.3785868  72.2529840  89.4165516  82.2691536  79.2750883
  88.8453865  82.3604584  80.0377560  89.9823761  83.0405998  79.3058729
  48.2463264  50.4225683  95.9806156  48.7887621  51.1526680  95.6823826
  47.7503538  50.7782507  96.7179966  87.0368099 107.9824257  11.8162596
  87.6455498 107.2725105  11.6120684  87.5627041 108.6158657  12.3045528
  96.9237328  87.3710346  91.1466980  97.5379086  86.9497299  91.7479706
  97.4666309  87.6596451  90.4130745  63.1059837  96.3973904  54.7727537
  63.9561653  96.7467022  54.5055342  62.6426744  96.2394524  53.9501762
  83.0243778  98.5199451  14.5246077  82.5584126  97.8105354  14.9671531
  82.9428959  99.2667198  15.1178408 107.4520779  34.4041300  84.6589565
 107.3175812  35.3381062  84.4982338 108.3847237  34.3276310  84.8603725
  84.7985840  83.7029076  79.7757721  84.1771984  83.3948994  80.4354954
  84.3633461  83.5350323  78.9399385  51.9362020  45.1784945  70.3597403
  51.2373829  44.5251417  70.3915882  52.1733570  45.3204060  71.2761736
  69.5630074  44.1634226  73.5732126  70.0398445  43.9357042  74.3713379
  69.4692612  43.3336973  73.1052351  39.0390110   9.3661410  31.5438485
  38.1372023   9.1986394  31.2701416  39.0835881  10.3160191  31.6532898
  75.1586294  93.1450558  84.4848633  76.0072756  93.3735180  84.8641205
  74.5347452  93.7171173  84.9317837  92.3769665  65.6139469  93.0909634
  92.5895023  65.9037924  92.2037983  93.1966305  65.2517557  93.4274197
  68.0033493  61.2263632  80.4893970  68.5247183  61.9894981  80.2403450
  67.4968863  61.5192127  81.2470055  72.8841448  45.9921312  87.2761345
  72.0816183  45.4712105  87.3049450  72.8682566  46.4090681  86.4146519
  52.0375538  38.9687347  63.0877209  52.6276016  39.3393946  63.7439871
  52.0387983  38.0287027  63.2681847  74.2306995  49.0696192  95.1129436
  74.9390411  48.9168739  94.4875240  73.8556623  49.9099684  94.8495102
  52.9783249  23.4041429  10.6287813  53.5646009  22.6481152  10.6593728
  52.2855377  23.1955099  11.2554789  64.7971725  86.3074684  63.7920952
  65.6333733  85.8516216  63.8880539  64.9870253  87.0336342  63.1980610
  27.7450490  31.5370727  20.2186441  26.9323063  31.9829178  20.4571867
  27.5685406  31.1629319  19.3554544  93.6728668  69.1718245  79.1898394
  94.5147800  69.4516945  78.8305712  93.7214756  69.3985605  80.1185226
  31.9461727  18.3252978  26.9824505  31.9674516  18.7839723  27.8223276
  32.8507352  18.0474019  26.8383288  51.4863491  96.6804123  85.9691334
  51.9037580  97.5146675  86.1836529  52.0871067  96.0174942  86.3095284
  71.3475418  97.9479504  84.4524574  71.6125298  98.8286495  84.1871548
  70.3915501  97.9846191  84.4834900  32.9848385  47.0567226  29.5472217
  32.4051738  46.6176367  30.1696563  32.4474335  47.7530241  29.1696095
  31.2092280  11.7321050  26.4790106  31.7622805  11.5060341  27.2268438
  31.3900185  11.0497975  25.8324790  66.5847397  40.9635782  91.1600208
  66.1761570  41.4976263  90.4787731  66.2928963  41.3588810  91.9814777
  78.9554358 107.1580696  27.7366018  79.5172215 106.4652443  28.0838943
  79.0262985 107.8669167  28.3759403  97.1396923  89.0831661  74.9994755
  97.9888439  88.7517738  75.2916479  97.3444557  89.9026680  74.5492172
   4.9510750  69.9430561  21.5257907   5.2242571  70.3310776  22.3570800
   3.9945763  69.9678516  21.5527558  29.2979598   7.7379441   8.0300933
  28.5746050   7.6996768   7.4043739  28.9780474   7.2604460   8.7955230
  75.0115967  49.2868280  88.7476540  74.1181660  48.9555264  88.6568356
  75.1940680  49.7159195  87.9117012  92.2224426 104.4804478  92.8150940
  91.2812519 104.3928337  92.9658031  92.3767376 105.4251003  92.8066921
  96.9822407  45.0136328  87.0728207  97.7099991  44.3921089  87.0906258
  97.0762062  45.4685545  86.2358856  92.7957821  65.8792162  84.5814514
  91.8985558  65.5533028  84.6521187  92.7233601  66.8186235  84.7502708
  64.2924023  63.1952810  80.2086449  64.4711447  62.3675632  79.7623634
  65.0575781  63.7388134  80.0207329  73.1179380  24.4027758  95.8578682
  72.2765732  24.5220470  96.2984467  73.5049486  25.2780604  95.8396149
  68.3604717  72.0383596  56.8434238  68.4702492  71.8599796  57.7774286
  69.2470551  71.9941282  56.4853144 103.8266850 102.4755192   0.9813794
 104.4042778 102.9393578   0.3751880 103.0116463 102.9772568   0.9669017
  60.9291744  75.9145498  52.8281498  60.1912022  76.2634802  53.3280230
  61.6693974  75.9556198  53.4336376 113.0144119  45.5485868  87.9218388
 112.4728012  46.3027048  87.6890469 112.6762009  45.2637339  88.7707806
  34.4360185  19.4913781   1.7088844  33.9153910  18.7012184   1.5645720
  33.8181758  20.2115798   1.5831305  99.5688820  59.6310282  41.6220284
  99.1015625  60.4633141  41.6938353 100.0599575  59.7019291  40.8034658
 103.2065010  84.4030380  79.9933958 102.6856327  83.9805603  79.3104315
 103.4117699  85.2676582  79.6376801 114.6328831  16.2239492  25.7302284
 115.1103687  15.4113328  25.8972573 114.7170639  16.3616049  24.7867250
  82.7659225  33.4494209  69.4799232  83.6844540  33.2331657  69.6404648
  82.6916504  34.3728471  69.7207499  48.8225269  64.3096209  37.4340868
  48.9618206  63.5542107  36.8629575  47.8750467  64.4453716  37.4248695
 114.4408607  95.6315804  10.8068860 115.2139664  95.8186722  10.2744114
 113.8407326  95.1854515  10.2093494  85.1227283  25.7706451  88.2462025
  85.9885979  25.4161239  88.0441666  84.7385788  25.1349854  88.8500118
  32.7396154  11.4898896   9.3004322  33.4131598  12.1567965   9.1669977
  31.9337821  11.8961239   8.9813071  85.6598663 107.3991776  23.9006829
  86.3083172 107.4852085  23.2018661  86.1468220 107.5851536  24.7035027
  81.6436100  70.2854156  87.2860622  82.2941208  70.9867716  87.2520638
  81.0562611  70.5378342  87.9984856  86.9156837  40.9097576  94.6124458
  87.0109940  40.3325224  93.8548565  86.0144901  40.7740211  94.9051094
  92.6299477  95.0243568  82.4244690  92.5960445  94.4576645  83.1951523
  93.4804726  94.8375893  82.0270634  41.8801117  49.7567749   3.5535258
  41.8121052  48.8038826   3.6135772  41.3864565  50.0800943   4.3071830
  96.6877747  85.2605057  37.1660042  96.0616493  85.2512550  36.4420462
  96.9373512  84.3432903  37.2785473  80.3604221 102.7726078  42.0989370
  80.3518200 102.0199394  41.5076208  81.1620331 103.2448483  41.8738985
  95.1130772  50.2972460  73.1252623  94.4888115  49.6292305  73.4086084
  94.7081852  50.6910229  72.3524570  99.9295425  80.0189877  74.4747686
 100.6173992  80.6386089  74.2315769  99.8746872  80.0840759  75.4281759
 114.6951103  99.7819042  86.0353947 114.8652267 100.7234573  86.0075283
 114.7272968  99.5601368  86.9659996  89.8084831  73.0443096   3.9371276
  89.7260666  72.0936155   4.0120700  89.1664219  73.2885742   3.2705483
  69.3178892  63.9873838  93.9348793  69.3947458  64.4360447  94.7769165
  70.0810385  64.2803383  93.4368610  85.4847622  89.3586445  75.1015949
  85.9032917  90.2187729  75.0661659  84.8746586  89.4192505  75.8366632
  60.5215359  50.2215528  75.6192493  59.7163820  49.9343729  75.1885653
  60.6172276  49.6309996  76.3664579 101.4864635   6.0372072  30.4740405
 102.1394539   6.1125517  31.1698532 100.6757832   5.8107966  30.9298611
  77.8951836  61.5644836  84.1276264  78.1055689  62.2453642  84.7666645
  77.7268410  62.0421219  83.3153820  52.3481750 102.9511738  59.0056419
  52.3986626 103.7214184  58.4395885  53.2299280 102.5793648  58.9833689
  86.4585781  66.5869427  73.9917088  86.0504436  66.4629126  73.1348085
  86.4804840  67.5363779  74.1113901 101.6965961  94.0137482   1.4532253
 102.6466370  94.0874195   1.5439561 101.3873005  93.8047981   2.3346493
  73.4832621  60.1905394  91.0298634  73.4334087  60.8371019  91.7339230
  74.0046883  59.4765997  91.3967896  57.0606089  59.6202326  76.2817907
  57.2351313  59.8492813  77.1946478  57.9063034  59.3271112  75.9425068
  77.0363092  42.7508974  71.9410563  76.4626884  42.0523119  71.6261482
  76.5109301  43.5469294  71.8601847  89.1021538  63.4646034  90.8763599
  88.6861420  64.3237734  90.8056831  89.3094349  63.2238483  89.9734211
  84.2870903  93.9529610  48.2578611  83.5859680  93.4307384  48.6476612
  83.8316059  94.6250439  47.7508450  98.5227585  57.7512312  23.6786437
  99.3918800  57.9611349  24.0204167  98.5377121  58.0677700  22.7754211
  79.5268202  38.3983374  91.3899136  79.1138506  38.9567804  92.0485687
  79.5072031  38.9197707  90.5874443  14.0634668   9.5194918  23.8191628
  14.9867439   9.6477467  23.6015797  14.0262187   8.6407137  24.1967773
  99.8101807 107.1649456   8.8961178 100.5134583 106.5591145   8.6624444
 100.2561760 107.8964233   9.3230432  49.7760391  36.9259453  83.3159351
  49.7029877  37.1732354  84.2377472  49.3136168  36.0900855  83.2548141
  36.3406157   6.0456759  24.5627594  36.1269188   5.5587548  25.3586698
  37.1891260   5.6971323  24.2893004  34.5258760  17.2072053   6.3136089
  35.3965330  17.1037352   5.9295762  34.4628835  18.1405759   6.5162981
  20.9664798  95.3507519  16.3159478  20.1879644  95.6931877  16.7551303
  21.6829705  95.8981895  16.6371715  60.7908726   5.9370029   9.4790196
  61.4591503   6.4898837   9.0741014  61.0501814   5.8825421  10.3988159
 112.7389240  78.7402868  69.8781919 112.6768684  78.0465126  69.2216444
 111.8313789  78.9185381  70.1248074  20.7958055   4.5720479  72.6278639
  21.3695288   4.6058169  73.3933258  20.5813766   5.4875523  72.4486876
 105.3590679 101.2315941  68.7404823 105.4763126 101.5783501  67.8560352
 104.7051239 101.8063068  69.1383362  75.9992886  74.4669819  81.4516830
  76.1344433  74.8396969  82.3229218  75.9351254  73.5238314  81.6019726
  92.8772354  86.0136890  60.1374006  92.3741245  86.4128399  59.4276237
  92.2220707  85.5671310  60.6736755  95.0978947  92.7645397  25.7737160
  94.6876335  93.6293316  25.7662845  95.9580708  92.9108906  26.1672854
  87.7138519  58.4083366  50.8253574  88.4664440  58.4057856  50.2338982
  87.0026779  58.0281258  50.3096962  10.6242085   5.8591819  26.1727071
  11.2545574   6.2976253  26.7442489  10.2734435   5.1457047  26.7057610
  92.8608322  56.0705471  93.9699841  93.0979633  56.5306664  93.1648254
  93.6843491  55.9899378  94.4511986  59.7649050  59.3730783  75.8505392
  59.8846483  59.9172449  76.6288567  60.5167294  59.5802164  75.2954865
  48.6659861  21.8978047   7.8962314  49.4655371  22.4074316   8.0274844
  48.9535284  21.1199021   7.4183047 105.9028625  72.7748919  86.0709286
 106.5228271  73.3852863  85.6718254 106.4407444  72.2262239  86.6417885
 111.1978245  69.1698551  69.0906572 110.5568600  69.6466398  69.6179914
 111.8530655  69.8275805  68.8576651  57.3036528  38.1635809  14.9733818
  57.2373390  37.5140643  14.2734087  57.0608091  37.6863170  15.7667780
  93.9862442  42.5612450  69.3421459  93.9415932  41.6059065  69.3026304
  94.8414421  42.7766371  68.9700174  71.0571814  74.3615580  85.8857727
  71.9392586  74.0059280  85.9939575  71.1963224  75.2715778  85.6235981
 100.3190994  75.7106972  72.8312588 100.0819588  75.7735634  73.7564850
 100.1285458  74.8025465  72.5963402  72.7705431  64.1357803  89.9249840
  73.3591032  63.3924246  89.7936535  73.2682657  64.7411871  90.4745197
  10.4813910  18.0604780   1.4288318  10.4573894  17.1223450   1.6174166
  10.7065308  18.4672892   2.2655204  84.8702431  77.8009319  80.5909157
  85.3141117  77.3201656  79.8922873  84.8884010  78.7135029  80.3026104
  86.7755508  46.5270662  90.0634480  87.6678562  46.3422775  90.3565025
  86.5271664  47.3205233  90.5377388  29.2474318  37.6210570  27.2740579
  30.0557375  38.1290150  27.2044039  28.6051154  38.1230330  26.7723775
  85.5482769  70.2325344  77.2186661  85.1999187  69.3420076  77.2616673
  86.4904976  70.1277876  77.3508644  45.1396275   7.5825155   1.3989933
  44.8181057   6.6817254   1.4368527  44.4878674   8.0899876   1.8826379
  87.6453972  40.2244663  81.7313766  88.3740616  40.7765961  82.0149708
  87.8385735  39.3636012  82.1026134   8.2488811  77.1274281  57.3941803
   8.0672759  77.8507948  56.7941904   8.7410051  76.4974070  56.8677568
  25.7047844  26.4900756   9.0786058  26.5908837  26.5770221   8.7271786
  25.6651759  27.1299291   9.7894150  21.7264390  15.6654084  14.3172908
  21.4869928  16.0734928  13.4852076  20.8967137  15.3537023  14.6787143
   0.5271124 106.8638134   3.5913825   1.2592593 106.3295269   3.8991591
   0.9403717 107.6305962   3.1945294  61.1472559  84.3181419  87.0706558
  61.9432020  83.8050652  86.9311619  60.4552984  83.8049507  86.6534328
  82.3287678  63.8564348  83.0462742  82.8777599  64.4330740  82.5149345
  81.8550587  64.4483232  83.6306477  26.6238070  40.9625959  11.4115369
  27.4717450  41.4000130  11.4883447  26.7204261  40.3839922  10.6551564
 102.5197601  87.5165081  68.9228153 102.4274254  86.7027760  69.4183350
 102.2518158  87.2868347  68.0330467 109.4536293 107.0662456   0.2377958
 110.1618612 106.4405208   0.0857706 108.9676655 106.7027526   0.9780282
  66.9742203  66.3064814  90.1648808  66.7338991  66.3924885  91.0874271
  66.4714003  65.5529785  89.8556328  71.0208988  62.0928288  91.2517071
  70.9852362  62.9235125  90.7774448  71.8519497  62.1231270  91.7257023
  68.5975599  88.4279537  66.3795567  69.2014313  88.4339619  65.6369066
  69.0913057  88.0121994  67.0863771  35.4817224   4.9633852  22.1049094
  35.5574274   4.1344407  22.5775099  35.7719374   5.6246537  22.7331853
  59.9815893  52.8066158  76.6046810  60.6663465  52.1598911  76.4341354
  60.4381514  53.5322762  77.0303535  30.3346109  34.8081279   3.7423375
  30.4236698  35.3311372   4.5390570  29.5745158  34.2498374   3.9060390
  84.1725636  77.8618908  89.7953606  83.3359623  78.1055164  90.1915741
  84.6931839  77.5237322  90.5239487  73.6218596  80.5274010  78.5538816
  74.0033865  81.4011574  78.4689140  73.9315987  80.2123451  79.4030142
  43.6450529  20.3981853  25.0637484  44.3867493  20.9477568  25.3168964
  42.8815126  20.9675050  25.1592302 110.4623127  82.2374725  10.2312374
 110.2893162  82.7203274   9.4230527 110.8354282  81.4060783   9.9383271
  83.3553505  55.9619188  83.4888649  82.8739357  55.1730061  83.2396889
  82.9675865  56.2255764  84.3233395  49.3402433   8.2735610  24.7309208
  49.7436237   8.7612522  25.4490256  49.7869301   7.4269915  24.7356820
  77.5431347  84.9547577  56.4823246  77.3378563  84.0369129  56.6602468
  76.9607544  85.4469585  57.0609474 110.5048084  55.3310204  77.5037098
 110.1485252  55.7225800  78.3011866 109.7397518  55.1797199  76.9487095
  70.0726080  77.4779558  89.9902725  70.5767155  78.2225800  90.3183651
  69.5621395  77.8357172  89.2638683   0.3724085 106.2229729   7.2613555
   0.4542052 105.2752113   7.1550375  -0.5076898 106.4245605   6.9435120
  16.9719565 102.2546959   6.5991366  16.5200472 101.9620705   5.8076936
  17.5382781 101.5205383   6.8368864  29.6076322  33.0799580  18.2397842
  29.8250890  32.1609354  18.0837607  30.4511523  33.5320449  18.2219207
  83.2897377  60.9748077  83.1921768  82.9171944  61.8560314  83.2219791
  83.8605976  60.9300375  83.9592171  89.7794247  83.5374641  94.7837925
  90.3349972  84.0551567  95.3665066  88.9045906  83.9101601  94.8933411
  30.7973695  18.9992130   5.4446524  31.1925125  18.1370986   5.5744720
  31.3185334  19.3991804   4.7484863  53.8359785 101.1951828  86.5339947
  54.1275024 101.0162926  87.4279976  52.9962301 101.6419983  86.6407967
   8.0711854 110.5961800  46.5345621   7.9361320 111.3267803  45.9310627
   7.2000623 110.4112720  46.8855429  84.7447968  89.9066639  64.5889282
  85.1488018  90.5361176  65.1862526  83.9602661  89.6089363  65.0494766
 100.9309864  76.0046482  79.6148968 100.9559250  76.3599682  78.7264395
 100.5303383  75.1409435  79.5162725  82.6924419  52.6784134  85.1848221
  83.4702682  52.6661444  84.6270943  82.2855473  53.5269499  85.0097561
  93.1333923  97.7681732  94.3987846  93.9139843  97.3353958  94.0529537
  92.4786949  97.6694489  93.7075043  68.0680990  24.7978878   4.6039581
  68.2296658  25.5247402   4.0024501  68.9049768  24.3357015   4.6513897
  85.3393936  84.8330021  84.4068336  86.1383438  84.6055412  83.9312649
  85.6431580  85.3544426  85.1498318  43.5005951  99.8680401  60.0294447
  43.5502386 100.7890415  60.2854061  43.9976597  99.8192596  59.2128801
  12.3242164 104.6429443   7.6542437  13.2316327 104.7528839   7.9383934
  12.1208000 103.7284946   7.8508121  98.4913349  32.5996041  76.3550806
  98.7403297  33.5088611  76.1892796  98.7053776  32.4569726  77.2770739
 101.7759514  50.6545162  64.7930574 102.1116257  51.0565662  65.5942535
 102.2153950  51.1267185  64.0858459  77.6838684  64.5154428  69.9906254
  77.4684143  65.4314899  69.8155022  78.6066484  64.5307493  70.2445412
  13.4692109  33.1545687  69.6172285  14.1885686  33.4642482  69.0669060
  12.6922858  33.2359552  69.0640593  65.7278156  67.7366304  65.9189653
  66.2647486  68.3636856  66.4034653  66.2711430  67.4820089  65.1731825
  96.1553097  79.3389034  60.4151249  96.0248470  79.7107458  59.5428038
  97.0872784  79.1228342  60.4464579  59.3575478  47.1799850  73.0984163
  59.3257999  46.2512255  73.3278370  58.6034632  47.3105955  72.5235033
  57.8542948  32.0718074   4.8592490  57.2543287  32.6754093   4.4211447
  57.8845596  32.3795629   5.7651198  97.6937199  87.6708508  53.9310312
  97.0435810  88.0859852  53.3642769  97.2661018  86.8727112  54.2414427
  31.0923266   4.7008523   4.9936685  30.1983738   4.6603227   5.3334296
  31.1673069   3.9347023   4.4247892  60.4159832  53.3329821  83.4694195
  60.5921125  53.8392067  82.6763630  60.2914429  52.4362993  83.1584740
  77.9791594  12.6477456   4.6171755  78.4088469  13.4570360   4.3403199
  77.7752161  12.7890086   5.5416662  71.7278433  86.2588215  88.8051891
  72.5028515  85.9873486  88.3133602  71.3688946  85.4436207  89.1556740
  67.6107550  86.0578728  63.3711815  67.9341841  85.4270077  62.7280331
  67.5911760  86.8911076  62.9004812 118.4162140  92.6125813  76.7850494
 118.2016563  92.4170780  77.6971769 117.6494884  93.0799866  76.4535379
  66.1557865  71.3786364  49.8075008  65.6949377  70.6784153  49.3453932
  65.5004072  72.0684004  49.9120378  93.4858322  65.9635687  69.0942430
  92.5493622  65.9229279  69.2881775  93.5286522  66.2133503  68.1712008
  83.7833118  66.4770174  78.4706688  84.4220448  66.5375805  77.7603292
  84.2137146  66.8956804  79.2161274  35.9178114  42.9288769   6.4679664
  36.0575080  43.5983133   7.1377176  35.3516579  42.2825289   6.8897933
  99.4969940  87.8684998  76.3574934 100.0376415  88.3774090  75.7533884
 100.1236629  87.4659061  76.9586945  90.3855038  52.2154856  87.2571182
  89.9846745  52.2167206  88.1263542  90.1232147  53.0512667  86.8712330
  97.5898647  58.3636236  70.1218843  98.4037018  58.5037613  69.6378803
  96.9070816  58.7112522  69.5481348  46.6035080  18.2851434  13.5969031
  47.2740793  17.8075731  14.0852606  45.7771301  17.8923607  13.8780594
  50.4762411   3.9376789  81.1197662  51.3835812   4.1265607  80.8804131
  50.3377867   4.4211024  81.9342327 100.5316639  60.1749659  91.3407898
 100.8515263  61.0768700  91.3627529 101.3148785  59.6467447  91.1865711
  39.1344690   8.6150479   3.4387448  38.8576412   9.3917191   3.9249337
  38.3977771   8.0088127   3.5161787  90.8251762  77.6331091  90.6411457
  89.9077415  77.9048538  90.6147575  90.8986187  76.9706440  89.9541473
   0.2051722  47.5788212  78.7474394  -0.2630342  47.4555492  77.9217148
   1.0533320  47.1579409  78.6069965  79.5960140  88.9834690  93.1130886
  79.2905855  88.1013298  92.9014969  79.5455027  89.0318680  94.0677357
  83.1318474  66.3264322  82.2917175  82.5344181  66.5951824  82.9896259
  82.7252197  66.6533899  81.4892292  92.7448750  88.4379959  47.9936934
  92.6431084  87.8625298  48.7517929  92.8335667  87.8414822  47.2503710
  72.6499701  74.0545607  60.9871531  72.9792833  73.2482052  61.3841105
  71.8676376  73.7830496  60.5070877  62.4960804  82.6441574  68.1494045
  62.8118467  82.2968578  68.9836168  63.1752110  83.2598495  67.8738356
  15.1133823  79.3556118  31.7235565  15.5009174  79.9247599  31.0586405
  15.7063818  79.4232750  32.4718928  80.9004688  61.8828344  45.8371401
  81.1146164  62.2542238  46.6929674  80.7775211  60.9486008  46.0054350
  30.3645349  39.5911145   2.0920141  31.0637355  38.9521408   1.9539419
  30.4955482  40.2422190   1.4027181 113.5589123  84.8726463  15.9839857
 113.7588882  85.4879284  16.6894484 113.8624859  84.0259647  16.3113928
 101.5069580  83.1624889  87.9585171 100.9659958  82.3976231  87.7621174
 102.2876930  82.8020763  88.3789635  86.2677860  91.9477749  89.5706367
  85.3154945  92.0310593  89.5212746  86.5967751  92.5751019  88.9268494
  73.3516979  96.9430161  58.0238724  72.6093245  97.3301411  57.5599194
  74.1183519  97.2189903  57.5215721  56.3679552  99.9736691  65.3566790
  57.1526146 100.1500607  65.8757448  56.4037037 100.6118011  64.6441174
  93.5778618  81.7939568  94.5112896  93.3683205  81.3503361  95.3331947
  94.5256901  81.6955566  94.4208908  34.2147398  15.0807559   2.5352454
  34.5725203  14.4924378   1.8703344  33.3894420  14.6726334   2.7970713
  89.9815369  83.1911850  69.6455669  90.2690411  83.0359840  68.7458515
  90.6170654  83.8154221  69.9957895  89.4269180  87.6130104  83.7669086
  89.1285992  88.3327770  84.3229485  89.8819923  88.0426311  83.0426407
  78.3455229  83.5526562  92.8384781  78.9713478  83.8112068  93.5150337
  78.6762238  82.7151394  92.5137806  53.1507111   5.1510209   3.6776397
  52.7778292   4.2704922   3.6345026  52.5983906   5.6144345   4.3072635
  26.5724301  26.0496378  16.2452209  27.1250796  25.4115510  16.6965020
  27.1820068  26.7225313  15.9421301  91.4736462  71.5447521  74.6469736
  91.0667229  70.9084749  75.2350092  91.8792915  71.0128689  73.9622927
  94.5524693  75.8959723  49.8220634  93.9670563  76.5966225  49.5346498
  94.4440365  75.8681154  50.7726908  69.7983027  76.5511847  92.8606796
  69.0212011  76.7336130  93.3889389  69.5602989  76.8357611  91.9782925
  44.0561104  36.9683027   2.3757418  44.5940495  36.9821739   1.5841234
  44.3517256  36.1928010   2.8526473  70.2825451  18.8843608  14.0934169
  70.0773191  18.4696043  14.9313247  71.2362003  18.9666975  14.0941393
  58.2705641  14.6111333   4.1908816  57.4228811  14.2376685   4.4321063
  58.7495470  14.6716833   5.0174046   6.3617188   5.5155689  15.9075224
   6.4643615   4.7218674  15.3824186   6.4335835   5.2144700  16.8132865
  77.3857832 108.7229633  74.7160769  76.6281509 108.4985352  74.1758347
  77.8710508 107.9022503  74.8008442 117.5005913  85.4048634  73.5424280
 118.3130455  84.8987961  73.5485315 117.3665428  85.6537247  74.4569397
  31.9266009  23.4706378  17.4135625  31.9225621  23.7362623  16.4939666
  31.6055727  22.5689292  17.4038208  21.5111136  25.5347085  13.3398843
  20.9193778  25.2213740  14.0239191  20.9988999  26.1852646  12.8596270
  85.2470589  65.3326797  65.2314425  84.5198917  65.8261204  64.8520088
  85.2385712  64.4968700  64.7649860  48.7081861  16.8571031  11.4290404
  49.3912649  16.2500930  11.7139482  47.9020739  16.3418305  11.4592314
  51.7119598   8.3906353  93.5947990  51.9918680   8.6431122  94.4746494
  52.4982357   8.4847772  93.0570793  89.3249321  60.3548336  81.1337662
  88.6719513  60.4539824  80.4409409  89.8610592  59.6131372  80.8532429
  46.1655283  51.1276102  94.0581703  46.9101858  51.0240316  94.6506119
  46.2238312  50.3772593  93.4667301  83.5185528  97.2327518  85.7783508
  82.8661633  96.5409660  85.8881950  84.1484451  97.0820427  86.4831543
  93.2127953  82.1249866  86.5972328  92.6671982  81.6689205  85.9564877
  93.3381367  82.9985428  86.2265301  52.4524975  22.3717499   4.3466693
  53.1972218  22.2992349   3.7497121  51.7829609  21.8044758   3.9643627
  80.7766151  71.4601517  66.5635729  80.9235573  71.5873814  67.5008297
  81.5589237  71.8219042  66.1472130  83.9249039  86.1735249  88.4897423
  84.2514706  87.0135307  88.1672764  83.1527901  86.3998222  89.0082550
  -0.1101602  81.6592598  14.1934335   0.7243716  81.7646503  13.7366140
  -0.5775941  80.9942532  13.6879539  68.9578152  63.6478949  79.6955395
  68.7006617  64.3458605  80.2979851  69.5733881  64.0659428  79.0934229
  81.3057137  77.0942211  32.2974610  81.7025375  77.8531790  31.8699741
  82.0112514  76.4489651  32.3431206  89.5688820  55.3173542  61.5866184
  88.8498974  55.2352476  60.9600782  89.4154835  56.1577225  62.0184469
  81.9841766  81.0847950  88.6746407  82.9316330  81.1824322  88.5796261
  81.8316936  81.1347008  89.6182919  56.7942572  35.0310040  17.4380481
  57.2636843  35.1782227  16.6169536  57.1150827  34.1844368  17.7488935
 111.9797993  71.8162680   8.7263542 112.8378010  71.4127731   8.5950118
 112.1600914  72.7555752   8.7640536  87.5366783  57.8374815  47.2789431
  88.0403996  58.1852245  48.0148649  87.9852676  57.0251322  47.0442247
  75.8761787  64.6983004  84.8289204  76.8119097  64.7782946  84.6438789
  75.5970716  65.5888939  85.0414658  59.7182941  48.1275368   3.2044372
  60.1963043  48.7549210   2.6620969  59.9559450  47.2720003   2.8469330
  81.0860825  88.1648159  85.5332184  80.9022522  88.6653137  86.3281631
  81.2264156  87.2693825  85.8410358  73.0578804  89.3136978  93.0289555
  73.8838148  89.4533539  93.4921646  73.2946205  89.3462944  92.1020603
  92.6569080  84.7465229  67.3748970  93.2849121  85.3952599  67.0571136
  91.8287468  85.2230358  67.4324989  62.1149397  61.5231657  67.6315308
  62.7977991  62.1350288  67.3566484  61.7347240  61.2049532  66.8127441
  99.6036911  53.6217499  56.6763973  99.4759560  54.5122194  57.0034647
  99.3182182  53.6586428  55.7635021  26.6239238 103.3196259   2.2515213
  25.8750105 103.8936329   2.4124014  26.2729406 102.6148701   1.7071383
  92.4227905  89.9191570  44.0111828  93.3504772  89.6865845  44.0503836
  92.4095345  90.7823658  43.5977316  79.8967791 103.3991146  81.5368271
  79.2357969 103.2700253  80.8566380  79.4751310 103.9754391  82.1742439
  68.5774612  80.0435066  81.7302513  67.7176571  79.9966097  81.3121986
  69.1399145  79.4950390  81.1833763  45.2385473  35.1348853   4.6370938
  46.0940981  35.5111170   4.8437744  44.7102499  35.2975893   5.4185414
  93.3993816  92.4396610  83.8806915  93.7104797  92.4246216  84.7858047
  94.0941238  92.0103168  83.3814716  79.3590164  82.0568371  69.4315767
  78.6929321  82.7407265  69.5013428  79.2717361  81.5539837  70.2413607
  23.5885668   2.0502812  26.2176394  23.6226869   2.9982683  26.0896230
  23.2309866   1.7105342  25.3973103  69.8840952  84.0651035  59.2519140
  69.6772242  83.2087708  58.8775587  70.8252430  84.1673279  59.1104078
  57.0087290  95.4083538  92.5396919  56.7824936  96.1415482  93.1119537
  56.7551661  95.7007313  91.6642189 110.5491352  60.1209974  90.9486675
 110.6901932  60.7221603  90.2172756 109.6754360  60.3393078  91.2730598
  85.9978617  69.6913859  96.1551129  85.2780855  69.0708694  96.0405983
  86.6757095  69.3858215  95.5522999  47.8377867   9.8961782   2.1136983
  48.1346273   9.7383082   1.2174867  46.8837500   9.8363477   2.0640561
  84.7891521  61.0726881  87.9936504  84.9046516  61.7229033  88.6865616
  84.9275303  60.2315474  88.4290409  43.9678001  26.1458898  16.0111213
  43.4287691  26.9031405  15.7825363  44.8294735  26.3461423  15.6455386
  60.5402517  57.5167179  82.6268005  60.3138876  57.1556377  83.4839058
  59.8060513  57.2733974  82.0629120  65.8673668   0.0513308  59.7017479
  65.7776880   0.8268835  59.1479349  65.5006695   0.3157932  60.5454445
  43.8125753  32.4656463   7.2941017  43.3301210  33.2764363   7.1325755
  43.1475353  31.8475556   7.5972807  97.3006535  78.2433939  92.0855522
  96.6467381  78.7970686  92.5122452  98.0272961  78.8359547  91.8929386
  80.2778053  96.3016224  50.0288630  80.3914928  95.6377983  49.3486834
  79.3346071  96.4633179  50.0504684 109.7694206 106.6638279   9.0197402
 109.7871113 106.9063663   8.0939484 109.6326828 105.7164478   9.0165627
  92.5493050  87.1554756  73.2585335  92.1305656  87.9708767  72.9828167
  93.0478954  87.3945618  74.0398693  83.1655788  73.8197947  79.9903679
  83.3456516  74.4059753  80.7253551  82.2331142  73.6179590  80.0678635
  68.8288593  68.8693905  66.9634151  69.5587349  69.0305281  66.3654613
  68.7854433  67.9160023  67.0369148  68.5456896  70.3112411  90.2776432
  68.0256414  71.0567713  90.5776024  67.8978252  69.6616983  90.0045204
  79.8852348  47.7495956  69.2846298  79.2773151  48.2820129  68.7716007
  80.7479095  48.1151056  69.0885878   2.4581102   8.9888257  88.8801193
   1.7476350   8.7311506  89.4675446   3.0884722   8.2707661  88.9372730
  50.9274149  85.3582478  61.6619873  50.5919313  85.3342247  62.5581503
  50.1531124  85.5111313  61.1204004   4.6803573  13.3187270  84.6935177
   4.2105812  12.6198351  85.1485920   5.5951881  13.0372167  84.7017860
  72.8516865 105.5031109  70.5326939  72.9940176 105.8095360  71.4282799
  72.1700239 104.8359776  70.6132936 110.8740330  51.6019773  75.3807402
 110.2577782  51.0264969  75.8338261 110.3206635  52.1756601  74.8507404
  67.7324057  57.3461866  82.8032780  68.2413864  56.5786695  83.0642223
  68.2092428  58.0878019  83.1759167  11.1092293  67.8239775  76.3906956
  10.2859044  67.9745817  75.9262753  10.8488023  67.6866388  77.3014927
  90.5906868  61.0216093  63.9116192  90.9980965  61.6679287  63.3349800
  90.2026272  60.3803492  63.3162785  71.5804482  21.5420151  27.8604031
  71.5908098  20.5848837  27.8656292  72.2567320  21.7923045  28.4898639
  99.7494602  92.8686905  44.3245888  99.5820332  93.0423355  43.3982801
 100.7036400  92.8373623  44.3937540  56.1897182 101.8848419  74.4839525
  55.9703541 102.8090668  74.6019602  57.1286678 101.8367004  74.6636534
  81.1434555  63.0093145  80.7624435  81.6369820  63.3102894  81.5253830
  81.7286682  63.1663609  80.0214291  98.4826183 111.5217972  47.9867601
  98.3052158 111.7914772  47.0856285  98.2099724 110.6048679  48.0204439
  98.1939602 107.5645447   6.6613340  99.1510582 107.5531769   6.6696060
  97.9419899 106.6630936   6.8616676  26.5309048  42.4908400  36.0102105
  26.0884905  43.1251049  36.5743113  26.4004517  41.6494370  36.4475369
  80.3117561  54.7817039  62.0885849  80.5653477  54.2863989  62.8674316
  81.0432053  54.6655226  61.4821911  89.0989971  50.2307129  92.1390533
  88.3287811  50.1020718  92.6926327  89.8392487  50.0051212  92.7024174
  66.3367414  60.3464079  73.5224628  66.9742012  60.9976053  73.2295132
  66.7662382  59.9029970  74.2539978  85.3985977  56.2612486  54.9211073
  85.2520752  57.2058725  54.8715925  85.1931095  56.0342121  55.8280039
  71.9967651  70.5381536  85.3513432  71.1463881  70.2337313  85.0344467
  72.1518898  70.0294542  86.1472034  72.5585890  76.1687040  74.5514965
  73.0846071  76.2829494  73.7599897  72.4863052  75.2199984  74.6561766
  71.7497444 107.4793625  85.4944801  71.0311556 107.3044586  84.8868084
  71.5144968 106.9989014  86.2882328  59.5613384  84.7197247  57.3063135
  59.1609001  85.4189587  57.8229761  59.8107576  85.1420498  56.4843273
  81.6299057  70.3316355  75.3354788  82.4008179  70.2116251  74.7809219
  81.9855690  70.5676889  76.1922264 105.5884838  91.3408089  90.3512383
 104.9133492  90.7933044  89.9504185 105.5737305  91.0996723  91.2774467
  84.7507286  54.8643827  10.8339489  84.1452408  54.1446209  10.6562901
  85.4697514  54.4585133  11.3182116  77.6328993  97.5214481  79.3618917
  77.7194309  97.2539234  78.4469175  76.7785740  97.9508781  79.4060993
  68.8815498  68.5644865  59.3202019  69.8230457  68.4584618  59.4564867
  68.7247658  69.4999552  59.4488430  72.4803400  48.0010176  89.1556644
  72.7099657  47.4443007  88.4116459  71.9639683  48.7106133  88.7734795
  80.3974724  41.6545439  76.2745333  80.5069923  42.5899315  76.4456558
  81.2477303  41.3714314  75.9381723 104.7991562  92.3446083  64.2467022
 105.0101185  93.2626057  64.0763569 105.6059551  91.8716240  64.0427542
  82.0745564 108.4495449  55.4783249  82.1531296 109.2680645  55.9683084
  81.3274384 108.0028439  55.8764505  93.1684303  50.4560328  64.0828037
  93.4699249  50.6667995  63.1991148  93.7626743  49.7673082  64.3807220
  15.6907284  54.2314625  66.8386126  16.4854908  54.4588661  67.3211765
  15.1171458  54.9894905  66.9509745  63.3336496  63.2451153  65.6767654
  62.9295588  64.0434361  65.3367376  63.3787251  62.6589918  64.9213409
  73.4351063  48.6067677  91.8000507  74.1395950  47.9699850  91.9201946
  73.0522966  48.3832264  90.9516811  95.4413223  63.5346270  60.5754995
  95.5842972  63.5104990  61.5216541  95.8882427  62.7550268  60.2457762
  36.8200088  47.4223375  13.2429099  37.4870348  46.7376709  13.2932794
  37.0277739  47.9005432  12.4401736  79.4730997  39.7951603   3.6380202
  79.1375017  39.3331099   4.4062087  78.6934900  40.1567221   3.2164592
 100.9580994  68.6559677  66.0755730 101.2030983  68.5017157  65.1632071
 101.7205238  69.0902233  66.4581680  50.8206892  33.7676835   0.1618898
  50.2699852  33.6592221   0.9372572  50.4426432  34.5175958  -0.2973955
 102.5389671 110.8272839  83.9602470 102.8012753 111.2215900  83.1284142
 102.3983192 109.9033165  83.7535191  90.8674526 108.5504532  77.9463243
  90.5065346 109.0262890  78.6943531  91.7100811 108.9722252  77.7781010
  72.4830055  78.5285616  72.5136757  71.8901730  77.8315973  72.7947760
  71.9085073  79.1921473  72.1317911  28.6534381  58.4404135   9.7164005
  28.1762910  58.6663294   8.9179492  29.3184757  59.1238308   9.7994769
  47.1218586  34.4421148  18.5334384  46.9754601  33.5153151  18.7227595
  48.0556965  34.5007372  18.3315849  86.0047817  78.5060263  31.0095382
  85.2527905  79.0980911  30.9952283  85.8640099  77.9220057  30.2643275
 105.2033234  83.5030937  88.2405376 104.6808052  84.0035915  87.6138687
 104.6488571  82.7586079  88.4741020  74.7974253  62.1595907  89.4040585
  74.2114162  61.5362978  89.8333931  75.6730127  61.7971373  89.5389843
  31.5474510   6.0420954  96.3001347  31.2329769   5.7781297  97.1648026
  31.6342187   5.2209949  95.8158779  38.4118581  12.8522980  90.4909897
  39.0265417  13.5399222  90.2349281  37.7088475  12.9062486  89.8436069
 101.8053341 104.6925926  76.0164261 102.2509098 105.0075531  76.8028736
 101.0253811 105.2430534  75.9463549   2.8221169  24.7096419  74.5090199
   2.6844549  24.0910649  73.7916327   3.6581072  25.1294279  74.3062067
 100.1158524  71.6279411  84.7813416 100.2351093  72.4847698  85.1910400
  99.3218136  71.7224646  84.2552185   6.1224025  82.3490906  45.9967089
   6.8788588  82.6673222  45.5040312   6.1025721  82.8938866  46.7834997
  87.7513599  71.7037964  72.8530169  87.8659821  72.6402187  72.6911306
  87.8823185  71.2950325  71.9974518  75.0732374  19.5625997   6.9093293
  75.2377653  19.7672629   5.9888536  75.5357647  18.7378037   7.0576829
  42.7677679 109.0681076  21.5107727  42.6289511 109.9625111  21.8222141
  41.9247913 108.6346149  21.6438365  18.2767618  35.4610443  17.9193950
  17.9004002  35.0125599  17.1621335  17.6929975  36.2040734  18.0722237
  91.6762257  99.1727448  79.0462208  91.1644840  99.2953873  79.8457956
  91.4888668  98.2733345  78.7775373  39.0062165  14.6598065   3.5766774
  39.8625684  14.6430779   3.1493419  39.1739082  14.3364644   4.4618672
  22.5882459  33.6286306  13.7479556  23.0722022  34.3932080  13.4358013
  22.0608616  33.3560443  12.9970944  17.7895927   7.1210754  74.1545868
  17.2206628   6.3867420  73.9237070  17.2214174   7.7219027  74.6366835
  96.2244511  31.1370611  11.4738178  95.8143902  30.5645728  12.1221554
  95.4921436  31.5959024  11.0622036  89.5386600  30.1298189  26.2526107
  89.0818405  30.3889751  25.4523683  90.3693867  30.6041193  26.2184787
  36.0256553  46.0202265   7.1844190  35.5611706  45.8268595   7.9987252
  35.5335712  46.7422962   6.7936522  90.3444481  91.6419315  94.9425125
  91.2814522  91.4758015  95.0457668  90.1578331  92.3514843  95.5572796
  89.9157715  69.1862059  82.3594570  89.4690228  68.4073591  82.0277214
  90.0540924  69.7311783  81.5847969  76.3167667  85.5307198  62.4878883
  75.4707956  85.7915497  62.1238518  76.1026430  85.1390743  63.3346462
  61.7049503  73.3691740  78.6389589  61.7124176  72.4273014  78.8094139
  60.9207821  73.6873198  79.0862799  52.4693251 106.5657234  94.5702171
  51.8046808 106.7201424  93.8989258  52.6143217 105.6197643  94.5505810
 104.2963028  91.4411259  79.6775293 104.2440891  92.3511124  79.3852663
 104.7676563  91.4834499  80.5095577  85.8699799  97.3165607  87.3759460
  85.9825230  96.3704014  87.4672985  86.7598534  97.6552200  87.2776508
 114.0361404  88.5987663  71.7159367 114.1089916  87.8531456  72.3117352
 114.3895721  88.2778358  70.8862829  69.6528864  30.5953312   4.0917113
  69.6358109  31.5285254   3.8793689  70.5500412  30.3223896   3.8997352
  10.2165043  19.9661124  77.6958084   9.6412045  19.2014873  77.7205324
  10.0666976  20.3507328  76.8321753  16.3215947  66.9309044   9.6764439
  15.6724060  66.2355852   9.7828239  16.0016084  67.4460793   8.9358783
 106.5371799  73.3439207  81.3920021 106.3921928  73.5638332  82.3122501
 107.4337769  73.0099201  81.3639545  97.6513767 101.3425159  83.5921288
  98.1883526 101.4951229  84.3696880  98.2740021 101.3533592  82.8651714
 114.6608734  96.9712067  85.7933426 115.4760170  96.5847111  85.4733372
 114.8990822  97.8660202  86.0358047 100.1456928  94.6737957  67.5154781
 101.0949039  94.7124004  67.3982573 100.0275421  94.3362045  68.4033442
  35.4816198  53.5878468  18.0954337  35.3988481  54.3599415  17.5357461
  35.5530024  53.9413166  18.9821112  80.4248238 108.2204723  69.2949200
  80.1197624 107.4759293  68.7764406  79.6393442 108.7470627  69.4430780
  51.2363291  57.6626253  11.2744594  50.6577682  57.0073366  11.6644514
  51.0753679  58.4573364  11.7831421  87.8771400  86.7009926  52.5747204
  87.1167660  86.5979862  53.1469440  87.7862072  87.5820446  52.2118187
  83.9103031  86.9454575  59.3235016  83.3640671  87.5856018  58.8673496
  83.5196877  86.8746567  60.1944971  25.2205753  22.0566034   6.0714549
  26.0776854  22.1343803   6.4904350  24.6614170  21.6629171   6.7412204
  67.3722267  90.7397747  73.6378288  67.9762220  91.1624622  74.2483616
  67.4916792  89.8027897  73.7928486   2.0841731 109.0307903  55.2353430
   2.2548530 109.4295120  56.0886383   1.1404124 108.8710403  55.2300882
  18.7627840  69.7706223  94.8047352  17.9144061  70.1158142  95.0828171
  19.0948558  70.4210758  94.1859722  87.0785236  73.9731884  86.9035816
  87.4555779  73.0942059  86.8653774  87.0151806  74.1661835  87.8389835
  86.2712860  13.9647889  22.1425128  86.0246277  14.8656285  22.3519874
  85.5522442  13.6393464  21.6009426  87.7369881  84.7746658  89.1629314
  87.8970718  83.8982964  88.8128185  88.0098152  85.3662682  88.4616375
 101.3214397 108.3758354  74.9215794 101.5132332 108.1222153  75.8244228
 101.1098766 107.5526333  74.4813395  82.2230721  57.5252342  74.6322489
  81.8678188  57.7083158  73.7624741  82.1957016  58.3684111  75.0845003
  66.6018677  33.4378862   3.3708128  67.5138283  33.7065959   3.4819469
  66.3086128  33.9038062   2.5877714  15.8164477  63.7263346   5.5217648
  16.6355538  64.0688467   5.8795083  15.3160250  64.5057964   5.2804244
  59.8955727  26.8417883  17.8914261  59.9874306  26.4289498  18.7501216
  59.5979023  26.1362696  17.3170865  15.7305324   5.1873791  74.3468857
  15.4605293   4.4089779  74.8341465  15.7156956   4.9130744  73.4299517
 101.5255356  94.3527508  57.5476217 101.0680580  95.0123596  57.0262146
 101.3531399  93.5274124  57.0944881  17.3331940 100.1965332  76.7371368
  17.8170037  99.3714046  76.7006826  16.8616343 100.2346420  75.9050226
  31.5395904   3.5372639  55.1464510  31.5741467   3.4102225  54.1983509
  31.3508415   2.6671827  55.4979706  91.3955784  84.0317726  84.0628910
  91.1064529  83.1298065  84.2010975  90.6067848  84.4958019  83.7823296
 112.0589352  79.1501474  75.2646637 112.0692253  78.2110310  75.0797701
 112.9039764  79.4664335  74.9451590  75.0286531  42.2122955   1.7985572
  74.9006796  43.1554222   1.6967392  74.9030972  41.8571758   0.9185823
  41.8756151  46.6114521   0.4626564  41.3506460  45.8141375   0.3924846
  42.7181959  46.3785362   0.0727244 104.0036869  77.3028708  87.0774174
 103.7540150  76.4983130  87.5319290 103.6596966  78.0058861  87.6284790
  91.8343353  64.5049429  71.8886757  91.2492180  64.5846987  71.1353493
  92.0838928  63.5809326  71.9013405  37.8204966  48.1713915   3.5473356
  38.4474373  47.9045010   2.8750658  37.5111127  47.3487139   3.9264357
  90.5033779  33.0699277  11.3769627  90.2241325  32.3174238  11.8984902
  89.9858665  33.0100989  10.5739462  80.5416298  88.8716412  30.6651926
  80.9649944  88.1954670  30.1362467  80.4803848  89.6283722  30.0822377
  99.2882347  94.2908287  94.3110275  99.5576859  95.0685692  94.7996426
  99.1335201  94.6085358  93.4214401 109.9705887 103.4591007  11.8498349
 110.1396942 103.9352417  11.0368598 109.1997242 102.9248524  11.6585922
   5.0023448  87.0345497  70.4532433   5.0459009  86.3487244  69.7869301
   5.1734293  86.5789127  71.2774754  94.2222595  69.0592718  91.4708519
  93.3474064  68.8090229  91.7679119  94.1797924  70.0107670  91.3755703
  73.8496685  19.8346186  29.2078733  74.3246698  19.8922133  28.3788419
  74.1340208  20.6042886  29.7008061  26.5191603   7.6539415  59.7294664
  26.8113995   6.7653942  59.5262146  27.3022127   8.0937696  60.0605440
 102.8349781  32.2021389  26.1869001 103.5732365  31.9189548  25.6474447
 102.9536629  33.1475735  26.2780070  51.8899488 101.1301231  69.6606255
  52.1628952 100.3050518  70.0618649  50.9393787 101.1475468  69.7717047
  19.9604297  24.8813772   7.4168837  20.6575394  25.5307579   7.3242944
  19.4251883  25.2061486   8.1409496  88.6627769  78.9840984  69.6650410
  89.5343399  79.0406847  69.2733717  88.7970924  78.4989071  70.4791594
  89.2630959  85.9675884  44.6216583  90.0200462  86.4336491  44.2666292
  88.9605522  86.5175533  45.3443193  80.4253197  70.5117798  84.7155952
  80.1070404  71.1738348  84.1019058  81.1535358  70.9361506  85.1693058
  81.3253975  84.3600845  72.1313477  80.5272484  84.5187092  71.6273308
  82.0361996  84.5136070  71.5089130  68.1339788  86.5970516  90.7498455
  67.4292564  87.2169495  90.5618954  68.0769253  85.9493542  90.0473690
 102.0202351 105.8533192  91.9469261 102.2738457 106.7516422  92.1589088
 101.4555264 105.9387875  91.1787987   0.3611172 107.2519875  70.1968241
  -0.2119132 107.0846558  69.4485807   0.8518748 106.4379215  70.3094387
  70.8193254 110.5241108  91.8424892  70.3510857 111.1152458  91.2529659
  70.1970053 109.8182869  92.0179176  43.4272385  38.3516431   4.7147754
  43.5775709  37.7224708   4.0092453  44.0023851  39.0877104   4.5058736
  61.3320875 104.0511703  96.2281990  62.0307779 104.6179199  95.9013081
  61.2714815 104.2591381  97.1605682 113.1496620 106.1281872  88.7767315
 113.1906700 106.9647408  88.3133316 112.2292709 106.0355282  89.0227509
 102.4186802 108.4417534  82.7053261 102.0150852 107.6922035  82.2676945
 103.3590221 108.2695961  82.6568127  74.5458698  55.2582312   5.1031911
  75.2596140  55.4888773   4.5085436  74.9274111  55.3375864   5.9774679
  58.1040049  28.4045887   1.8809822  58.9874411  28.5077929   2.2347003
  57.5262737  28.6005521   2.6185855  22.1156597  55.6061649  93.7407017
  21.9617343  55.3026009  94.6353436  21.3102627  56.0647964  93.5014915
 104.0676498  79.6022081  93.6474133 104.4046402  79.8816204  94.4986534
 103.8813782  78.6698294  93.7578773   4.9772841  32.4955940  64.9720097
   5.5714715  31.7801809  65.1986313   5.0265419  33.0932879  65.7180405
  58.3026028  27.6684046  10.8125675  57.5803423  28.2497811  11.0504138
  58.2896280  26.9841552  11.4817953  72.9604101  13.7055337  10.7028067
  73.5565710  14.3213832  11.1288941  72.1157122  14.1557229  10.6959260
  65.7273293  96.1913204  91.1114883  64.8780775  96.5016937  91.4256191
  66.2677240  96.9799232  91.0634518  95.9686279  62.7048492  29.0638137
  96.2910557  63.1774950  28.2964301  95.4056835  63.3346844  29.5139623
  13.9604044  90.8029652  63.9448929  13.0254865  90.7396317  64.1402054
  14.3064284  89.9333096  64.1454172  44.4022131  53.1101942  18.0014205
  44.1231823  53.4894991  18.8347888  43.5873413  52.8497934  17.5719976
  34.3238544   7.7172214   2.6700190  34.4335365   7.7073997   3.6208636
  35.1745033   7.4422449   2.3279411   6.0930526  13.7716675  72.1809578
   6.1199361  13.1118333  71.4880419   6.6732419  14.4673991  71.8718147
  54.9253607  76.7509079  32.4986792  54.5055771  77.6059961  32.5926805
  55.8512068  76.9179153  32.6751781  83.9418697  95.7825470  11.7815137
  83.4519482  96.0188103  10.9938669  83.9673042  94.8257542  11.7697656
  97.1145916 100.9744072  69.2767859  97.4237251 100.0918102  69.4809866
  97.8619099 101.5405560  69.4697237  86.3642311  14.4293880   3.3242348
  86.5949631  13.5297596   3.0925745  85.4070759  14.4377756   3.3280119
  14.2567253 103.0215454  84.7304726  14.5178807 102.2773647  85.2728939
  13.6233902 103.4983635  85.2669048  99.7542858  88.4264755  83.1901932
  99.2231846  89.2227554  83.2009983 100.0612259  88.3310509  84.0918159
  35.3673816   6.8978935  49.6128178  35.1396704   6.5580666  50.4782057
  35.1370072   6.1911613  49.0097523  15.5046427  99.9484730  80.7828808
  15.9689188 100.6351852  81.2615204  16.0958779  99.7133255  80.0677776
  89.4815350 100.1556778  65.1793718  89.0656471  99.9582672  66.0185957
  90.3739834  99.8216343  65.2698755 108.2257175  85.4285049  64.1349792
 108.9681053  85.0183105  63.6913157 108.5213947  85.5461025  65.0377417
 110.8809280 101.3437366  55.1572609 110.6847572 100.8251762  54.3769693
 110.2084255 101.0894203  55.7891560  83.6645317  83.3699226  77.3070669
  83.0417824  83.9648342  77.7247810  83.4755039  83.4435177  76.3716030
  32.3890567   6.0071367  10.2264142  32.2276998   6.6419339   9.5283967
  32.6348090   5.2038574   9.7675246  95.0450325  92.8825951  89.1404629
  94.0992928  92.8982735  89.2873192  95.4161549  93.2831669  89.9266243
  23.6492062   8.2930034  86.6480064  23.8358283   9.2314827  86.6737270
  23.2129359   8.1126422  87.4806881 110.1093864  94.5797920  91.3201523
 110.8966446  94.0732479  91.5198421 109.8968792  94.3459129  90.4166222
 104.3331242  88.4837818  83.5511208 105.1403713  88.1889343  83.1296444
 104.0998840  87.7715683  84.1465855  86.6343021  84.9845409  63.1189346
  86.4792156  85.7547665  62.5721788  86.8027973  84.2781544  62.4953556
  17.1912098 107.3646164   4.2050305  16.5609789 106.7315865   4.5489857
  17.9615021 107.2637367   4.7642305  66.0286903  45.3832197  16.3113892
  66.6003704  45.3774023  15.5436790  65.2283669  44.9481773  16.0173512
 112.7447891  72.6745510  79.1031456 112.9397011  73.5874414  79.3149805
 111.8375683  72.6878834  78.7981844  95.4401779  59.3898535  95.7359219
  95.1369858  59.9438381  95.0166035  95.2776146  59.9093580  96.5232658
  83.5912323 108.5370350  94.0508842  83.0051994 107.8153419  93.8229465
  83.2444477 108.8755989  94.8763180  74.0350866  95.0910378  86.3811398
  73.4687328  95.4995728  85.7264805  73.9983082  95.6829071  87.1325111
  41.5770626  22.2568870  31.3152289  41.6720247  21.5243864  31.9240427
  40.8796692  21.9839740  30.7190824  64.6432257  95.8142376  69.3213511
  64.6686459  95.1529598  68.6297655  65.0719261  96.5790653  68.9373016
  19.0516186   7.5159121  90.7744789  19.3151224   8.0020493  91.5557957
  18.6870015   6.6981161  91.1128426 109.0985394  97.8254986  55.8960295
 109.1682625  97.6822090  56.8398714 109.9346828  98.2221603  55.6515837
  80.2853680  68.9930439  72.3533964  80.2822971  68.1662035  72.8356409
  80.9293747  69.5342731  72.8100681  26.1145115  14.0843523  93.4157562
  26.2564158  14.7367954  92.7298832  25.4747248  14.4883800  94.0019798
  47.5126743  34.2504978   9.3025076  47.5727177  33.3907485   9.7189879
  47.1861458  34.0675831   8.4215117  29.6893454  60.9203291  11.8743503
  28.9297557  60.3593779  12.0311499  29.7152877  61.5055132  12.6313961
  66.2501669  88.3722878  90.0699425  66.1076593  89.3147087  90.1580334
  65.4687214  88.0530357  89.6186543  81.5047836  24.8657036  -0.0805751
  80.7095432  25.3716803   0.0861662  81.8429565  24.6571159   0.7902674
  40.5096245  94.2262650  79.4953537  39.6801090  94.6928406  79.3931484
  40.2916527  93.3099747  79.3246698  93.0769348  63.0493784  87.3226833
  93.9761925  62.8745508  87.6001644  93.0375576  62.7283001  86.4217949
 114.0431023  68.6733150  66.9909382 114.5007229  69.1557312  67.6794720
 114.7160149  68.1143904  66.6023302   3.1964239  77.9521894  93.4714985
   3.7169963  77.4533892  94.1011333   3.6752519  78.7737989  93.3623791
  74.5159626  39.9625397   7.3350924  74.9554348  39.3192911   7.8912663
  75.0454426  39.9916816   6.5382046   5.5126721  85.5534935  82.3808861
   6.2666637  84.9654198  82.3372269   5.1012957  85.4798317  81.5197372
  76.3807869  44.4708014  95.5610466  76.0895491  43.5746813  95.7295227
  76.4207506  44.8764706  96.4271164 113.2961845  92.4788380  64.0788555
 112.5333881  92.0197105  64.4303799 113.6385441  92.9774189  64.8207760
  98.4008312  70.0927401  95.9291458  99.0391922  70.3270435  95.2554798
  98.0619526  69.2414284  95.6522560  54.7582006  36.1813569  19.3043745
  55.5612278  35.7777786  18.9749801  55.0584745  36.8154216  19.9555516
  65.8446312  19.9490941   8.7692064  65.0760794  19.7273088   8.2434976
  66.5865755  19.8025727   8.1824476 115.8912277  86.0386562  86.1582375
 115.6775188  85.8316994  85.2484417 115.9360886  86.9945049  86.1822605
 106.9196796  98.2362080  87.4367142 107.2187519  99.0557289  87.0427895
 107.7153778  97.8328991  87.7837563   4.6975586  10.6492448  56.9054222
   5.0939888  10.8130658  57.7611303   3.9984787  11.2994921  56.8368816
 106.4456654  96.4130306  33.8443065 106.2332821  95.8216476  34.5663810
 105.6377983  96.4675140  33.3337998 112.6325035  22.4719548  94.9111557
 112.8073788  21.6208339  94.5096016 111.8363762  22.7815294  94.4792080
  56.5959263  34.1704440   2.9584059  57.3207140  34.0833807   2.3392679
  56.4265966  35.1117110   2.9981115   8.4681487  84.7985458  91.5200138
   8.9647245  84.0099907  91.3013268   8.7689728  85.0354290  92.3972988
  59.0619373  87.7454090  79.2506552  58.1251812  87.8499889  79.4173431
  59.2742395  86.8836117  79.6090794  40.8584452  44.0370464  18.1656885
  40.3166389  44.5527077  17.5683832  41.4778757  43.5822439  17.5949967
  44.7733831  24.7403312  37.3027873  44.6039152  24.5286822  36.3847899
  44.1149235  25.3995490  37.5220942 106.3506317  75.1533651  94.5986271
 105.6411648  75.1308346  95.2407837 106.5134811  74.2336464  94.3892574
 110.0976658  80.9722710  74.8228645 110.4612923  81.4073181  74.0516663
 110.8028698  80.4035473  75.1318312  55.9454060  16.7849243  20.3805971
  55.1596451  17.3266947  20.4533720  56.4288282  16.9542694  21.1892128
 111.6105175  84.6075344  94.5111275 110.8549786  84.0327740  94.3884182
 111.3396263  85.4435158  94.1316986 115.8026314  64.3153715  79.6027660
 115.5778980  64.6540833  80.4693699 115.2569294  63.5355043  79.5015144
  58.4731340  68.6796951  75.7677507  58.6936665  69.4924402  76.2227583
  59.2278719  68.5081005  75.2045870  14.6670532  76.2280226  75.1659441
  15.5038857  75.9065819  75.5015326  14.0418530  76.0461140  75.8675575
  70.3819180 106.4397049  95.6572056  70.2839613 106.6638184  94.7317791
  71.2058115 105.9543324  95.7001877 103.4633160  93.8002777  88.3898354
 103.3588028  94.7515488  88.3702469 103.6943245  93.6033440  89.2976189
  65.0003719  34.7235489   1.3819905  65.1772070  35.5872154   1.0091067
  64.3195915  34.8800349   2.0364207  30.4206800 102.7759838  13.4130180
  29.9649668 103.3286190  14.0479577  30.7452273 103.3878517  12.7523220
 111.1522579  96.7179394  86.4397144 111.7373371  96.0757256  86.8415642
 111.4533520  96.7821026  85.5333710  88.5432625  60.9752560  91.9011211
  88.6681080  61.8305111  91.4897919  88.3071804  61.1771011  92.8065205
  81.8665218 104.1626453  93.0696964  81.2978172 103.4045982  92.9348755
  81.8545914 104.3057156  94.0160656  11.3001001  94.1499519  69.3549252
  11.5828919  93.8411522  68.4941673  10.6034184  93.5449123  69.6094513
  29.4437766  49.2961216  96.6825867  29.5691633  50.2426147  96.6143417
  29.0121984  49.0520382  95.8638096  83.8200569  64.0413857  73.5379553
  83.9999008  64.0856314  72.5988436  83.3141422  64.8327351  73.7224817
  98.7190437  79.2681789  59.7430038  99.5405102  79.0954208  59.2830276
  98.9879704  79.5276737  60.6242371  69.1084051  53.3868217   7.3639679
  68.8338423  52.7481747   8.0219781  68.3022928  53.6157084   6.9013417
  86.5442276  73.2936335  67.1097708  87.0334148  73.6226177  67.8638935
  85.7309914  73.7984753  67.1130610  17.8647852  72.4099064  89.1142654
  17.8810978  73.2111835  88.5908890  17.4402344  72.6670313  89.9327278
  80.0956726  42.9316092  13.1658983  79.9211502  43.4659100  13.9406860
  80.2372360  42.0497084  13.5100508  74.7068644  30.9051156  30.8312654
  73.8322020  31.2404680  31.0280919  75.0708485  31.5355802  30.2097654
  74.3610668  51.9590616  70.4313135  74.2650270  51.4570427  69.6220016
  74.8325014  51.3722706  71.0226345 100.4937172  94.1136837  75.5542326
  99.9188995  94.6304417  74.9896240  99.9472141  93.8828945  76.3054323
  96.4704227  64.8094702  56.6579771  97.1248055  64.3793726  57.2084618
  96.7535210  65.7229996  56.6187191 104.0524769  84.9812317  31.1926246
 103.7931919  84.5388126  32.0008731 103.7548256  85.8837032  31.3074780
  95.9374428  91.5502834  72.4124479  95.9074211  91.6295147  71.4590073
  95.0347996  91.6997433  72.6937485  75.4390907  60.7452536  95.0041962
  75.8755684  60.9979582  94.1906452  75.6902409  59.8311567  95.1368046
  93.1428719 106.4114571  80.6558990  92.4248981 105.9291077  81.0658646
  93.1858349 106.0652161  79.7645521  82.3641777  96.1590004  58.0573940
  82.2088909  96.0782433  57.1163321  83.2974815  96.3587952  58.1298685
  89.3472385  12.9237103   2.6278758  89.6435547  12.0914507   2.9963458
  89.4016647  13.5413969   3.3570763  51.0313272  56.2313032  18.7655151
  50.1798105  56.2465239  18.3285737  51.0102987  56.9832945  19.3573785
  55.6253195  59.0733290   3.4030396  56.1175013  59.0749073   4.2240065
  55.2994680  59.9692774   3.3174127  32.5046444  53.4673452   0.1727806
  32.1698189  53.7211800  -0.6872734  31.7632604  53.0402327   0.6019152
  84.3816376  66.0789156  60.3684092  84.2506790  66.4413404  61.2446117
  84.9827480  66.6907692  59.9435186  69.0399265  48.3481359   1.1338961
  69.6818066  48.8818741   1.6022331  68.3425474  48.1973696   1.7719930
   2.8729367  73.8121843  70.0797653   2.4877277  73.4089899  69.3017673
   2.1309568  73.9565325  70.6670141 112.2014141  75.4044914  87.6293278
 111.4388084  75.9392452  87.8500175 112.9044533  75.7518196  88.1782627
  49.5589018  36.0710502   2.2120206  48.9595938  36.4360476   2.8630516
  50.3790903  35.9407043   2.6879725  43.1514978  63.8027096   1.9468315
  42.9684305  64.4536400   1.2693274  42.6781559  64.1185141   2.7165374
  96.8448925  89.5223331  66.5030718  96.3316917  89.1253376  65.7993317
  97.5893593  89.9269009  66.0577202   3.0276147   1.3537537  58.3760881
   3.6495256   0.9300911  57.7845097   2.3083465   1.6312583  57.8087473
   3.4706262  90.8197308  50.3628635   3.2938126  91.0938168  51.2627792
   2.7624536  90.2103615  50.1545620  91.1043072 110.0794411  42.3425913
  91.3749313 109.3631935  41.7681599  90.1880646 109.8907089  42.5453711
  88.3594990  65.0259542  96.2363815  88.9804363  65.4215860  95.6247044
  88.0323029  64.2517900  95.7782936   2.0728153  81.4909267  27.9953980
   2.7318764  81.7713070  27.3603725   1.2593745  81.4469814  27.4927902
  98.6392212 105.3557968  53.8275433  98.7728882 106.3008881  53.8993359
  99.4790459 104.9749374  54.0842199  63.4131575  62.3513889  76.7834663
  64.3298483  62.2474480  77.0386314  63.4418392  62.4838686  75.8359098
 108.7309933  77.1835041  74.9564695 108.6651897  78.1182337  75.1518726
 107.9610157  76.9962692  74.4195366   6.9255835   6.1791593  90.4453373
   7.8501463   6.2183195  90.6900501   6.6589463   5.2850127  90.6589699
  46.0815096  47.7373075   5.1533699  46.8901396  47.4428034   4.7343087
  45.3913879  47.2315311   4.7242323  19.1336060 104.1910648  54.0941763
  19.0837264 103.4758854  54.7284174  18.6963630 104.9249935  54.5259142
  44.4866896  10.0962353  96.2464809  44.8859167   9.7145635  95.4647064
  45.1685572  10.6591392  96.6131306  95.3445816  96.1226940  76.3186598
  94.6759129  95.9349442  75.6599760  95.7174683  96.9620037  76.0489416
  70.6453323  78.4597063  79.0931416  71.0287285  77.8871536  78.4287453
  70.5833054  79.3141222  78.6661100 110.7105446 102.2404766  52.4599981
 110.5374050 101.2991905  52.4752426 110.2196026 102.5864220  53.2053328
 110.3394032  99.4977951  53.2992363 110.9662628  99.4052601  52.5817966
 109.7341061  98.7652206  53.1844139 113.0647278 106.6893387  71.4570379
 112.3691463 106.3357258  72.0114422 112.6086617 107.2479820  70.8276320
 116.6980457  86.0475922  62.7356625 116.8637085  86.4754200  61.8955708
 115.8140469  85.6900978  62.6521826  16.6428089  38.8746595   0.2904900
  17.5911462  38.8503575   0.1628266  16.4153099  37.9864740   0.5654456
   6.4272165  10.7867599  62.0959234   7.1992910  10.3084803  61.7936277
   5.9145862  10.9402084  61.3022614 102.0993900  92.0347786  60.2267885
 101.4202499  92.6996422  60.1129723 102.0480442  91.7959309  61.1522865
  24.7498846  22.9010463  65.1754427  24.8006511  21.9927692  65.4732466
  25.5636311  23.0400920  64.6909666  36.4949822   8.4379387  94.0316391
  37.4363446   8.2654989  94.0134239  36.1391068   7.8993499  93.3248806
  13.9093900   9.1678274  91.3741493  14.7656322   8.9987689  91.7672157
  13.4163964   9.6195418  92.0590973  62.3619652  23.3709335  60.6912756
  62.5815868  22.5065637  60.3436232  61.4523602  23.2897019  60.9780693
  51.1435699   5.5797434  73.1810760  50.7292652   5.1670408  72.4232769
  50.4278660   5.7123178  73.8027000  58.6382866  33.6869764  76.5405560
  59.2835760  33.0412006  76.2527847  57.8754044  33.1670356  76.7933416
  40.3889036  14.7718382  59.0162039  39.6155429  14.5534050  58.4961700
  40.0719213  14.7940588  59.9191189 102.4067879 108.8888359  88.8766289
 101.9207954 108.0723000  88.7612343 102.3746490 109.3101311  88.0177307
  16.8666267  36.2216759  76.3050604  17.1137822  36.8673539  76.9670630
  17.5371826  36.3050318  75.6270981  62.8875780  58.1579113   7.0403922
  63.8059759  58.2515526   7.2933984  62.4082613  58.6863136   7.6785773
 103.5318470  96.3817120  12.3718166 103.9619160  97.1897507  12.0919275
 102.8990746  96.1945915  11.6784096  35.6436014  15.9330916  78.2716560
  36.0266328  15.0567138  78.2331705  34.7084880  15.7800376  78.4071875
   0.9907233  17.7993560  70.3307390   0.0745188  18.0016911  70.5201387
   1.1623560  18.2282090  69.4923735  50.0396109  31.1836052  84.8816490
  49.1704750  31.2055135  84.4812107  50.6159830  30.8674836  84.1858864
  53.8589525  33.4001946  92.7285767  53.7832642  33.5449028  93.6717510
  53.3090544  32.6353478  92.5587273  55.5140591  67.5935316  25.6347322
  54.9630022  67.9864740  26.3116121  55.6726360  68.3037138  25.0128579
  55.7774925  20.1967931  86.5408421  56.3727236  19.7237265  85.9593391
  54.9027872  19.9479210  86.2422085  92.3407078 110.0413799  93.0891705
  92.5792027 109.2912960  93.6338902  92.9064941 109.9687099  92.3205090
 112.2790432  93.2454109  91.5237904 112.6716518  92.9602909  90.6986904
 112.2342777  92.4504375  92.0550537  92.3098755  88.5802555  76.8511963
  92.2733688  87.6413631  77.0339012  93.0262375  88.6744022  76.2233496
   4.1912365  74.7177935  77.0330381   4.1467839  74.2941236  77.8902197
   5.0230086  75.1913881  77.0427942   0.4569888  97.3034859  86.1998653
  -0.2038478  97.7852535  85.7024479   0.5406529  96.4679623  85.7403851
  96.8446445  28.1804681  80.3450680  96.7135048  28.8679361  79.6920633
  96.8137550  28.6387777  81.1848545 115.7238388  90.8774567  60.6080627
 116.4030361  90.4693985  61.1451006 115.5599689  90.2453899  59.9081516
  42.9080915  19.6889436  82.0342064  42.2623920  20.3920293  81.9636536
  43.6955404  20.1194453  82.3671055  17.1994984 109.5155430  66.2961578
  17.8355157 109.0466785  65.7559061  17.1504211 110.3880405  65.9055376
   2.6324010  93.6657715  84.1361427   3.5085565  93.9621735  84.3825817
   2.7847737  92.9968739  83.4686184  53.8042831   6.3357759  95.7890987
  54.5416069   6.0613710  96.3343430  53.1271601   5.6796348  95.9540653
  23.2843065   7.5603360  72.4721289  22.9173756   7.1369660  71.6960144
  22.9301333   7.0605046  73.2076263  84.3736458  57.6672316   7.8312111
  83.4506798  57.5034332   8.0249649  84.7637272  56.7953348   7.7690369
   0.8671681 100.8103275  40.7513714   0.3149110 101.1986923  41.4299107
   1.6976517 100.6308079  41.1921692  11.2066555  92.9605007  88.1768513
  10.5147362  92.9050446  87.5177574  11.9374406  92.4714661  87.7986622
  73.5915089  40.9018278  17.4155784  73.6372948  40.0697565  16.9446313
  74.3768930  40.9109163  17.9626811 112.7718544  11.8516707  75.3616190
 113.6124897  11.4316952  75.1794147 112.5233364  11.5249610  76.2263298
  57.5916767  57.6542425   1.2728408  57.2457409  58.4453821   1.6859488
  57.0711374  56.9424391   1.6451474  36.8438172  26.5304685   3.2190809
  36.2859917  26.6393614   3.9892778  36.5331197  27.1935654   2.6026374
  93.1387424  11.9254923  15.6536782  92.5983715  11.1958146  15.9566522
  93.8738537  11.5086353  15.2041435  34.1356039   5.7950038  86.1648655
  34.5184827   6.6709834  86.2127590  34.3581581   5.4839885  85.2873802
  85.9258652  98.4165573  84.1025257  85.7629299  98.0085754  84.9529552
  86.5774155  99.0942001  84.2828655 110.7042980  62.0138168  88.9779091
 109.8034763  62.3373175  88.9875603 111.2378502  62.7952051  88.8330460
  13.6467838  37.0522332  57.0882368  13.8120794  36.2215781  57.5342369
  12.8823268  37.4159575  57.5349379 114.5850182  97.2839260  65.5574799
 115.3565502  96.9618225  66.0235310 114.8886776  97.4257278  64.6608639
 103.1689644  75.8395958  35.7811475 102.8969097  76.7056894  35.4776621
 103.2200813  75.3117228  34.9842978  79.3752241  53.1095600   8.8340372
  78.5935497  52.5646067   8.7432384  79.3535137  53.6883688   8.0719757
  22.9461145   5.7838458  77.1894884  22.3017359   6.4868307  77.1068859
  23.3612108   5.9379315  78.0381250  35.9771109  15.3270876  90.3400421
  36.3372731  16.0267115  90.8850574  35.9164977  15.7117689  89.4656372
  79.7148418   8.1373012  16.9524348  79.5764446   7.2541851  17.2947562
  80.6343269   8.1497991  16.6866910  63.1152296   5.3862834  53.0031443
  63.5542536   4.6400589  53.4113550  62.7639389   5.0384510  52.1834850
  37.2720742   5.1420099  54.6418905  36.6301894   4.5385584  54.2676401
  36.9440556   5.3247845  55.5223608  79.5567751  99.5601749  94.0441227
  79.9817181 100.0978565  93.3758736  79.4557428  98.7019634  93.6324310
  95.7623386  76.4776230  69.3366146  96.5745831  76.1041832  69.6787119
  95.3622913  76.9116974  70.0901222  56.3041782  27.1746469  27.1339512
  56.1854696  26.8887258  26.2281966  56.4365387  28.1205654  27.0711207
  85.6413841 102.5973129  84.9003315  85.0677681 101.9838715  84.4411087
  85.1522350 103.4200191  84.9115753  71.7606211  16.7865288   8.3214039
  71.4694262  16.3793480   9.1372716  72.1234798  17.6302624   8.5909981
   7.0305645 101.7319679  89.5989323   6.9626600 102.6710224  89.4262695
   7.2161752 101.6735744  90.5361462  46.6796541  30.8470798  28.0205369
  47.0379543  31.5397477  27.4655008  46.2061882  30.2761650  27.4154615
  98.8263416 109.6644020  76.9374800  98.7579346 110.4653740  77.4570990
  99.7414684 109.3983459  77.0268583  49.7612286  40.8124161  87.3654366
  49.2702866  41.6193676  87.2104168  49.1008854  40.1202488  87.3325634
  34.5953250  38.8912654  79.8723316  34.2790484  38.0780697  79.4787359
  35.5483150  38.8371587  79.8008108   2.7011913  37.0470452  75.7438946
   2.0742700  36.3892603  75.4430342   2.2510378  37.4978542  76.4582968
   8.1392705  60.1631975  89.3102169   7.2884727  60.5379963  89.5380211
   8.0889058  60.0107384  88.3665752  10.1512110  95.3689575  95.6723881
   9.4777870  95.9343624  95.2941608   9.6898687  94.5586205  95.8885956
   3.1835425 104.8390198  61.5228653   2.8585234 104.4738483  62.3458147
   4.0109989 105.2591324  61.7574978  38.6046791  21.6226506   2.6325500
  38.4514737  20.6786013   2.6717055  37.7367091  22.0109224   2.7425817
   7.8702283  12.3275220  70.0133753   8.6558324  12.5646007  70.5061769
   7.6474184  11.4504313  70.3253078 115.8039951  92.5092983  56.8678427
 116.2746239  92.9972839  57.5435734 115.4986763  93.1799412  56.2569046
 110.1375294  76.7845249  87.9550076 109.5634365  76.6248465  88.7041092
 109.7194958  77.5040340  87.4819565  85.7409859  40.8984900  25.9763622
  85.5966663  41.8175602  25.7511497  86.1386490  40.9247494  26.8466568
  95.4478168  73.3625698  15.0960910  95.8294392  73.2681656  15.9688354
  94.9751472  74.1942310  15.1300442  48.7359905  56.7637920  17.6254249
  47.8865004  56.8370771  17.1904290  48.5230255  56.6875172  18.5555112
  98.2324982  98.2908535  43.3415365  98.5282803  98.8674927  44.0459776
  97.8320503  97.5476170  43.7926245 113.7478447   2.8570083  63.4963894
 113.3479023   2.0441407  63.1873178 113.3876324   3.5340601  62.9236031
 104.0072918  97.4503994  79.1251183 104.3471909  97.8209400  78.3106232
 103.0624962  97.5969219  79.0789747  95.8681107  45.5211878  15.3356695
  96.4167500  44.8861790  14.8752332  95.8839512  45.2339363  16.2486148
  47.6437521 101.0500813  58.4646654  48.5899973 101.0978317  58.3283901
  47.3805618 101.9542408  58.6363268  68.9583683  84.0933800  72.1597385
  69.7554493  84.4937325  71.8124437  68.6693239  83.4970474  71.4690351
  86.2198925  66.4610386   5.8948392  85.4323578  65.9170914   5.8827293
  86.0141468  67.1933317   5.3137630   2.6790410  79.3941498  89.7126102
   3.5497114  79.7911978  89.6898556   2.5373656  79.0762997  88.8209057
  55.8413363  61.0644436   8.7274981  56.0901976  60.1785278   8.4639555
  55.4445362  60.9546995   9.5916367  91.9815731  71.0610914  80.5478287
  91.8984318  71.9059277  80.1055908  92.8510571  70.7460356  80.3009033
 105.7482052  91.2624264  81.9257832 105.8430862  90.3105354  81.9594193
 106.3504410  91.5869522  82.5952911  34.2423391   5.9438837  68.9186859
  34.0182805   6.8372113  69.1794395  33.3980083   5.5217862  68.7600327
 100.8839226 110.8143044  80.9134960 100.4592705 109.9575329  80.8705807
 101.8202972 110.6197929  80.8734608   3.6616862  81.4367104  78.9763451
   2.9480815  81.8692970  78.5074425   4.2711067  82.1433353  79.1897154
 103.7061596  79.3093157  74.1523457 104.5675468  79.5424128  73.8060856
 103.6840439  78.3530760  74.1157246 110.2825546 105.7229614  49.3688965
 109.7288036 105.0601006  49.7814560 110.2508163 105.5142593  48.4352636
  13.9924037  84.2071629  94.4463348  14.9466324  84.2013645  94.5214653
  13.8206661  84.6388054  93.6094189  18.6192584 108.7617397  92.9638290
  17.9898393 108.7553120  92.2427082  19.3153489 109.3488789  92.6689434
   6.5581071 101.3579750  46.4160395   7.4914175 101.1531448  46.4726973
   6.1200738 100.5163574  46.5427113 108.7131691  85.8203316  84.6912766
 108.9149475  86.6779613  85.0654221 108.7621498  85.9543991  83.7447834
  95.4652309  80.5981064  86.0802937  95.6735992  79.8615694  86.6550350
  94.6368408  80.9385872  86.4180470   5.0074679  78.0813980  83.6869049
   5.1949698  78.5271358  84.5129776   4.5608947  78.7402678  83.1552219
  23.5693121  15.2057493  27.8595209  24.4836259  14.9247682  27.8233171
  23.4908509  15.8562768  27.1617460  82.7632332  82.9647446  27.7928519
  82.8862000  82.3897076  27.0375800  82.1015453  83.5953045  27.5085902
  97.2047997 103.6232185  88.1355190  96.5832710 102.9822350  88.4805775
  96.8386269 103.8804436  87.2893620  32.6202869   6.5473700  36.6553283
  32.1262813   6.2844759  37.4319077  31.9586372   6.8932056  36.0562873
  27.9126477  26.4739251  84.1707230  28.2166243  25.6728053  83.7440681
  28.2104087  27.1791387  83.5960579 112.9245853 109.7549248  70.3032017
 113.0991554 109.8758030  69.3698502 113.7899494 109.7663116  70.7121563
  19.2087650 104.7533131  25.0615263  19.9959135 105.2736950  24.9007988
  19.0846300 104.2516613  24.2558146 116.3194656  78.6901522  94.6278667
 117.0804310  78.7095165  94.0475273 116.2125492  77.7656937  94.8518658
  39.7166729  43.9735317  56.3749170  39.8490644  44.8887968  56.1279440
  38.8372183  43.7651920  56.0596609  19.7040248  92.5606060  95.7907200
  19.2168462  92.1904278  96.5268326  19.1941309  93.3265591  95.5270004
  67.6641989  77.5062466  10.8959663  67.8647995  76.5846348  10.7328057
  68.1116104  77.7068520  11.7180455  33.7181425  89.5231342  91.8540192
  34.5538878  89.0681362  91.9576359  33.7963724  89.9799824  91.0165215
   0.1124904  94.3606186  40.3711557   0.9095871  93.9869976  40.7470226
  -0.5992696  93.8741589  40.7870674  99.6768475 103.5925293  89.4032192
  99.3482876 103.5777473  90.3021431  98.8994789 103.7472630  88.8665867
  42.2398949 107.2327900  78.1560326  42.4605656 107.4882507  79.0517282
  42.4789524 106.3073158  78.1051302  58.4580851  99.9455261  86.0160255
  58.1631327  99.3097019  85.3641415  57.9416084 100.7309246  85.8353519
  13.8006163  85.7327938  49.2468452  13.3993518  85.0762558  48.6774874
  14.6093512  85.9776783  48.7971640  62.6295853  85.0360775  65.3152323
  63.2427168  84.4802856  65.7962799  63.1872272  85.5984306  64.7776175
 100.9094906  76.0153294  55.6225348 100.6266689  75.1776648  55.9893560
 101.2834930  75.7897615  54.7707891  21.6838074  25.8911681  59.5548439
  20.7581615  26.1318779  59.5931721  22.1514130  26.7160988  59.6854830
  61.4424038  25.0796986  42.3194170  62.0999622  25.3169465  42.9732990
  61.9411612  24.6556163  41.6211128  33.7976408  27.6373959  65.3519583
  33.7807178  26.6856241  65.2515888  34.7151780  27.8759003  65.2197647
  46.3803625  21.4307165  77.5765133  47.2384977  21.6049814  77.1899033
  46.3693571  20.4841590  77.7184296  46.4098454  22.5601435  90.2825546
  45.6673241  21.9706631  90.1506138  46.5437460  22.9715085  89.4286919
  61.5190649  27.0836020  73.9267635  60.5755424  27.0780897  73.7656164
  61.8909359  27.5148034  73.1573439  12.0136154  24.1258478  66.4244223
  12.1486187  23.5889030  65.6435919  12.0846808  23.5100436  67.1537828
  33.4050655 107.4226952  68.7968683  33.1704116 106.9086647  69.5694923
  34.1721439 106.9774532  68.4368896  17.4464834   2.3990464  19.9097252
  16.6319811   2.7924606  20.2228427  17.1862078   1.8866962  19.1442275
  28.0234075  17.1962774  50.1685476  28.8302493  17.0895398  49.6647167
  27.6798820  16.3077140  50.2617025  49.4998169  23.2168031  63.9238596
  49.6974850  22.4604321  64.4761848  48.5826063  23.4167671  64.1108751
 115.8321953  92.5710011  63.2101679 115.7330036  92.9002571  62.3168659
 114.9664879  92.2320843  63.4380150  47.1053648  16.3305676  83.4238243
  47.2132969  17.2790039  83.3527565  47.5619030  16.0974646  84.2322063
  25.2101922  22.7090836  51.7864037  25.7367086  23.4349394  51.4515162
  25.6110358  22.4906373  52.6277351   6.7647266  95.4595947  55.4781055
   7.1483552  94.5836449  55.4359961   7.1954197  95.8740044  56.2257719
  14.5276594   8.6154783  64.7046232  13.6452150   8.3572829  64.9708176
  14.9190795   7.8120953  64.3617010 108.2040691 107.5563908  36.5573931
 107.2560501 107.6164246  36.4395642 108.3934021 108.1513882  37.2829080
  95.2145290  73.6035061   7.1304184  94.3569851  73.2176447   6.9516438
  95.6765270  72.9359531   7.6375294  59.4646978  22.4786878  85.8838654
  59.4401550  23.0067992  85.0859165  60.3259468  22.0612574  85.8684158
  20.8262157 107.3291683  55.8611727  20.2882814 106.8963242  55.1982164
  20.3893852 108.1669712  56.0144424  63.2626486  51.2445831   1.2820505
  63.4908724  51.0739326   2.1958469  62.8930616  52.1275282   1.2883557
  31.6119695  20.5900908  62.3270416  31.3843369  20.4118395  61.4145517
  31.1576223  21.4072776  62.5320005  22.5668693  86.6579247  61.6169310
  21.6559958  86.5940762  61.9041014  22.5113678  86.9540215  60.7083750
  59.7254181  33.4833074  66.7413139  59.5595026  34.4054246  66.5453482
  59.9628496  33.0981421  65.8978081  89.3238544  84.0694618  86.1345291
  88.9978790  84.6045876  85.4109192  90.2049732  84.4039536  86.3017941
  20.5766606  98.4133053  73.6873055  19.7456169  98.4380817  73.2129812
  21.2411094  98.3370972  73.0025196  98.1679249  50.8439302   1.9868071
  98.9130878  50.2927637   2.2259176  98.0247307  50.6632519   1.0577842
 108.8763618  50.3909492  21.6594005 108.7472725  51.1702967  21.1188555
 109.8198795  50.3632307  21.8182373  41.0212374   9.4319385  48.4447575
  40.5224943   8.7318158  48.8658476  41.7220783   8.9784312  47.9763699
 113.3349609  95.2065659  68.7932444 113.9000320  95.1026154  69.5588303
 112.7544117  94.4459534  68.8190079  56.1739683  21.8559718  72.4049187
  56.7595625  21.8346667  73.1617928  56.7144108  21.5528750  71.6753387
  76.5540934  97.3488712   8.9270097  77.4608326  97.2988033   8.6244500
  76.1893797  98.1047058   8.4666526   1.3727657 100.5434513  83.8868046
   0.9014416 100.9864521  84.5923805   2.1782184 100.2289486  84.2973804
  29.6338367  19.8111653   0.4447349  28.8580155  19.5184684  -0.0334516
  30.0966835  19.0034962   0.6676133  34.2451215  10.2549839  76.2552261
  33.4219503  10.1356471  76.7289162  34.4608259   9.3823588  75.9262466
  39.6436357  41.4596367  83.1338310  39.2977071  42.3456287  83.2414436
  38.9947248  40.8962965  83.5554886  45.0014019  12.2156310  84.1191483
  44.4601536  12.8717208  83.6800289  45.1931953  11.5695035  83.4394741
  33.9550304  19.6662343  39.8204732  33.5429049  19.3841887  40.6370735
  33.4281373  20.4111314  39.5310903  42.7962255  43.9374542  84.2692375
  42.2435808  43.2557249  84.6514130  42.2964573  44.2579937  83.5184288
 107.6574516  68.2498980   7.3056310 108.5926437  68.0463600   7.3203856
 107.5179863  68.6740923   6.4589667  68.5008001  87.9183483  10.0340807
  68.0949402  88.5474968   9.4376880  68.4761715  88.3483791  10.8888936
  87.4928665  81.9075584  65.6445122  87.2223759  82.0700264  66.5482140
  86.7830563  81.3841152  65.2724791  44.1533852   6.3868964  72.1166801
  44.2206717   5.8460790  71.3297749  43.5472775   7.0871890  71.8749046
  21.9771099   8.4868675  77.1269321  21.5030503   8.3607054  77.9488659
  21.4731550   9.1531014  76.6596031  83.4310913 107.9896736  31.7903447
  84.2446899 108.1923103  32.2521043  83.6068916 107.1588326  31.3487101
  -0.1675333  84.8329449  47.5091839   0.0631033  85.3767395  46.7559719
   0.6359946  84.3550301  47.7145576  44.7400045  19.8153508  96.4646816
  44.0197563  19.2100370  96.2884045  45.0374556  20.0925159  95.5981159
  52.9588890  11.7496634  45.6435776  52.9370403  10.9006989  45.2019739
  52.0820999  12.1105587  45.5123043  77.5820923   5.3890741  42.9498434
  76.7134428   5.0440282  43.1562901  77.8841448   5.7828259  43.7683535
  25.4370236  12.2044218  45.7136583  26.2929273  12.3149145  45.2995920
  25.0192881  13.0618405  45.6326532  69.5356083   6.4181650  68.6325979
  69.8269939   6.6099203  69.5239782  68.8212347   5.7908535  68.7438679
  73.3490086   1.5134025  63.6927080  72.5897217   2.0563984  63.9045382
  73.1019306   1.0601462  62.8866434  84.6636200  82.6689911  38.9761972
  84.8409939  82.8776455  38.0590081  83.8135052  82.2293091  38.9617276
 109.2733002  66.2927008  83.6837196 110.0425434  66.5795279  83.1915569
 108.7283421  67.0764351  83.7545300  96.0468483 107.0816040  81.5772724
  95.4500198 106.3837528  81.3070202  95.5304146 107.6193142  82.1776104
  32.6300216  24.4826913  85.2873325  32.4900842  23.6557937  84.8259258
  32.5382423  24.2587256  86.2134171 100.8521461  97.3068333  73.1676102
 101.5315914  96.6844940  73.4270048 100.4861641  96.9401741  72.3627186
  48.1408453  94.1976357  52.0741749  48.2327938  95.1450062  51.9728136
  47.3376751  94.0880585  52.5832319  17.3325765  81.5223885  94.8033905
  18.2745063  81.6819000  94.7437572  17.2297323  80.6019974  94.5614529
  54.2984772   7.6857334  46.1755896  53.6078215   7.3844826  45.5852747
  53.8496113   8.2599378  46.7961025  30.3966236  82.9683304  56.0262299
  30.1331043  83.7112808  56.5691900  30.6814790  82.3029804  56.6526556
  31.9634771  76.9837570  65.5458307  31.8209195  77.6403522  66.2275934
  32.8706336  76.7040730  65.6686020 114.8396778 107.0501614  69.0746689
 114.0500069 107.2475052  68.5709810 115.1460838 106.2146664  68.7221003
  26.5240979  23.6838937  85.6362820  27.1855593  24.2753482  85.2772713
  27.0236468  22.9348207  85.9611988  13.1681538  53.5950613  92.1140194
  13.0157471  52.8475523  92.6921463  12.8103507  53.3214760  91.2694073
  34.9151349  10.8801866  85.4319859  34.5353627  10.4035819  84.6938419
  34.1982818  10.9573281  86.0615921  24.2229104  14.7323477  72.6784849
  24.5058036  15.3448355  73.3575010  24.9739718  14.6647239  72.0889378
 115.8007336 100.3017712  62.0396376 115.6543541 101.1399364  61.6011429
 116.3534641  99.8079109  61.4339733  45.6872034  14.4265819  44.5010948
  44.8900700  14.9152124  44.7061539  45.5307817  14.0689921  43.6270857
  56.3752937  14.7842634  32.6266003  56.9930887  14.9122250  31.9067502
  56.9078064  14.4311965  33.3393431  12.2254586   2.6388469  68.7472486
  12.3555112   3.0468139  67.8911638  12.7551830   1.8422034  68.7158823
   5.1809680  51.5893602  18.8105059   5.8157295  51.3486290  19.4853091
   5.5545181  51.2485123  17.9977846   7.1504873 110.2226448  51.6523933
   6.2928838 110.5218410  51.3503504   6.9537711 109.5381832  52.2919512
   6.8229634 104.4473648  89.1033077   6.4499635 105.2954006  89.3440247
   7.6906890 104.4439888  89.5073795  74.0187216  54.1565084  10.9723258
  73.2256699  53.9122820  11.4494574  74.2331171  55.0314283  11.2960231
  29.6902132  17.2204888  70.5790567  29.4550228  16.5707743  69.9166441
  30.2858543  16.7572713  71.1680126  45.7386684  26.7958307  88.7198830
  45.2836132  25.9543610  88.6868858  46.5617561  26.6055226  89.1699314
  33.3846974  24.1582012  72.1961212  32.7540922  24.3928981  72.8769159
  33.9659095  23.5242486  72.6162767  52.1091461 102.2041130  61.6431379
  51.1763573 102.0632458  61.8053102  52.1611404 102.4137783  60.7106304
  73.6348200   4.0038463  75.8657646  73.8226652   4.9118963  75.6282997
  72.8892326   4.0618545  76.4632320  60.3810120  25.6713223  81.2371731
  60.1100636  26.3127351  81.8939877  61.0285378  25.1277637  81.6860485
   9.3239266  83.7075615  21.6752529   9.4595110  82.9152584  22.1949697
   9.6219265  84.4193935  22.2415709  25.9703565   8.5222852  40.5324459
  26.7564559   8.7601799  40.0408316  25.5022025   9.3488455  40.6501770
  31.4725232 103.5324764  87.5666142  31.1674404 104.1504383  88.2309055
  32.4047971 103.4213543  87.7530289  55.8508158  20.3908229  59.3320417
  56.4309359  20.6128478  58.6037588  55.8232069  19.4340229  59.3331575
  33.3678269 100.7667446  49.2888594  33.6617875 101.0716152  48.4304428
  33.6204076  99.8438358  49.3146563  50.0226927  18.4487557  76.0372019
  50.6653786  19.1104734  75.7816362  49.3499088  18.4933269  75.3577852
  90.8794594   1.8991153  84.7762012  90.8805084   2.8339708  84.5705891
  90.0143909   1.7376851  85.1528072  88.3213806  12.9459715  80.6176186
  88.7412834  12.1125793  80.8306217  88.9640713  13.4071195  80.0786114
  18.7955153 100.3266525  69.3272781  18.4597647  99.4721031  69.0566492
  19.3265259 100.1410389  70.1017475  88.8738251   8.8208848  38.2866669
  89.0783405   9.7279221  38.5140204  89.4604874   8.6185169  37.5579023
  53.1391907  94.5508957  89.4631767  52.2239161  94.7139835  89.2353630
  53.1808043  93.6089134  89.6279907  66.1759329  35.5181646  68.8346624
  65.7330513  36.1362815  69.4160604  66.3288641  34.7453880  69.3784142
  55.3018141  23.9073920  75.7404757  54.5751381  23.4221601  76.1312771
  56.0146189  23.2706404  75.6886530  23.2588053   7.3700559  67.6062679
  22.7667642   7.2921038  66.7889261  23.4197211   8.3089316  67.7003479
   0.3767668 106.7797375  73.0291891   0.4929148 106.7011356  72.0823193
  -0.5648435 106.6736794  73.1646204  31.9640899  28.8555431  68.4427547
  31.7645741  29.6309566  68.9673138  32.9021025  28.9221215  68.2640600
  88.1473446 104.9491119  53.0972719  89.0424347 105.0759411  52.7826977
  88.1965351 104.1707420  53.6522150  56.1840200  39.8534179  67.6028633
  56.5044165  39.6307182  68.4769249  56.3551235  39.0710998  67.0785236
  94.5613861  69.8779821   8.3777201  94.3247700  69.6827602   9.2844349
  94.8097134  69.0310049   8.0073190  10.5802894 104.2230320  56.5621710
  11.4999044 104.2086983  56.2969685  10.0944102 104.0833473  55.7493734
   9.0360463 108.4074402  44.9147272   8.7956232 109.3136597  45.1075792
   8.2001615 107.9623508  44.7753572  53.2612276  35.0042653  79.5061111
  52.6376295  35.0395942  80.2314472  53.7233782  34.1748977  79.6277618
  23.2449555  33.0124211  80.8866215  22.7780056  32.5612307  80.1833344
  24.1515732  33.0560064  80.5826950  65.8327103  13.8381493  56.8970919
  65.2583456  13.2118559  57.3376513  66.1128664  13.3870590  56.1006832
  46.7309904  39.7213221  50.8676910  46.8589401  40.4961920  50.3204823
  47.6159477  39.3962789  51.0333061  39.5505238  18.9362347  94.8324585
  39.3652821  19.4936657  95.5882263  40.4138565  19.2197478  94.5316124
  78.3189011   0.5074161  88.7781906  78.9728260   0.1204560  88.1960678
  78.7664032   0.5891706  89.6203899  10.5111432  84.6170139  83.9039993
  10.9898019  84.0379333  84.4971085   9.7397798  84.8861885  84.4027710
 116.7722607  86.8106461  82.1071148 117.5044441  86.6802120  81.5045071
 116.0478878  86.3250351  81.7125416 110.0198364  15.3870022  55.3771877
 110.4496288  15.4253304  56.2316132 109.8575974  14.4548452  55.2322912
  50.5621481  17.0643342  80.3524399  51.0176563  16.5800297  79.6638250
  49.7926998  17.4320793  79.9177599  45.2880764  23.0596972  79.4775248
  45.9391308  22.8153872  80.1353073  45.5907631  22.6385880  78.6729908
  54.0759516   2.5683045  72.9349327  53.8082075   2.5917295  72.0162392
  55.0302553   2.5003347  72.9046249  63.4676456  11.8102384  76.8580389
  63.3901310  12.6405609  77.3279190  64.0861893  11.2974501  77.3783064
  42.5055027 105.0583839  95.6062603  42.9235029 104.5172024  94.9364662
  41.5677786 104.9126816  95.4810715  39.8104644   2.4904785  38.5617685
  39.1049099   2.9676354  38.9985132  39.5012832   2.3752657  37.6632333
  75.0730133  68.1040621  65.6600237  74.9649096  67.3463202  65.0852442
  75.1143408  68.8523817  65.0645876  57.8352451  16.7131329  87.3442745
  57.6715612  17.0121586  86.4498425  58.6381769  16.1959291  87.2807503
  75.5751991   8.1110597  64.6718693  74.7219086   7.9718220  65.0826454
  75.6399918   9.0606391  64.5702171  34.1604900  47.9916906  73.6451197
  34.3967247  48.7856865  74.1247034  33.2112598  48.0507231  73.5369158
 108.1906033  11.1860144   5.2266455 107.8311253  11.6655338   5.9730184
 109.0386963  10.8656442   5.5337739  90.2962303 103.8591385  78.0092144
  90.9366322 103.2078362  78.2954264  90.8210754 104.6253014  77.7773523
  23.4298420  26.3924885  68.1886864  22.5036001  26.6176677  68.2758665
  23.8212729  26.6628814  69.0192890   7.5038826  89.7005177  83.4870529
   6.8146139  90.3609371  83.5576820   7.9010588  89.8594761  82.6307774
  62.6066780  97.8697968  89.3198109  62.8701544  97.5075054  90.1657200
  63.3911276  98.3104515  88.9931774  28.3989120  30.4123425  70.6678057
  27.5265074  30.1986837  70.3369141  28.9474583  29.6797180  70.3874683
  88.7743568   8.2830930  71.4596224  89.1274452   9.0687275  71.0420895
  88.0162048   8.0477613  70.9247780  39.9334431  27.5007463  57.5149488
  39.1142964  27.2229552  57.9249001  40.1366234  26.8047166  56.8900537
  74.9865675   7.8461170  55.8403921  74.3544769   7.7721059  56.5553904
  74.4731760   7.6834977  55.0490522  27.6324177   1.9335946  75.8650064
  27.7269745   1.0766242  75.4492044  28.1044555   1.8511546  76.6936302
 115.2651882  10.0792706  74.6974373 116.2082291   9.9540180  74.8033571
 114.8978901   9.1976041  74.7605705  35.0605106  43.3364248  76.2648773
  34.8516035  43.4352779  77.1937561  34.7529864  44.1486597  75.8624601
  52.9456329  33.7642884  49.6995497  52.7505732  34.6462011  49.3826628
  52.6932621  33.1890082  48.9773369  82.8659153 101.7375946  76.2638569
  82.4492073 100.8806705  76.3548470  82.5965595 102.0441818  75.3980160
  27.7680016   1.6779968  39.0444994  26.9139194   2.1101050  39.0368938
  28.3245254   2.2379024  38.5031867  68.9627266  17.0873392  92.3680687
  68.1848001  16.6016841  92.6422882  69.3818903  16.5217614  91.7194939
  58.2657528  20.0395536  85.0500965  59.2205000  19.9710894  85.0503254
  58.0930805  20.9800649  85.0070477 101.0347641  56.6195923   0.0636072
 100.4931391  57.0536206   0.7227678 101.4616525  57.3364986  -0.4054862
  80.9304142  11.7684519  91.6930580  80.7830620  11.2017548  90.9358406
  81.8455029  11.6181636  91.9302177  13.2420051 103.6621571  55.4859972
  13.2817137 103.1370926  54.6866417  13.3639896 103.0298519  56.1941957
 114.0264606  99.9748516  77.9772234 113.5275173  99.9528408  78.7938023
 114.4715691 100.8221436  77.9912758  53.4248066  36.1243439  53.7245512
  53.1153297  36.3001513  54.6131182  52.6252747  36.0245895  53.2078075
 116.9763756  93.0576229  50.0246048 116.4746571  93.6481285  49.4626236
 117.7497101  93.5636520  50.2738523 115.2981186 109.2066956  88.4293079
 115.6946278 110.0185299  88.1131744 114.9363804 108.7953091  87.6443577
  55.1152754  26.0179806  48.1046772  55.2089882  25.2289462  47.5709438
  55.9834337  26.4208984  48.0910110  34.2017961  97.4812222  83.8941193
  33.5806274  96.9777107  83.3679485  35.0622368  97.1804905  83.6018372
  42.1694279  26.5399122  91.7658901  43.0181408  26.9175029  91.5349388
  41.5426445  27.2464490  91.6103745  68.9483547  42.5293207  80.0155163
  69.1084528  43.0385208  79.2209625  68.7111998  43.1818438  80.6744576
 117.6876736 101.9373989  66.0198116 117.1538353 101.8157482  66.8049526
 117.1377468 101.6179943  65.3044128  35.7786393   3.8474685  65.6467724
  35.6605244   4.1090217  64.7336102  36.4977074   4.3951824  65.9617043
  79.7391653  40.7119131  85.7537937  80.2110958  41.5379810  85.6483173
  78.8425779  40.9733868  85.9635544  86.9385910  98.3553219  44.4543028
  87.5750732  98.0375004  43.8139009  86.4440441  97.5759029  44.7075891
  28.6718702  24.3792605  82.6924992  28.4314823  23.5029387  82.3916531
  29.4526458  24.6009064  82.1850586  27.2160625  96.4861584  51.4677143
  27.1917176  95.5690479  51.1946678  26.7826271  96.4935589  52.3211288
  51.6143608  11.0379195  63.0239868  52.0229769  10.3937292  63.6021614
  51.1569452  10.5136549  62.3666048  42.1184635  18.8759148  58.9542198
  41.5793657  19.6453202  58.7708712  41.7677546  18.1953120  58.3797550
  38.8343692   0.8378045  73.1958246  38.7021852   0.2925081  72.4203157
  38.3162045   1.6246180  73.0265236  92.2760963  68.5730934   4.2369440
  91.8672848  69.1393089   4.8915488  92.7405834  69.1754007   3.6558169
   1.8506363 101.4279747  68.4506083   2.0709725 101.7505741  67.5767565
   2.5551683 100.8164406  68.6648512  84.2739677 102.1921539  68.2290173
  84.1432571 101.4652538  67.6201105  84.6242619 102.8988457  67.6867056
 110.2506256  89.0988445  69.4516706 110.4945564  89.6943569  70.1602602
 109.5451355  89.5520973  68.9900637  20.5032992  97.9872322  93.0591393
  19.8024166  98.0667305  93.7061882  21.2833309  97.7827740  93.5748672
  37.9764009  18.0448639  45.7878590  38.3047748  18.8998675  46.0660172
  38.6712766  17.4318087  46.0277414  98.0066299  94.7236347  72.0688105
  97.1152210  94.6994019  71.7209101  97.9610634  95.3375435  72.8017950
  25.4250741  95.7237053  79.6141005  25.5029035  95.0401974  78.9485312
  25.5547404  95.2653980  80.4443836  24.2026043 110.2298450  93.8599968
  24.5667315 110.2502251  92.9749966  23.9071393 109.3269062  93.9766979
  45.4454416  -0.0079300  77.8762865  45.1742059   0.1058720  76.9654036
  45.6676334   0.8748863  78.1721067  73.3709049  11.5366769  77.4223280
  73.1362820  11.5591252  76.4945984  74.1298389  10.9548151  77.4634314
  79.5267057  25.0961256  89.8157406  78.9173174  24.3618035  89.7405720
  79.3232822  25.4903197  90.6639481  13.2427692 111.1939430  63.6343861
  13.8281000 110.7440853  64.2436838  12.4482560 110.6601620  63.6272669
  39.0195704  36.0583282  57.1075821  39.5229459  36.6781116  57.6355171
  39.6525621  35.7083631  56.4806271  55.4997349  21.7529798  52.0982552
  55.6574011  21.3164186  51.2611246  54.6083689  21.4985514  52.3369265
  18.1769753  37.1215510  47.3179579  17.7304876  37.9537725  47.4738026
  18.8187802  37.0579481  48.0252600  62.8153563   4.7163185  44.8548746
  62.6888704   3.7680426  44.8865938  62.0610952   5.0422662  44.3638754
   7.4857646  83.4648609  60.1805258   8.3478355  83.7601471  59.8874950
   7.2567707  82.7580738  59.5769882  63.3047962  26.9055438  77.7963257
  62.6343632  26.2296438  77.8958893  62.8517437  27.6307654  77.3661757
  95.3781319 103.9183331  55.7100964  96.1262226 104.5028210  55.8324194
  94.6186543 104.4468498  55.9552193  27.5073171  19.4580340  74.7360706
  27.3464870  18.7999701  75.4123259  27.1362448  20.2646470  75.0937223
  54.2413330  39.2115116  65.5459595  54.7047949  39.9945402  65.8431149
  54.8902273  38.5106730  65.6091547  52.0869684  27.2523499  35.7691407
  52.1046448  26.6688204  35.0105810  51.2020063  27.6171398  35.7701302
 109.4407845 104.5087433  74.5236969 109.1883373 103.8948631  73.8340139
 109.7574997 103.9524364  75.2353477   6.5894759   3.5397360  83.9721584
   5.9495574   3.1045696  84.5355129   6.8054718   2.8869140  83.3062840
  55.7272673  17.4687147  59.5321274  55.0143909  17.3427117  58.9058971
  55.3429985  17.2469258  60.3802872  30.9741759 107.0499516  54.7428274
  30.4826427 106.2908649  55.0565434  31.3665104 106.7578697  53.9200306
  52.7757692  37.5589037  95.3558254  52.9982471  38.4830427  95.2431107
  52.9130363  37.1722960  94.4910049  32.7367163  95.2899837  71.2900066
  32.2559547  95.0750637  72.0893240  32.4759769  94.6139050  70.6645775
  52.3088884  38.7600589  90.2672195  53.1915665  38.4136581  90.1363754
  52.2184324  39.4425821  89.6022320 117.0547771 100.5963135  68.4091282
 118.0072689 100.5076790  68.3753729 116.7961502 100.1063347  69.1896820
 106.9563198 110.6246090  75.1484823 107.5378132 109.9206352  74.8612309
 106.3770962 110.2107239  75.7883596  75.5549574   3.8047123  82.8434658
  75.5022430   4.6829370  82.4664021  76.2078762   3.3532140  82.3085976
 102.1517086  96.9590473  76.9672298 102.8539467  96.4996910  76.5067005
 101.9208908  96.3783550  77.6923132 105.0398922  87.9753685  59.4580984
 105.3333569  88.4171200  60.2549505 104.7085190  87.1300125  59.7610664
   9.5647413 104.2497826  67.6380062   9.8685098 103.5828876  67.0222092
  10.2551532 104.2974281  68.2992887 106.1641216  78.7299585  44.1342783
 105.4131126  78.9794016  43.5957718 106.8907356  79.2466354  43.7859821
  47.5338745  12.9548764  54.7696066  48.2268763  12.3390448  55.0078011
  46.8061638  12.7329278  55.3504753  27.4414706 110.8174038  81.0845852
  27.7654243 111.2840176  80.3141594  27.5676823 111.4320087  81.8074703
   7.3440194 105.1928902  92.8563023   7.0571625 104.6007919  93.5515499
   7.7071375 104.6155548  92.1846962 112.8201294  12.6265740  52.6483250
 112.6856041  13.5739517  52.6236105 113.3713341  12.4430048  51.8875980
  77.9245329   3.3087632  81.5694618  77.4738550   3.1722257  80.7361031
  78.5107803   4.0476623  81.4064598  52.1715069  17.5660479  67.0663166
  52.6498747  18.3895850  67.1621418  51.5881109  17.5382996  67.8246784
  94.5345497  56.5759659   3.7541711  94.4576073  56.5109587   2.8022859
  93.8810253  55.9623528   4.0897527  50.0659132  13.6452651  74.4772863
  50.0456333  12.8065145  74.9380636  49.8967648  14.2966366  75.1579714
 110.5501461  90.9855175  49.9255800 111.3696098  90.6433201  50.2828121
 110.1422596  91.4449692  50.6595802  26.7827749  43.7691784  84.6810150
  25.9679818  43.2668686  84.6862125  26.6895819  44.3690968  83.9409828
  61.4963722  51.2275505  18.5217059  61.6258049  50.7679653  17.6920903
  60.7764196  50.7597589  18.9448690  68.0418158   5.8175600  79.1145754
  68.8228607   6.3063014  78.8550997  67.3179293   6.2826091  78.6951113
  59.6655369  24.4687724  84.1663170  59.5789480  23.8402271  83.4496117
  58.9789867  25.1152563  84.0021801  63.1789780   1.0651358  79.7735500
  63.0928564   0.2200336  80.2147102  62.4199677   1.1102322  79.1920853
  34.8175383  43.5504675  72.7753830  34.8048425  44.4872522  72.9716110
  33.9192653  43.2603359  72.9340124  20.1914668   8.5250801  55.3030396
  19.8487580   7.8596240  54.7064209  20.8729839   8.0728275  55.8002663
  72.6635838  28.0053926  85.3943062  72.5382900  27.6977873  86.2920380
  72.1457529  28.8087201  85.3419209  45.4225731  31.8470883  62.7352524
  44.5345926  31.7394543  63.0760384  45.8155680  32.5147438  63.2974148
  71.5804529   8.6314917  60.6515169  72.0078468   8.3106136  61.4456224
  70.7771158   8.1151080  60.5865145  17.7348316  31.3476419  68.7976408
  18.1610870  31.4861798  69.6434212  18.0932581  30.5181789  68.4818029
  79.9560404  52.4566031   4.6519023  80.5905342  53.0905104   4.9862853
  79.1157770  52.7502728   5.0039613 105.8764648  31.8022108   9.8725379
 105.5400848  31.0761261  10.3977859 105.1233196  32.0962000   9.3601257
  29.9493837  16.4128506  79.7417593  29.3823647  15.9224403  80.3369236
  30.8018494  16.4229107  80.1770020  30.8391118 104.7219753  83.2964706
  30.1054454 104.1941357  83.6116791  31.3700414 104.1123104  82.7839756
  15.7785690  31.5314221  92.6762390  15.2998292  32.3495030  92.5428867
  15.2528346  30.8701563  92.2261620 113.7645626 104.2503071  70.4561329
 112.9782200 103.7486458  70.6711435 113.4849739 105.1646805  70.5007362
  71.1995220  34.1738343  73.9563513  71.2568474  34.4798350  73.0511951
  71.3584614  34.9563336  74.4842386  25.5479264 109.6219635  67.0963383
  24.8341441 109.0442085  67.3664188  25.2302909 110.0361156  66.2939548
  67.3232985  20.4620910  22.6789904  67.0466614  19.5758581  22.9120064
  68.1520605  20.5838728  23.1421852  67.6700258   8.7056458  56.0231447
  68.3303881   9.3528676  55.7756376  66.8860579   8.9664847  55.5398369
 106.2642765 100.6326866  45.4880810 105.7480335 101.4189434  45.6656075
 106.1987495 100.5119610  44.5407867  60.5250454  10.7505119  29.8820233
  60.8059645  11.1135876  29.0420866  60.0671721   9.9419230  29.6523118
  24.7251487  95.2604008  75.6768560  23.7849665  95.3960991  75.5590725
  24.8771501  94.3640709  75.3773212  52.8500414   0.3181415  69.7048616
  52.8109646   0.1256966  68.7680197  53.0558014   1.2519139  69.7491789
  13.4423947  41.1359930  54.9047804  12.7905250  40.4412937  54.8115540
  14.2534089  40.7492876  54.5747089  79.7549486  10.0883305  55.3883648
  79.1632271  10.8026671  55.1520967  79.8337698  10.1475906  56.3404703
  41.6218424  89.8487854  81.0299110  41.1174202  90.4175663  80.4482841
  42.5324440  90.1065922  80.8864689  43.3283901 111.2861443  50.6306839
  43.1843853 112.1517181  50.2482224  43.9546919 110.8652592  50.0417614
  24.9973726  26.7563248  70.4653835  25.7787251  26.2741065  70.7359123
  24.3542767  26.5741229  71.1505556 111.8938160  67.8067636   4.8742938
 111.7438412  67.1306467   5.5350554 111.2893486  68.5104704   5.1101923
  95.8372498  64.3016958   1.9707979  96.2405396  64.0379906   1.1437249
  96.2333393  63.7257767   2.6247567  94.2433929  40.9658909   7.5002092
  93.8619232  40.9658384   6.6223061  93.6480808  41.5059376   8.0199999
 103.6558628  96.6731453  61.1035681 103.2518387  97.1882534  61.8018913
 103.0857086  95.9102249  61.0081482  31.2133718 106.2416267  42.6289463
  32.0532131 105.9255123  42.9620600  30.5939507 105.5428219  42.8392172
   1.8257047 103.4859467  74.1588354   2.4375369 103.0083084  73.5986996
   2.3794140 104.0772915  74.6686888  67.2642231  15.7865846  89.0627098
  66.3939714  16.1216307  88.8467503  67.8017044  16.0082376  88.3023071
  86.8006039  47.4774599   0.3692154  86.0251045  47.2609615   0.8868590
  86.5744686  48.2976294  -0.0694387  30.7420087   9.6355617  68.3256149
  31.4335871   9.3281037  67.7395964  29.9540901   9.1831905  68.0243254
  41.1984301  24.6617270  69.6374035  41.4349985  25.2102327  70.3853416
  41.0380697  25.2823091  68.9264917  76.8704081  56.5868711   4.2568469
  77.7002621  56.5807676   4.7338545  77.1047783  56.8669891   3.3720669
  22.7712440 107.6267338  46.6691732  22.6213694 107.4820805  47.6034355
  22.3028898 108.4384632  46.4743280  91.5395641 104.4676876   5.9696996
  91.5562534 105.3176880   6.4095217  91.6140270 104.6781349   5.0388950
  12.9690230 108.0097961  78.5536432  13.0313802 107.7655029  77.6302433
  12.9900467 107.1763134  79.0238476  51.5782356  26.7344809  94.5565510
  52.5004148  26.4794278  94.5842838  51.5685987  27.5427747  94.0439034
 114.6687794  98.7677097  74.2136526 115.6082439  98.6159325  74.3166351
 114.5055008  99.5859051  74.6828318  44.0674591   6.8367112  68.1424522
  44.2043114   7.3124969  67.3232269  44.9231720   6.8470615  68.5712624
  40.4832602  32.7504015  85.8895302  40.0736094  32.8992772  85.0373268
  39.8809624  32.1624398  86.3453579  93.8989735  59.3513155   6.3161552
  94.3845940  58.7098503   5.7975709  93.6644745  60.0368738   5.6906521
  96.2528515  96.9821072  68.5465384  96.8384552  97.0973587  69.2948818
  96.7220592  96.3837147  67.9651642  35.7352328  24.5033360  58.9678526
  35.0600791  24.6618724  58.3081055  35.8757305  23.5568023  58.9441204
  73.0601883  19.6150339  93.6749649  72.3440504  19.3162823  94.2354298
  73.4091187  20.3858042  94.1226196  68.5539770 105.2875137  87.3040295
  68.0916595 105.4896736  88.1174374  67.8943348 105.3992844  86.6194820
  15.2355444 100.3855801  86.1387062  14.7811806 100.1903820  86.9582653
  15.9358394  99.7346973  86.0921860  69.6629524  14.0337718  82.2352982
  69.5553207  14.1058767  83.1836891  70.4049444  13.4395862  82.1229458
  39.8596120  18.8349187  71.1335516  39.8711705  18.1898916  71.8406820
  39.7781706  18.3134532  70.3350067 105.1375961 105.6633472  64.8342562
 105.7675076 106.2749767  65.2155256 105.2528000 105.7591915  63.8888597
  49.7141505   0.9402035  58.2891846  49.5556414   0.0548695  57.9616451
  50.1540339   1.3878010  57.5664139 103.0383301  68.4730959   2.5649223
 102.8714848  67.5362921   2.4610589 103.8036346  68.6424351   2.0154865
  25.2400112 102.8885746  94.0606213  24.9609065 103.1338310  94.9427700
  25.9177732 103.5266972  93.8377571  14.1832554   0.3493123  78.8573837
  14.4247651   1.0847418  79.4204569  15.0066733   0.0775885  78.4519482
  10.2353597  33.7764168  64.5663643  10.5090868  34.5906615  64.1440964
   9.2789543  33.8153696  64.5644331   0.2620617  94.9300289  52.8980112
   0.1266749  95.7944965  52.5099468   0.4523349  95.1080894  53.8190556
  86.9050121 105.1244545  88.6734581  87.7732277 104.7214508  88.6775208
  86.3508511 104.4948292  88.2122612   7.3929036 111.1734867  91.6601467
   6.9317025 111.1557198  92.4987221   6.6962457 111.1941814  91.0040474
  44.7946835   2.2991838  71.5061092  44.6247053   1.6367027  70.8364391
  44.7775173   3.1299523  71.0309696  67.8826666   7.2870439  66.6140223
  67.1109915   6.9233298  66.1799002  68.0815554   6.6626388  67.3117256
  63.2493591  13.5677266  79.0889597  63.2765722  12.9340219  79.8058367
  64.1266251  13.9503706  79.0741062  37.7987218 100.1538181  74.0458822
  37.6626658  99.6734047  74.8625326  38.5425568 100.7283688  74.2270660
  12.9717708 107.6086044  73.3788395  12.0918202 107.7257156  73.7368965
  13.2581699 108.4935760  73.1529379  49.4716740  10.8683646  54.6791124
  50.1183844  10.7950032  55.3809786  49.9246788  11.3473177  53.9851236
  22.2791648  17.1561003  68.3813047  22.2826004  16.8806076  69.2979956
  21.7532730  17.9558563  68.3735323  23.9954877 105.2256870  78.1118536
  23.3897901 105.9216309  78.3668661  23.5168672 104.4154835  78.2871151
  77.2362137  36.1098170  72.4903393  77.3620558  35.4874039  73.2065773
  78.1230116  36.3665628  72.2375536  68.5845566  12.7048600  93.0432034
  68.5303640  13.2156861  93.8508797  68.5374212  13.3567595  92.3438931
  78.3569288  30.4059458   6.3113236  78.0576563  29.8254466   7.0111024
  79.2783403  30.1776624   6.1883903  50.9811068  33.7341547  84.5612907
  50.1804352  34.0453339  84.1390133  50.8043671  32.8150821  84.7620392
  66.8210697   2.5644770  85.2334499  67.7012396   2.4555360  85.5935383
  66.4292336   3.2579187  85.7643318  33.2093072  98.8846302  72.2654772
  32.3155594  98.8069248  71.9316959  33.2286286  99.7360802  72.7023888
  58.7627459   2.5736067  50.8297157  59.0616798   2.3630178  51.7143202
  58.9900494   3.4961170  50.7133484  23.7593508  92.9134655  59.4445038
  23.2560992  92.5852489  58.6993599  23.5062003  92.3464012  60.1729202
  18.1843531  85.6584072  60.8264780  17.3335707  85.8431911  60.4286671
  18.3424950  84.7339439  60.6351566  28.5241580  21.3747454  58.5360384
  28.1162119  20.5313754  58.7323427  28.2114029  21.5935445  57.6582336
  77.7601290  71.0641003  13.5626292  76.9906378  70.5886936  13.8758373
  78.4926367  70.6760263  14.0412354  31.0332417  30.5743194  76.0409451
  31.8845391  30.1368070  76.0514688  31.2402511  31.5035224  76.1407614
 115.3072453 103.8770485  63.7886238 115.4767036 102.9500675  63.9566040
 114.4512272 104.0396881  64.1848850  77.2353363  26.6562176  78.1413984
  76.3234854  26.5921521  78.4253979  77.3629570  25.8969784  77.5726223
  62.2876167  20.3651118  76.2458372  61.6327429  20.2803850  75.5528784
  62.2660542  21.2920284  76.4837265  26.1250329  22.3605537  70.6237268
  26.3374758  23.0769777  70.0255299  26.6412711  22.5430322  71.4088583
  63.4936810  33.9868283  77.0231485  63.8525295  33.1230879  77.2266436
  63.8596869  34.2022157  76.1653137  78.1302786  10.1898801  70.4373074
  78.1820965   9.8074174  71.3132429  77.5063992  10.9102666  70.5270243
  31.1708260   5.8772212  49.2766047  31.4485240   4.9695894  49.1528368
  30.2150297   5.8335704  49.3045235  99.1684055   6.1741292  91.6707230
  98.3230495   5.8924240  92.0203686  99.3832779   5.5190182  91.0067272
  94.8163128  42.9366827  85.7192612  95.1300812  43.6336279  85.1430225
  94.8018551  42.1562099  85.1652908  34.7073960  99.6247578  76.4949608
  34.8363495 100.4780865  76.9089985  34.1242623  99.8022938  75.7569456
  67.1861553  42.7117729  70.2341175  66.9157076  43.1200123  71.0565710
  68.1345701  42.6121473  70.3166866  81.0083580  26.8522382  67.9860592
  80.3112602  26.2378526  67.7562523  80.8620358  27.6054645  67.4138069
  69.4724131  13.7207603  77.8433418  68.8997889  12.9680610  77.6957750
  69.0639019  14.4326735  77.3508692  28.9750433  32.1425533  27.8436685
  29.1536641  33.0751276  27.7227092  28.1262779  32.1165872  28.2854342
  84.5909882  31.3853431  79.8855686  83.8197136  31.0703397  80.3568745
  85.0460243  31.9430614  80.5165386  51.9134903 106.7519951  61.5919924
  52.4217558 106.0221958  61.9459724  51.8510675 106.5680408  60.6547070
  54.3424606  51.9255018  60.9780455  54.1872787  52.0934343  60.0485516
  53.9214659  52.6583672  61.4273882  35.1835465   2.9472992  36.3101077
  34.2595673   2.9662555  36.5593696  35.5066729   2.1134892  36.6515470
  50.3033447  11.1116052  75.6005430  50.3514338  10.5437624  74.8314714
  49.6881914  10.6701338  76.1861372  47.2832918  16.5925980  58.4194613
  46.5178490  17.0900810  58.7072706  46.9415522  15.7208037  58.2209158
  35.2465987 102.2264671  72.2976255  34.8687577 101.8100548  73.0722666
  36.0887432 102.5693321  72.5967455  99.5441151   6.1727512  51.8350124
  98.5958481   6.0987145  51.7275906  99.9072838   5.7343048  51.0655308
 105.0628281  84.8714352  20.6748438 104.7358036  84.8142624  21.5726304
 104.9195194  83.9974976  20.3116298  70.1038504   4.7349286  60.3173590
  70.9941435   4.4940972  60.0612259  69.8787546   5.4663146  59.7423458
  95.8073807   6.4800781  63.9783096  94.8824120   6.3854742  63.7509060
  95.9054947   7.4054867  64.2024136  76.1561108   6.7966920  70.6310844
  75.3806877   7.0823359  71.1141586  76.1386919   7.3113596  69.8242140
  75.0834608  22.9206038  51.7077827  74.7502327  22.0795608  51.3949966
  75.9028006  22.7032232  52.1523762  12.7268684 103.5522079  72.8773546
  12.9417658 103.9147472  73.7367821  12.5062954 104.3156242  72.3437119
   9.6709025  90.9660435  75.1751232  10.0541055  90.1469803  74.8612309
   9.6254867  91.5226364  74.3977070  88.1629467  32.4641109  61.4713097
  87.8396320  32.4530029  62.3721838  88.2714367  33.3929849  61.2672138
  61.6257811  50.2475691  70.6324291  62.2551727  49.5479965  70.4572201
  62.1614265  51.0365820  70.7147264  67.0650578   5.5739760  62.4966192
  66.4379978   5.6971633  63.2092571  66.5601492   5.7436621  61.7013121
  75.9469509  23.6963010  71.8514538  76.4005661  23.4715056  71.0390902
  76.2499666  24.5804143  72.0582247  60.1931810   7.2145951  65.4552221
  60.8907127   7.8598368  65.5707407  60.4032373   6.7802149  64.6285248
  60.1644897  47.8299236  95.0330734  60.9462547  48.3255339  94.7892570
  59.4365406  48.4209633  94.8407364  30.3364301  26.2149811  59.2055941
  30.9466243  25.5138063  59.4341755  29.7847867  26.3148117  59.9814510
   0.3239180  68.9943075  13.0771148  -0.4514943  68.8126326  13.6081159
   0.8408777  69.6005154  13.6076784  20.3265429  92.8192806  85.7079601
  20.1383567  93.2231617  84.8607826  19.4666028  92.6901054  86.1080170
  43.9859533  31.9294643  17.9427588  44.1380739  32.3730373  18.7772262
  43.0330944  31.9037890  17.8553724  92.0177650 106.2177944  10.3092647
  91.6027260 106.8601036  10.8849597  92.9565048 106.3422871  10.4489017
 104.5468903  80.7577705   8.2599902 103.9381695  80.9406567   7.5442767
 104.4276905  79.8259306   8.4435767  72.8311062  21.5906453  40.4720449
  73.6656809  21.8468261  40.8645916  73.0651045  20.9257436  39.8244452
  27.8650475  53.5582495  74.6342993  26.9257951  53.6187506  74.8085880
  27.9619479  53.8676500  73.7336826  55.3337240  54.9340820  94.6039391
  54.8008251  54.9041367  93.8093567  55.9525347  54.2105722  94.5047188
 104.6021843  49.6207476  56.6198635 103.9440346  49.4219255  57.2858524
 104.1040993  49.6963310  55.8059645  50.9005356  29.1795278  55.1512384
  50.7888842  28.3438277  55.6044149  51.1484766  29.7948956  55.8412218
  40.5425453  31.1854172  69.5760202  40.8616972  31.3504219  68.6888075
  40.6994581  30.2517843  69.7172308  97.1180153 107.9040432  78.4053707
  97.4699402 108.4678936  77.7165747  97.7855015 107.9187298  79.0912819
  62.0367622  24.3064618  89.3518543  61.1704540  24.3512321  89.7564983
  62.3512888  23.4257865  89.5561028  39.2241549   7.3404551  67.5701523
  39.3914008   8.2773972  67.6721334  38.7072587   7.1041954  68.3403683
  52.6385403  15.7275212  44.5426273  53.3196211  15.2389646  45.0048828
  53.1191921  16.3406789  43.9865303  61.6130972  28.8788414  80.4509354
  61.9311380  28.3829951  79.6964693  61.6952515  29.7952962  80.1871300
  48.1706619 106.7501926  54.3292189  49.1145468 106.7805481  54.4853926
  47.9102850 105.8715630  54.6056890  72.0207548   3.2336959  51.5270472
  72.8084564   3.3476350  50.9952831  72.3501587   3.0364102  52.4038601
  52.7419662   9.1299784  64.4878674  53.6924601   9.1093308  64.5990753
  52.4070549   8.5645467  65.1838255  60.8614969  96.2265587  79.0064335
  59.9387503  96.0393238  78.8340473  60.9642887  96.0788631  79.9465704
  -0.0777925  98.2780457  55.9476900   0.8555972  98.2935810  56.1592913
  -0.1240362  98.5932636  55.0450659  58.0372286  26.5047574  83.6809921
  58.7226248  27.1657348  83.7788200  57.5855112  26.7460060  82.8722954
  56.8970966 110.6880569  81.1705208  56.9625092 110.1329041  80.3935051
  57.6955175 111.2158203  81.1557198  12.7330196  96.9258881  77.4582195
  12.5689518  97.1360683  76.5389061  13.2175255  97.6802158  77.7935934
  86.5066910  22.8660297  94.4158459  86.0688305  23.5579848  94.9115372
  85.8959866  22.6539564  93.7099361  75.4171753  20.8819246  55.4880142
  75.5359507  21.8315721  55.4709148  76.0264063  20.5764103  56.1601210
   2.2047980  21.2621403  71.9737720   2.0529823  20.3928089  72.3445082
   2.8946927  21.6384459  72.5202799  38.1360888  82.5818253  65.7517195
  37.7093554  83.4375858  65.7942152  38.0122781  82.2088337  66.6245222
  45.7913065   9.4936705  62.5811100  45.4636860  10.0339758  61.8621063
  46.6769743   9.2491817  62.3126841 116.1594868  86.1182594  59.8409891
 116.7329884  86.5953732  59.2412472 116.2946129  85.1968956  59.6194887
  66.8569803  26.2539458  93.5746193  66.0961390  26.2244987  92.9945469
  66.4978456  26.4943600  94.4287014  59.0137243  11.4189065  65.6347084
  59.1962051  12.2304857  65.1611376  58.8035536  10.7840502  64.9498606
  46.6350842 100.3361320  63.5555506  47.5762224 100.3206825  63.7294626
  46.5540648 100.0388145  62.6493120  57.1740484  25.3560638  69.0852928
  56.8010855  25.8646488  69.8053408  56.9047022  25.8255196  68.2958031
  39.6279287  38.1806445  70.8287525  39.6470428  37.9094267  71.7465210
  40.0601292  39.0346885  70.8223343 101.3137531  21.3343620  63.9586687
 101.8452358  21.1297941  64.7280312 101.8159103  20.9870958  63.2214594
  37.9846025   5.8235127  37.0066428  38.2020187   6.3770694  37.7566671
  37.0544291   5.6260854  37.1163225  53.4370089 105.4153442  84.1278839
  53.4485817 105.4801559  85.0828171  54.2697811 104.9988365  83.9059830
  69.4694662  44.1512012  82.1388817  68.9560318  44.2021608  82.9451180
  70.1483154  44.8176813  82.2447014  65.8072615   5.7891810  64.8611641
  66.3866377   5.1116467  65.2097321  64.9431086   5.3780270  64.8406172
  98.0863571  32.3071694  65.8535624  97.8733826  33.2383609  65.9148455
  98.1803322  32.0226336  66.7626524 117.7359200  90.3197956   2.0900632
 118.0833817  89.4424725   2.2507200 118.0264282  90.8341026   2.8432760
  62.7353430   7.8682029  77.9112291  63.3212280   8.3313531  77.3125076
  62.3473644   8.5587513  78.4486723  73.1903124  42.6826715  89.2971897
  72.2352457  42.6778555  89.2334843  73.3775234  42.2363281  90.1229954
  70.5572081  21.7749643  79.5781803  71.4188766  22.1542120  79.7511959
  70.6768513  21.2637305  78.7778330   3.3353034  29.7874260  64.2180300
   3.3074111  30.3309131  65.0054789   3.8440067  30.3009081  63.5905027
  92.8820038  26.9287634  84.4298458  93.6820602  26.4476633  84.2184734
  93.1899548  27.7759075  84.7519398  56.3371468  42.5327349  68.2063341
  56.4369583  41.6586399  67.8292084  56.9292259  42.5381374  68.9584303
  48.4706974  21.8977118  50.8214855  47.5872660  22.1659303  50.5688286
  48.5872412  21.0406327  50.4115200  58.4857321  27.8039932  74.3876839
  58.4615326  28.2964110  73.5672140  57.8467989  27.1019602  74.2646217
  57.1167469  28.3937788  57.6106453  57.7085686  28.1877112  56.8871021
  56.7243147  27.5530314  57.8459597  16.7594802  87.7940655  44.4955444
  17.2621894  87.4981976  45.2544785  16.7513347  87.0406723  43.9051485
  75.7276487  39.7244740  83.0236530  75.4550266  40.4309368  83.6091709
  75.6030226  38.9263105  83.5371113  52.0159960   2.7323550  74.9284601
  52.6447678   2.6663706  74.2097664  52.5568199   2.7662760  75.7175064
  59.0960741  32.9783010  86.5487576  59.2720366  33.3066154  87.4305058
  58.3292150  32.4147534  86.6516209  43.8993835  24.8313284  88.6715603
  43.0057144  24.8693204  89.0123558  43.8270092  25.1535296  87.7731323
  33.7748694 107.9502010  72.1705341  32.8624582 107.7457619  72.3753262
  34.0623498 108.5106087  72.8913260   3.0970547 107.7152920  76.9170380
   2.5020304 108.3546925  77.3086309   2.8316253 106.8774605  77.2962856
  65.5128193  49.2058277  90.6162643  65.5496550  49.8484421  91.3247299
  64.7487640  48.6668968  90.8212280  52.1612453  40.8380175  39.9798369
  51.5153790  40.2200222  39.6375442  52.2691774  40.5879402  40.8974648
  68.9653206  33.0629849  66.7309904  68.4678793  33.2621765  67.5241518
  68.4121037  32.4479198  66.2494516  69.1136837 102.7267933  51.0564709
  69.5301867 102.4462509  50.2415752  68.5391140 103.4467888  50.7962656
  69.6716309  16.1661386  68.0409670  68.8752127  15.7059145  68.3058023
  70.1130772  16.3742244  68.8644075  41.9095373 111.2773132  69.4058609
  41.0042334 111.2505817  69.0961266  41.8930769 110.7999039  70.2353430
   2.1602751   7.8413570  79.7569513   1.8946093   7.5079602  78.8999224
   1.4777064   7.5363451  80.3547001  98.3995628 110.1361275   2.5564757
  99.0799904 109.6107101   2.9774150  97.7508736 110.2837658   3.2446873
  67.7170324  15.8788514  77.7842236  67.6945448  16.7747831  78.1204271
  67.1559000  15.3846312  78.3818102  72.7870274  46.5886450  94.7131538
  73.2665586  47.4087858  94.8299694  73.3313370  46.0759735  94.1155529
  62.3507738  32.2796202  73.4715748  63.0111790  31.5940762  73.5722160
  61.7947197  32.1920323  74.2457581  84.2591381  11.8174875  81.2042904
  84.5652485  11.3531315  81.9833374  84.6402073  11.3333857  80.4717159
  27.8305507  95.3530884  41.7164469  28.4805679  95.8352184  42.2275829
  28.2496405  95.2126789  40.8673954  55.2328873  27.4162483  51.0942364
  55.2076578  26.4974666  50.8269644  54.9236584  27.8975177  50.3267813
  28.8208365  14.9907684  69.1641569  29.3515611  14.2161715  68.9782429
  28.7156987  15.4186583  68.3143997  89.2815208  23.1072307  90.6677055
  89.0053177  23.7649179  91.3059807  88.4728718  22.8473711  90.2263641
  77.4856472  20.7993722  74.4016123  77.3218584  20.6154656  73.4766388
  76.6639996  20.5766463  74.8392439  72.1127319  20.4920697  89.8274517
  71.6018534  20.2751160  90.6072998  72.7480602  21.1408734  90.1301670
  92.7892303  16.4917195  66.5487957  92.9235268  17.2132254  67.1633053
  91.8394756  16.3764131  66.5186596  30.1946998  18.1735349  17.9578173
  30.5985212  17.5438488  18.5550225  29.4114709  18.4730947  18.4193897
  55.9932947  35.4701638  72.8595686  56.4267206  35.8511710  72.0958900
  56.0155678  36.1640191  73.5185862  55.9416103  24.6759701  50.8910894
  56.5610456  24.7399426  50.1641512  55.9168625  23.7429118  51.1032724
  90.3242397  17.7115130  94.3122864  90.1294804  17.1388483  95.0541401
  91.2714195  17.6381147  94.1952515  83.0102921   6.6790235  80.9337139
  82.6337337   7.4867356  80.5843735  83.2170486   6.1564523  80.1588535
  55.4500580  33.4798813  60.5186224  54.7690058  32.9944587  60.0530434
  55.4442835  34.3476701  60.1147127  51.3516378   5.3592241  77.8206253
  51.9575167   4.8767436  78.3830786  51.9072771   5.7381380  77.1395111
  41.2306786   2.2651859  46.8632174  41.4611578   1.4112292  46.4973354
  41.9067955   2.4351069  47.5191307  52.9138088  48.4190607  78.9111710
  52.5367832  49.2406082  79.2260408  52.8886080  47.8372765  79.6708536
  18.7933874 102.2679806  64.1413593  19.2219055 102.7504444  64.8483515
  19.3543029 101.5058708  63.9971828  72.0517254   0.4250631  61.6713667
  72.2872829   0.7183714  60.7911873  72.2944403  -0.5006988  61.6882944
  74.6738195  35.9389329  80.2050304  75.1369333  35.5228329  80.9320927
  73.8465261  36.2339783  80.5855179  41.0885668   6.5741813  51.2130451
  40.1804829   6.8132150  51.3987446  41.0232639   5.8558440  50.5837917
   9.7366726 103.0463123  77.3049545   8.8787651 102.6302052  77.2208071
  10.3014493 102.3607159  77.6616335  35.3234220  26.0085464  93.8147640
  34.4856620  26.1066556  94.2672729  35.9801340  26.0889506  94.5065022
  84.8924446   4.3384740  62.0324898  85.7536125   3.9219084  62.0657778
  84.2944717   3.6810690  62.3881245  58.1362057  16.5023768  93.7377357
  57.8866100  15.7102549  94.2136288  57.5071812  16.5578175  93.0183697
  65.9906340  25.9157872  75.5934668  66.1435938  26.1331844  76.5130186
  66.1107111  24.9672151  75.5484343 118.0011994  99.1362095  49.5267057
 117.2638553  98.5667324  49.3070459 118.7733209  98.5810280  49.4179249
  43.1421041 108.3005142  30.3984857  42.8465462 108.8945580  29.7085619
  43.4288263 107.5154209  29.9319649  97.0804214   9.2986745  82.7990055
  97.5132942   9.4420815  81.9573975  96.6717148  10.1394904  83.0044746
  14.0657854 103.8018513  51.0277033  13.9105833 102.8615093  50.9388447
  14.7854149 103.8675690  51.6554356  22.4785829  87.0805454  58.8952971
  22.5807405  86.6421413  58.0505514  23.0864358  87.8189754  58.8569784
  26.7150164  23.9471531  56.1527729  27.3829126  23.3099985  55.8994389
  26.1251879  23.9879870  55.3999996  83.4165955  17.0531070  60.9179258
  84.0846157  17.6324260  60.5513573  83.1033993  17.5117993  61.6974974
  61.7688179  32.8815174  68.6142635  61.3958406  33.2615161  67.8188276
  61.5474987  33.5063815  69.3047714  62.2194910  36.1779904  67.2772408
  61.4125776  35.8679223  67.6883173  62.3193455  37.0760894  67.5929594
  40.4329491  11.3153148  42.3839855  41.1010790  11.0838294  41.7388105
  39.7718644  10.6280291  42.3013163  51.0814381   5.8449388  66.3430405
  51.0454082   5.9634018  65.3938866  51.1256695   6.7344117  66.6939163
  40.0384808  87.6481533  81.3327408  40.5760288  88.3610439  80.9876728
  40.4696226  87.3968315  82.1495533  86.6830540  27.5891352  71.9290733
  87.4731445  27.7294445  72.4509048  86.0562134  28.2288623  72.2667980
  73.7836504  17.8229058  73.7913036  74.0740681  18.7125409  73.9924002
  73.9972544  17.3180950  74.5760155  32.9276013 104.0132809  54.1392803
  33.3341718 103.2244587  53.7805462  33.5087156 104.7252083  53.8715076
  62.7829123   6.6878635  72.9952908  62.5282574   6.0094064  72.3699284
  63.4796143   6.2859470  73.5142326  70.1956940  16.4724910  43.6337662
  71.1522055  16.4368629  43.6410379  69.9417257  16.2729239  44.5348215
  98.4797287  74.4731283   3.0007690  97.6570129  74.2912054   3.4549323
  98.5833359  73.7425804   2.3910153  44.5071793  40.4510450  63.1324196
  44.5779943  40.6248808  64.0710354  43.5973310  40.6576157  62.9185534
  44.8742342  84.6500969  25.8689523  45.2390623  85.4458618  25.4817867
  44.7789335  84.0470219  25.1317644  33.3671308 106.2448978  77.9069376
  33.0719900 107.1541405  77.8579235  33.2734179 106.0121250  78.8306618
  14.4932759  42.9813385   5.8939362  13.6733866  43.4126520   6.1347264
  15.1305604  43.6932421   5.8365661  64.6468401  27.9426575  64.5814896
  64.9026060  28.6411595  63.9790678  64.0030193  27.4292827  64.0934610
  59.8473406  82.6814365  30.1941180  60.6036282  83.0778217  29.7615242
  60.1162958  81.7793465  30.3677106  25.6482100  91.7003441  75.9469461
  26.0879564  90.9702015  75.5113554  24.7360229  91.6333294  75.6647205
  19.4171417  94.3930912  79.8163939  20.0914717  94.1011143  80.4297924
  18.6304843  94.4892311  80.3532028  44.8597908 104.6468353  84.3861103
  44.4012022 103.8431549  84.6310902  45.5698967 104.3529606  83.8154793
  63.1061935  20.8493352  79.4748402  63.2237148  20.1615644  78.8195610
  63.8481236  21.4387155  79.3391657  99.9201393  12.1594584  83.4595490
  99.4757938  12.1537089  84.3073463 100.8353519  12.3446584  83.6700630
  86.2927246  31.5565109  95.5484676  86.3693905  32.2175980  94.8604965
  86.0831547  30.7477951  95.0812531  44.7188473   9.3057495  41.8966341
  45.4526281   8.9130253  41.4238024  43.9560223   8.7985903  41.6189241
  37.3021626  14.7289872  42.0842266  37.6031852  14.9427772  41.2011003
  38.1031322  14.5276296  42.5681019 106.6406536  92.3397923   1.7503765
 107.5691700  92.4699688   1.5576319 106.3387108  93.1931496   2.0615700
  93.1558514  38.9794946  79.6439934  93.6367702  39.2993689  78.8806868
  93.1295204  38.0295134  79.5296526  72.5826454   5.5007654  44.8258638
  71.7900181   5.7306463  44.3409634  72.3514938   5.6427455  45.7438183
   7.1331882  92.5741482   1.7291605   7.5555015  92.2954082   2.5416777
   6.3580412  92.0170021   1.6587491  46.0931540  18.4774137  78.3691740
  45.6503582  18.9199793  79.0932560  46.0382891  17.5470901  78.5876226
 107.4196243  94.9111557   1.3077007 107.6308346  95.2174950   2.1896183
 107.4855137  95.6935501   0.7601985  27.7722144 104.4840145  64.5058632
  28.1890655 104.7360325  65.3298521  28.2732844 103.7255192  64.2061234
  73.2854986   0.3215967  91.7374992  73.5895872   0.3543112  90.8304787
  72.5959873  -0.3423326  91.7351532  75.1165438  31.9986033  75.5162239
  74.7291613  32.2078943  76.3661480  75.9468746  31.5729427  75.7297564
  10.4298818   0.9884241  13.9569128  11.0979342   0.7621878  13.3098006
  10.6378913   1.8873480  14.2116654  50.2130556  28.1647658  73.8272572
  50.2181149  29.0614676  74.1621208  49.4461584  28.1268549  73.2557154
  61.3896942  25.3164339  65.7166958  61.3458395  26.1296439  66.2196875
  61.8833780  25.5477667  64.9299383  32.7501845 100.1989841  33.8513708
  33.2251167 100.6662750  34.5386219  32.6082444 100.8555412  33.1694484
  47.7843046 100.1904106  69.1256762  46.8737555 100.2358532  68.8340139
  48.2082844  99.6061707  68.4970760  80.5448437   8.2694221  53.1312418
  79.7137213   7.8703552  52.8739262  80.3058243   8.9093757  53.8017368
  10.2807474 101.8191433  73.5040331   9.8426259 102.6122189  73.8127613
  11.1565304 102.1119690  73.2520580  23.9269018  31.4703131  51.9030571
  23.8118052  30.7020521  52.4623108  23.0751371  31.5907478  51.4832640
  46.2282467  90.5610657  59.0609407  46.1393213  90.3799725  58.1252432
  45.6351376  91.2952900  59.2202187  79.1322851  19.7482216  68.3143759
  79.6194601  18.9556587  68.0891275  79.8065996  20.3837228  68.5545254
  34.5568895  26.2266827  81.7423725  34.8836279  25.3363180  81.6130352
  34.6208262  26.3704848  82.6865482 103.6535835 110.7804203  13.4603691
 104.3504047 111.3378334  13.1139958 103.9688778 109.8876381  13.3198166
  46.5205908   3.3932552   2.6433060  45.5766535   3.2981518   2.5161406
  46.7259645   4.2538640   2.2780590  65.6082964  28.3455062  37.5000978
  66.3640690  28.9184809  37.6294804  64.9467516  28.9087009  37.0983553
  46.7705679  39.3804407  47.7527046  46.0286617  38.9656997  48.1929302
  46.5334845  40.3065825  47.7049017  66.6548872  98.3691502  53.6430836
  66.8507719  99.2311287  53.2758713  66.0187483  97.9895115  53.0369186
  31.6440606  30.1005554  81.7581081  32.3400164  29.4958735  81.5007305
  30.9101439  29.5338655  81.9957161   5.3141189  49.8445177  76.0893440
   5.8783686  49.0726089  76.1341572   4.4243872  49.4930649  76.1223602
  70.8536100  26.3048434  81.5629005  70.6523705  25.4424810  81.9263077
  71.6755772  26.5563464  81.9840240  77.7421045  29.5141721  66.5068007
  76.9373083  29.2754507  66.9667435  77.5114918  29.4646287  65.5791187
  78.1753540  21.6464853  95.3889465  77.3773766  21.1642218  95.6054783
  77.9808044  22.0679379  94.5518398  56.6469145  13.9260018  65.0291824
  57.5919962  13.7902188  64.9611998  56.3132286  13.1077302  65.3970337
  69.6160698  16.2239778  87.4562359  69.7033691  17.1482456  87.6893425
  70.4240704  15.8198440  87.7725315  75.4022646 106.5736008   6.0971868
  75.8278227 107.1904469   5.5016798  74.6804142 107.0710087   6.4815658
 108.0536556  97.1636772   7.2087789 107.5217819  97.0648479   7.9984462
 107.6267052  97.8664684   6.7188460 100.6715775 100.4482555  15.5701566
 100.9778309 100.7292080  14.7078872 101.4470577 100.5013847  16.1287689
  89.3064213  19.7273338  58.2452488  89.4502258  20.6652403  58.3712769
  89.1867638  19.6281576  57.3007536  59.4020224  22.4033689  82.3441601
  59.4145250  21.4533329  82.4603844  59.3037701  22.5279093  81.4001942
  89.3973351  14.7579229  85.9087658  90.0949478  14.2696059  86.3459396
  89.8570824  15.4009974  85.3690243  47.0952749 103.7263775  58.9349794
  47.1858311 104.6381187  58.6579180  46.4862394 103.7595940  59.6726847
  59.1373301  37.4941373  73.0170345  58.7736273  37.6629305  73.8862085
  58.6036205  36.7799973  72.6686239 112.1642780  70.1084232   0.7006329
 113.0651665  70.3586388   0.4956179 111.8697071  69.6219397  -0.0692932
  95.5438328  43.7655163  60.7481146  95.0403404  43.3071089  60.0753641
  95.7220173  43.0978632  61.4104748  75.3599739  25.8469629  52.2149229
  75.2174091  24.9785471  51.8384075  76.3118172  25.9460711  52.2348309
  40.7138157  22.8732347  54.4055605  40.5198479  23.3683181  53.6096334
  39.9217439  22.3609018  54.5679522  47.4375153  23.5026050  53.7502575
  46.6224813  23.1303382  53.4135580  47.7372503  24.0898418  53.0563259
  84.7626781  52.1273565  65.1925421  85.2084255  52.4416542  65.9791565
  85.3879642  51.5269184  64.7866774  85.6235981  10.2970624  60.2676678
  86.3582802  10.7202029  60.7119894  84.8579025  10.5363822  60.7898521
  46.4944267 102.7733421  67.7791643  47.1264839 102.1369362  68.1134129
  45.7539463 102.2432804  67.4842691  68.0838585  31.2456727  78.7549591
  68.7473726  31.2041616  79.4436216  68.4511375  31.8439293  78.1042433
  83.5295010  60.7476330  72.3606634  83.4626389  61.6663313  72.1003580
  83.2491589  60.7369852  73.2758284  59.0398264  16.2138915  62.7564669
  59.9133158  16.5558636  62.9470062  58.5447931  16.3586426  63.5628319
  89.2544556  23.2344079  70.6353903  88.9498520  22.3501086  70.8390141
  88.5420227  23.8053060  70.9230375  77.8881979  42.0008850  93.0706501
  77.8119755  41.7424488  93.9891434  77.2025108  41.5040207  92.6243401
  76.5699291  29.1988564  70.4573059  76.0817432  29.2780232  69.6377707
  77.3812389  28.7546992  70.2108574  71.7023420  40.4584122  76.6355896
  72.3303509  40.3198195  75.9266281  71.8865156  39.7561383  77.2593927
  85.3681564  32.8137541  76.6764212  85.8125114  32.9772449  75.8445263
  85.9038734  33.2672024  77.3272800  49.0278292  45.7325983  58.4963942
  49.8991823  46.0278225  58.7606335  48.4393644  46.1052227  59.1529703
  94.5156956  40.3372335  58.9383841  95.4575443  40.4824018  59.0282106
  94.1177177  41.1545563  59.2380953  68.1132078  54.1171026  86.9364357
  68.5393810  54.9631977  87.0733070  68.6214161  53.7029934  86.2389660
   7.3870796 110.4915428   5.9283566   6.7058480 110.7235718   5.2972323
   8.0944979 110.1293468   5.3948724  45.9013939  38.7166834  65.2181768
  44.9527502  38.8257313  65.2846384  46.2540245  39.5950675  65.3607464
  81.1636162  65.3531599  91.4257717  81.8827248  64.7485209  91.2426662
  81.0689640  65.8633471  90.6214237  36.6488004 109.6198368  81.7076588
  37.3138142 108.9920425  81.4250660  37.0079017 110.0057793  82.5066090
   7.7025253  92.1104145  12.3661363   8.3018208  92.8496361  12.4692369
   7.0749557  92.2091961  13.0821192  86.2289715  51.0300493  90.5671597
  87.0910168  50.6140804  90.5756378  86.3187408  51.7792368  91.1561298
  52.7777910  26.8537664  68.9913464  53.6617994  27.1840453  69.1515827
  52.5046444  27.2838473  68.1810045  56.1833000  41.7404890  65.3368950
  55.3977060  42.0695305  64.9000740  56.2586117  42.2739220  66.1281061
  59.8115158  29.7017002  72.3547220  59.3283081  29.9648499  71.5714645
  60.6633902  29.4150043  72.0255661  49.9121666  93.6871529  85.1352978
  49.8690987  92.9333305  84.5469666  50.1922035  94.4117546  84.5760441
 102.2521877  47.7863264  75.5026293 103.0397797  47.4513245  75.9312344
 101.7027187  48.0986118  76.2215137  75.9557533  74.2521000  66.8252563
  76.1285400  75.1768541  66.6486120  76.7716122  73.9239597  67.2033119
  48.5556412  43.6114836  75.8518362  48.6668730  43.6447096  76.8019724
  47.6468849  43.8753510  75.7077074  95.3594589  39.2981386  71.9470739
  95.3936958  38.4789705  72.4410629  95.9126472  39.1398406  71.1821222
  13.2842243  89.2908001   9.4766468  12.3984003  89.2835236   9.8392683
  13.3529174  90.1341534   9.0291393  79.3152714  17.4840617  86.1145401
  79.8856449  17.0849383  85.4575729  79.2334270  16.8179977  86.7971039
  82.8145313  31.0841775  68.1157923  82.5681591  32.0074058  68.1722498
  83.7443352  31.0978532  67.8888369  93.3379650  38.3672071  86.0280132
  93.4219837  38.3760881  86.9814777  92.5579643  37.8380322  85.8612347
  77.1566105   6.0519999  64.2998075  77.8486252   6.1782563  64.9489641
  76.5646076   6.7921478  64.4337702   9.6493435 108.8658047   5.1651186
   9.1522110 108.3545780   5.8036613  10.4942405 109.0203571   5.5876052
  56.5220833  37.5498152  66.0793781  56.6709805  36.7972469  66.6518307
  57.1875381  37.4665856  65.3963852  72.4132299  30.9624600  76.7439938
  72.7927828  31.8273997  76.8990898  72.4473429  30.5294776  77.5969839
 101.3034248  38.4240413  70.9018278 100.4031754  38.0995035  70.8805609
 101.2415504  39.2734766  71.3387060  68.4108639  71.8379116  81.5324402
  69.0867519  72.0858049  82.1632767  68.6762762  72.2637510  80.7173061
  88.8414860  35.1051950  60.5974436  89.7450066  35.2982187  60.3471851
  88.5157013  35.9247661  60.9694624 106.6257191  82.2993088  11.1308694
 107.4449158  82.3439312  11.6239774 106.3830566  81.3736343  11.1528301
  40.0315237  86.1780930  61.1836481  40.4175043  86.9276905  61.6368055
  39.1992879  86.5064812  60.8433819  33.5586929  94.6816349  58.5848999
  34.2316794  95.2301407  58.1818247  33.2689404  94.1016769  57.8806877
  74.5038128  41.1607456  66.8326664  74.0201473  41.8184900  67.3323298
  75.4070234  41.4776707  66.8309355  59.9445391  24.7407675  69.1668320
  59.1030121  25.1968789  69.1616106  59.7420454  23.8683891  69.5047379
  89.6291828  27.2734308  71.7348433  89.7734165  26.3350964  71.8571472
  89.6542835  27.6369834  72.6199627 101.5719032  34.7486424  87.3114491
 101.1331749  33.9840269  87.6844311 101.0298061  35.4904699  87.5798798
  82.1670818  31.0051227  71.0222387  83.0378628  31.3459730  71.2266445
  82.2328758  30.7088065  70.1144409  86.7402077  45.3901005  82.3901367
  85.8023739  45.2071095  82.3335075  87.0951653  44.6647787  82.9040909
 105.5237675   3.4048560  71.6868925 106.0210705   3.9822349  71.1076212
 105.5672455   3.8297629  72.5435114 109.8353195  69.9804783  83.9325619
 109.7184181  70.9155941  83.7648678 109.0121078  69.7046852  84.3356609
  83.6459732  34.2836142  95.4071617  83.5543919  33.3847976  95.7233429
  84.5867634  34.4560409  95.4447269  65.3113365  51.3123322  87.4276352
  65.5335903  50.6021452  86.8255711  66.0650969  51.3735867  88.0144215
  78.1467438  13.5183525  72.5872803  79.0527916  13.2807899  72.3901272
  77.6460409  13.1955278  71.8380737  60.2225494   2.0374152   5.5276680
  60.6842947   2.6260391   6.1247802  60.8866835   1.4048979   5.2536666
 115.6757259  53.7200594  48.3980656 115.8143806  54.0355253  47.5050402
 115.3202248  54.4753742  48.8664150  93.5846329  59.3240881  82.2676563
  93.9959335  60.1871967  82.3135757  94.0579605  58.8699961  81.5705299
  98.5648251  43.2498503  56.7701244  98.4508896  42.9261541  57.6636982
  98.3195591  44.1739035  56.8170166  27.0232534   7.8463620   6.0143352
  27.3600006   7.8452992   5.1183265  27.0061088   8.7706292   6.2626642
  63.1720257  41.3846827  67.6379299  64.0345764  41.7307425  67.8670168
  62.7680588  42.0761538  67.1136093  29.7283053  35.9414697  88.6354923
  29.6848083  36.6664624  88.0120087  28.8139868  35.7065701  88.7938499
 102.0744705 109.2378807   0.6647807 101.4533043 109.7956562   0.1965227
 101.6806221 108.3658600   0.6381287  63.3712244  32.7810645  94.4724369
  63.1959915  32.0051336  95.0048351  62.7586460  32.7124071  93.7401295
  46.4874268 108.5420990  89.8640823  46.6865921 108.6423397  88.9332104
  47.3094130 108.7494659  90.3085613  43.7757969  44.7393417  65.2596569
  43.0437374  44.1262150  65.1933146  43.9222908  44.8365355  66.2005758
  87.9978371  46.6879511  77.7370262  87.6145840  46.7670155  78.6105824
  87.2773075  46.3820219  77.1861506  64.9336100  33.2988095  81.3436222
  64.6138716  33.0285215  80.4828453  65.1021576  34.2366719  81.2528706
  86.3632965  52.5002575  79.6260929  86.9428825  51.7584515  79.4527960
  85.6102467  52.3547316  79.0534067  27.6623487  22.1295738   7.3689872
  28.4820747  22.4841213   7.0246398  27.8768659  21.2312746   7.6205289
  51.1726332  99.8311424  55.5434036  50.5695963  99.1871738  55.9147358
  51.1892939  99.6317863  54.6073389  96.1583042  18.1310713  69.4604492
  96.8537235  18.7824714  69.3693638  96.6186428  17.2925639  69.4954443
  79.5845222  45.3930902  91.6446877  79.7905111  46.3115931  91.4710331
  80.4213524  44.9380207  91.5505505  92.8466892  35.6906033  71.1744070
  92.8291035  36.6314244  70.9989691  91.9255733  35.4302454  71.1773062
  78.5957670  52.3546600  74.8675346  79.5370483  52.1818352  74.8862648
  78.5039711  53.2236004  75.2583647 112.7752018  86.4479351  18.2016861
 112.2763443  87.1703339  18.5831428 112.1214485  85.7705307  18.0285776
  73.8828230  35.4115510  76.2881994  74.5223141  35.8693051  76.8338585
  74.2729664  35.4075933  75.4141283  80.5071068  34.9324465  74.0607071
  81.4557743  34.8217559  74.1239882  80.2794266  34.5642519  73.2069921
  69.4026995  32.8868771  70.5105877  68.6393309  33.4115195  70.7519436
  69.6567154  32.4464059  71.3215685  93.2424641  46.6127300  74.3146992
  92.8533554  45.7400179  74.2580605  93.6613274  46.7438793  73.4640598
   2.5678694  97.7579117   1.5507542   3.3479011  97.9160309   2.0825255
   2.7620423  96.9503784   1.0749185  56.9844294  34.9094248  67.4540997
  57.4503279  34.2576218  67.9778576  57.5414181  35.0430346  66.6871929
  85.5882549  64.9983835  87.1060562  85.1906586  65.4098558  86.3386917
  85.7631111  64.0982199  86.8315411  62.2247028  26.0696530  70.1827955
  61.5155840  25.4413939  70.0461340  62.5916719  26.2102222  69.3099833
  44.2660570  40.9730911  46.6457796  44.7317982  41.3269091  45.8880615
  44.3509007  41.6504335  47.3167801  69.0624237  47.3519468  82.5421333
  69.8274612  46.8026924  82.7132225  68.6342096  47.4382019  83.3938503
  86.2254333   9.9873346  64.6611643  85.9523964  10.6157422  65.3295851
  85.4139328   9.7434908  64.2159319  65.9665728  12.7679455  63.2209158
  66.3133335  12.6315546  62.3392200  65.2647305  13.4085715  63.1058073
  80.7083416  31.1955023  81.0983372  80.8313751  31.5430999  80.2150154
  79.9166298  31.6282845  81.4179134  65.3907156  62.9762459  67.2855425
  66.0529327  63.4513712  66.7835903  64.5756149  63.1226873  66.8055439
 101.7827702  34.4999337  84.5460129 101.9592190  34.6024895  85.4812050
 101.0656261  33.8672471  84.5055485  46.7630625  36.5370870  68.3613920
  47.3826742  36.0290456  67.8377485  46.8095064  37.4208760  67.9967070
  85.1396942  42.0703030  84.3988037  85.4851151  42.7385855  84.9906731
  85.8596039  41.8907309  83.7940598  88.8319111  49.1338158  75.0889921
  89.3184566  48.5410547  75.6618214  88.5568619  49.8490906  75.6625509
  66.9175053  41.0817909  78.8372946  67.6276398  40.5140495  79.1366482
  66.7290211  41.6454697  79.5876074  59.0279770  15.6469178  69.8862457
  58.6232615  15.1754415  69.1581345  58.2897282  15.9990346  70.3834629
  60.7049084  23.0917096  72.6910210  60.5477238  22.3811340  73.3127975
  59.8618364  23.2205772  72.2564507  11.8610585  84.0994263  74.2010689
  11.6890001  85.0016785  73.9317083  12.7059400  84.1401958  74.6491146
  45.9793234 108.0702209  64.6254635  46.8705797 108.2565594  64.9207163
  46.0135126 107.1646214  64.3173218  65.8088684  17.1624255  54.2950487
  65.8829403  16.5065074  53.6018562  65.8736944  18.0014133  53.8388348
  88.5825443  29.1064453  56.5673590  87.7880669  29.6000791  56.3639784
  88.7581158  29.3036723  57.4874163 104.0651131  82.5276661   1.6986337
 103.4508991  83.2596016   1.6418010 103.5170555  81.7705727   1.9052376
  52.5212765  23.6679578  65.7897091  52.6406574  23.4818292  66.7210197
  52.0168877  22.9244232  65.4595947  78.5257912  10.3148186  87.2370434
  77.8270578  10.3071094  87.8912258  78.4681034   9.4576895  86.8148708
  93.9525795  35.3070617  62.3136854  94.4256592  35.3337407  61.4819860
  94.4199467  34.6537209  62.8342199  43.2834721  14.4046891  83.1470585
  43.6148500  15.0450099  83.7766647  42.3459768  14.5889568  83.0889511
  75.7072830  20.3697968  95.5312824  74.8096132  20.6203365  95.7495785
  75.6327581  19.9219453  94.6885967  84.6487427  32.2949958  88.2958412
  84.6223831  31.7325377  87.5217724  83.7370300  32.3517728  88.5818100
  69.2254686  20.6505418  65.8331871  69.2569637  20.9680915  66.7356300
  70.0283480  20.1394939  65.7309484  77.5354624  68.6770821  67.1274900
  77.0817327  69.5198965  67.1322918  76.8443727  68.0339193  66.9694710
  57.2796059  51.0206318  73.0051327  57.1800566  50.3948927  73.7226105
  58.1728172  50.8831978  72.6896620  97.1898842  15.3528810  64.5787477
  96.3089180  15.2999318  64.9493170  97.0586872  15.7053423  63.6985254
  69.0949726  28.2486296  81.5178680  69.1772604  28.0866718  82.4576759
  69.5852709  27.5358987  81.1081696  97.5203514 100.2403259   1.3171968
  97.7676964 101.1632633   1.3741836  97.7186871  99.8852634   2.1836965
  70.2178764  37.0458293  85.3709698  69.7485685  37.7994752  85.7287407
  71.1356735  37.2105002  85.5872059  75.7212305  76.2919235  75.8057022
  76.5454769  75.8052874  75.8109713  75.7694864  76.8531513  76.5796089
  77.5064564  46.6073847  66.3283634  77.7093935  46.0474539  65.5790186
  77.4036217  45.9995747  67.0606375 111.2804890  59.0137720  94.1137981
 111.7642593  59.2044258  94.9174404 111.1059380  58.0735970  94.1566277
  90.0717163  57.6920986  57.5854921  89.4581127  58.3112001  57.9810047
  89.6945667  56.8314505  57.7679014  39.8499584  93.5843754  57.3296070
  39.3544602  93.7455273  56.5266418  39.1939807  93.2876015  57.9603577
  67.2916651  21.3023901  46.3319778  67.5133467  22.0676947  46.8624449
  67.6757479  20.5639434  46.8046379 106.6531181  48.2696390  90.6152153
 107.1374702  47.5411558  91.0037136 105.7544231  47.9481840  90.5427647
  76.5955114  25.0900936  87.3579311  75.8962774  24.7546506  87.9189777
  76.1613512  25.7243013  86.7873859  94.4109726  87.5883865  62.0049191
  94.5113945  88.3043098  61.3775396  93.6945915  87.0601177  61.6528511
  76.1639786 108.3658123  77.7963686  75.2295732 108.3073425  77.5971127
  76.5785360 108.5408497  76.9515419   0.3649603  81.9499111   5.4412377
  -0.4938234  82.2662354   5.7216996   0.6461035  82.5781918   4.7760648
  76.6965866  21.9481778  69.3149281  76.9140816  21.9100785  68.3835411
  76.6827345  21.0330582  69.5952749  60.0811529  53.8660145  87.6628017
  60.9629345  54.2119837  87.8006458  59.5807409  54.1784477  88.4165955
  65.5042601  46.8964338  73.1438065  65.0223160  47.7129507  73.2751799
  66.1581135  47.1087551  72.4777555  74.0399790  17.3768377  83.1055927
  74.6320438  17.7370167  82.4453163  73.1816626  17.3745155  82.6818943
  76.5088129  46.5449190  70.0630856  76.7276955  47.3176575  69.5423222
  76.4324713  45.8379936  69.4222641  67.3820114   2.4516089  72.8531981
  66.7346191   2.1700226  72.2068071  67.6810598   1.6394764  73.2621527
  79.6990681  89.7215366  66.7791319  79.1230631  89.8185539  67.5374413
  79.1575527  89.9780178  66.0326624  77.8928089  34.7383165  79.5960045
  78.2136488  34.9735832  80.4666042  78.6826468  34.6730590  79.0592241
  49.2943335  27.9532146  77.1028185  49.0344810  28.8160777  77.4255800
  48.5941792  27.7020049  76.5004015  40.1342964  33.1564808  79.3364334
  40.4861355  33.8969898  79.8304844  39.9003935  33.5260701  78.4850073
  41.6993713  33.6105609  60.2961349  41.2156487  34.4322133  60.3805733
  42.6192188  33.8748074  60.2792263  71.9164610  13.9820266  53.6010408
  71.4728403  14.7661042  53.9245510  72.8309011  14.2474210  53.5030890
  79.0972376   2.7519450  84.1145039  78.5467482   2.7025706  83.3329868
  79.6541405   1.9750232  84.0646648  58.0234766  23.0525637  94.0821457
  57.4069166  23.0069184  93.3513927  58.8030434  22.5954008  93.7666893
  32.2158146  61.9764757  66.0057163  31.6033101  61.7768908  66.7137003
  33.0792499  61.9327879  66.4165735 113.4955406   3.1941420  66.1883497
 113.4001637   2.7028126  65.3724289 113.6124039   4.1021505  65.9088945
  84.7809219   7.8301865  95.4585743  84.9741650   7.0045185  95.0145435
  84.0381527   8.1933838  94.9762726  93.9990520  37.3923063  64.0395737
  93.9599895  36.7275143  63.3519983  93.9336014  38.2248402  63.5717773
  55.2469730  55.1948309  61.5359879  55.3042030  55.0693464  60.5887794
  56.1543131  55.1544380  61.8382025  57.0406294   8.9778727  80.4795456
  57.0931625   9.2334795  79.5586014  56.9944000   8.0219787  80.4605484
  26.3605332 105.8968067  59.3101597  27.3098516 106.0190010  59.3005705
  26.1701870 105.5683327  60.1888561  72.2627068 110.3720284  46.1387300
  72.0304871 109.7469044  46.8254042  73.1978226 110.2299404  45.9917498
 105.5322361  24.6322155  66.1811352 105.5507565  23.7043166  65.9468460
 105.4213905  24.6370196  67.1318817  45.8870029  43.2512474  63.8912439
  45.1726818  43.7492895  64.2886496  46.6456938  43.8318586  63.9504194
  39.8958755  39.3406200  64.5232201  39.2140937  38.9677882  63.9642906
  40.5951834  39.5853281  63.9171505  14.5898509  20.6765604   0.2786796
  15.3940320  21.1824298   0.1619718  14.0790689  21.1813569   0.9115415
  93.8034725  11.5118778  79.9202585  93.8437939  10.5561256  79.8864222
  94.6686935  11.7772162  80.2320576 106.8529415  99.1510963   5.3193516
 106.4113617  99.9615860   5.5730140 107.6369953  99.4412994   4.8532140
  36.8961716  18.7474322  53.2147503  37.4555230  18.0509293  53.5586071
  37.3205519  19.0149391  52.3995352  51.8513775  45.9183550  73.3924675
  51.8658590  46.8373442  73.1250954  50.9222889  45.7149029  73.5003185
  87.3118401  37.5930023  64.0986967  86.8761826  38.1742930  64.7220230
  86.7751598  37.6444960  63.3077765  81.3378525  58.7881231  72.3652697
  81.5255451  59.3259621  73.1345129  81.8727493  59.1702986  71.6695213
  76.2413454  80.6309986  72.9051352  76.0423183  79.7760630  73.2868481
  75.3903866  80.9773445  72.6365423  90.1832771  55.7798815  90.7856560
  90.2810669  54.8846960  91.1101627  89.8465157  56.2708902  91.5351486
  56.7694473  37.2735667  90.9239578  57.1852350  37.7646542  91.6326141
  56.5554905  36.4257884  91.3134766  91.2927341  54.8098612  64.9466801
  90.9521198  54.1129398  64.3858671  90.5357742  55.0985479  65.4564857
 103.9674377  35.8612299  88.1274223 103.2281399  35.2900791  87.9189777
 104.3583107  35.4713178  88.9093590  65.8038807  40.3878212  70.7952404
  66.3840961  41.0201168  70.3712273  65.1315022  40.9240437  71.2154818
 101.2517738  24.9733615  27.0491266 100.6055355  24.3875694  27.4434090
 102.0281792  24.4267535  26.9281006  83.1922722  60.7508421  64.3789434
  82.3707008  60.7020950  64.8676968  83.0018139  60.3182554  63.5465813
 111.5888405  64.5779848  87.8775024 111.5814972  64.1607237  87.0160675
 112.3683739  65.1333857  87.8679657 103.0852318  96.4801025  87.7921963
 102.9237080  96.7900848  86.9010925 102.4372005  96.9391155  88.3266068
  89.4416046  63.9006662  67.2700310  89.3756771  63.0097818  66.9262218
  89.6370506  63.7846994  68.1998634  79.5976210  49.9794006  72.2428942
  80.3415012  50.5605507  72.4014521  79.7508574  49.2312956  72.8200293
 105.4297256  58.4050703  55.1601362 106.1283779  57.8271675  55.4669857
 104.6541595  58.1210375  55.6439209  83.3396816  23.2352090   5.8934617
  83.7041473  24.0967846   6.0961562  83.8542175  22.9269457   5.1475036
  85.1719666  56.5653181  76.4120674  85.5418587  56.3639784  75.5524921
  85.4989147  57.4419594  76.6141462  93.9504814  21.4832711  78.8346672
  94.5196819  21.6236925  78.0780125  93.9779758  22.3123860  79.3122053
  93.8197231  48.3378744  86.9295692  93.4899998  48.4177828  86.0345173
  93.1636238  48.7816048  87.4670315  60.0104237  77.9543257  55.9894323
  59.6897936  77.9555130  56.8913364  60.7663155  77.3672819  56.0047340
  91.4302349  15.1150906  63.5252428  90.6516457  15.6465721  63.6912680
  91.3293266  14.3563581  64.1000223  20.8992934 107.8831768   9.2233920
  20.0294161 108.2251453   9.0169841  20.7746387 107.3821831  10.0294304
  17.2675872 107.2593403   1.3533607  17.2295284 108.2155514   1.3745227
  17.1074235 106.9931698   2.2587509  96.7649651  60.8948612  79.6180534
  96.4035702  61.6387129  79.1360712  97.4233818  61.2808609  80.1957417
  93.2284737  15.6336534  73.6586618  93.3344364  14.8561990  74.2069054
  93.6171722  16.3427198  74.1708803 106.4807796  20.2084351  73.7842131
 106.7130375  21.0032082  74.2644453 106.9843483  19.5150900  74.2107439
  89.1896629  51.6232681  64.6885490  89.5969105  52.1266556  63.9835787
  89.2428398  52.1961451  65.4535389  76.9317007  49.1787481  65.5085850
  76.2930489  48.8545752  64.8735523  77.1287155  48.4204865  66.0585451
 110.9165859  61.5574360  37.2227073 111.3451290  61.4064503  36.3802195
 110.0375843  61.8592596  36.9936204  20.6676531  77.5332022  16.0697746
  20.7034898  78.4082460  15.6834459  21.4675117  77.1042204  15.7657492
 102.7647305  70.7985592  93.1999683 102.4662781  71.4332294  92.5485420
 103.4797192  70.3307152  92.7685165   5.9450507  24.5054007  78.0170202
   6.6359818  24.9420524  77.5188446   5.5181324  23.9308453  77.3815203
  21.0540247   1.8432635   9.5353484  21.4778280   1.7403974  10.3874302
  21.1854982   1.0013752   9.0992630  17.3070288  80.0184250  20.6636262
  18.0534387  80.5790806  20.8751893  17.6199663  79.4620466  19.9503601
  72.9192543   8.9392668  91.5792179  73.4032488   8.8699579  90.7563114
  73.2422733   8.2105494  92.1091843   7.0973402  46.7337370  41.3426876
   6.9557953  47.5681210  40.8954668   6.5544212  46.1090946  40.8617592
 105.8201981  59.8321199  67.0421600 106.5325546  59.4107056  67.5229931
 105.0642586  59.7637320  67.6253462 117.0872593  40.7619905  60.4664993
 116.3829136  41.3358784  60.1651812 116.8375397  39.8922038  60.1545048
  77.7140522  17.8114665  89.6107388  77.4868202  16.8837786  89.5475578
  77.7309513  18.1162453  88.7035179  57.0917034  57.0918512  94.4542027
  56.4849520  56.3515615  94.4470501  57.9538298  56.6937733  94.5746231
  86.5116024  58.0727720  73.4487867  86.1143017  57.2740936  73.1016636
  86.4413738  58.7054443  72.7339268  84.3158817  73.4046841  69.6721458
  84.8059940  72.6340532  69.3855286  84.0798283  73.8539124  68.8605356
  78.6392080  31.0839600  96.3101309  78.6055433  31.8075127  95.6843744
  78.3617556  31.4719243  97.1400320  26.7259717 110.7538605  86.8533707
  26.5709424 111.3138103  87.6140594  26.8519688 109.8792839  87.2214508
  99.1945553  61.5511274  54.5041466  99.7155094  62.0645905  55.1215506
  98.5900116  62.1840191  54.1165781 103.8965321  49.8024607  69.4918251
 104.0892220  49.0012312  69.0048647 104.5661068  50.4236650  69.2054558
  79.6321535  36.1396003  89.2763042  79.7190857  36.6705227  88.4845924
  79.5029116  36.7766738  89.9789143  98.6387253  50.9414387  58.2428312
  98.0130959  51.3729000  58.8247728  98.2022285  50.9259415  57.3910904
  72.4366570  51.0973597  94.8531723  72.4704790  52.0510054  94.7780418
  71.9181299  50.8159685  94.0993881  49.1039371   2.8761318   7.3320776
  49.5576191   2.7002349   8.1563735  48.3587933   2.2753182   7.3358595
   0.4273632  33.6363196  85.9093666   0.3103204  34.5787668  85.7896805
   0.3410675  33.5021973  86.8531799  11.0005021  25.9670305  12.1909034
  10.2954876  25.3809977  11.9156682  10.5613172  26.6460848  12.7029884
   2.5825462  41.0408354  95.8001614   2.2426996  40.1604557  95.9603691
   2.8502914  41.0306597  94.8812199  44.9981689  31.9123197  14.9774766
  44.3766499  32.5197363  14.5762420  44.7387123  31.8775868  15.8981872
  77.4083042  50.8235550  81.9837761  77.0901299  50.6558704  81.0967159
  78.1713915  50.2531528  82.0763397  72.9400444  26.8900990  88.1841183
  73.0430079  26.0769343  87.6897621  72.6819801  26.6062188  89.0610790
 102.9265690  50.0141859  35.8240509 103.2973671  49.2643166  35.3588247
 102.1594906  50.2611017  35.3074741  90.8342743  46.6800928  84.8775005
  90.0605392  46.9906092  84.4072342  91.2708569  46.0937691  84.2595577
  99.3116283   7.8418541  64.9282360  99.4340515   8.6331522  65.4527283
  99.0380764   8.1637710  64.0693045  93.4654999   2.9195675  49.4874001
  92.9140854   3.7012076  49.4525623  93.1805515   2.3919882  48.7412786
  88.5578442  64.3387842  50.5677843  89.3197060  64.4746590  50.0044584
  88.3571053  65.2086735  50.9130907  86.1015701  60.8440828  62.4502707
  86.7888737  60.2088833  62.2493839  85.8490372  60.6465244  63.3521795
  97.8196716  35.8472681  54.5931244  98.1333923  35.7902861  55.4956579
  96.8773937  35.6914139  54.6568060  82.1471977  19.1438806  72.6805162
  81.2739754  19.1460633  72.2884512  82.6673698  19.7095728  72.1098709
 102.2974110  23.2562613  69.0592194 103.1953335  22.9492140  69.1844702
 101.7541027  22.5772715  69.4592524 100.0082874  43.3745432  50.9782505
 100.5582523  43.6714983  50.2532816 100.5649853  42.7702093  51.4692688
  66.8088818  32.2684693  90.6443596  67.0874453  31.8605161  91.4642429
  66.2162256  32.9697108  90.9150124   6.8704903  73.8435411   7.6213187
   6.4367050  74.3651962   6.9460833   6.7285919  72.9363012   7.3511183
  16.2548602  96.8386650  11.4765275  16.2586367  96.7770100  12.4317324
  16.0391140  95.9543991  11.1802900 111.3183403  53.8885117  51.4919472
 111.1528778  54.7610283  51.1347818 110.4486370  53.5008574  51.5897560
 103.7582970  67.1388626  85.5150509 104.4602013  67.5269508  84.9926090
 103.2442379  67.8869486  85.8189297  11.8125725  72.7953291  48.7834215
  11.7800677  72.7274609  49.7376585  11.2755263  73.5609341  48.5793209
  76.7369509  56.6718864  67.3214149  76.0670757  56.3429880  67.9208612
  76.3687420  56.5295601  66.4494085  64.1101885  39.1193318  89.3163776
  64.1146708  38.7252069  88.4440899  64.5164633  39.9773002  89.1936302
  59.3749857 105.3533936  73.6492968  59.3288755 105.5568314  72.7151012
  60.1914549 105.7579136  73.9425039 108.8780785  94.1863346  88.8166904
 108.6378765  93.6442661  88.0652237 108.3998203  93.8023949  89.5516014
 103.4989071  71.5430593  86.4381981 102.9785347  72.0726490  85.8340645
 104.3283653  72.0143604  86.5163708  74.1765499  66.1227465  90.9035110
  74.7727585  66.6908932  90.4156876  73.7427664  66.7077637  91.5246582
  93.1134641  83.5208326   1.1339349  93.3436859  83.5385685   2.0628709
  92.2829712  83.0459695   1.1020250 112.4461365  61.6950655  72.3767567
 113.1411552  62.1879339  72.8129387 111.7007351  61.7519999  72.9745626
  86.2236500  36.6569018  61.4842939  85.9485245  37.1702528  60.7246828
  85.9420013  35.7641006  61.2847567   2.6068401  86.0854435   3.0395940
   3.1087649  85.4061508   2.5891793   3.2233235  86.4620876   3.6675382
 102.6439476  89.7391701  58.8834047 102.4413013  90.5559826  59.3394566
 103.5178757  89.5020676  59.1936827  56.2421989  46.2880802  81.2545586
  56.1002731  46.3318539  82.2001648  57.1157694  46.6576719  81.1261177
 110.5290031  20.3641462  71.6035175 110.4250622  20.4623365  72.5499773
 110.2264977  21.1970758  71.2416553  89.7483158  57.9971600  62.7423096
  90.6504250  57.6841307  62.8089380  89.4541264  58.0749035  63.6498547
 100.4829884  54.0073586  95.2161121  99.9587631  53.6493015  94.4997215
 100.5037785  54.9497843  95.0498867  83.6192989  47.0566702  82.4718094
  84.3219376  46.7810202  83.0604839  82.9679203  47.4573612  83.0474663
  64.1150999  51.7604446  75.8631611  64.4878054  52.6052189  75.6108093
  64.8743725  51.2170792  76.0740709   1.9889335  87.6974010  47.0391417
   1.3700405  87.1953392  46.5089178   2.1294898  88.5041618  46.5435553
  87.6988506  25.6360483  51.3237858  87.4239063  26.1491442  50.5639362
  87.0054150  25.7734156  51.9691706  71.0214615  78.0128527  81.6877937
  70.9643650  78.0486012  80.7329655  71.5257883  78.7905025  81.9268513
  97.8121853  43.1062365  64.7612286  97.8313065  42.9638672  63.8148689
  98.6879349  42.8591871  65.0583363  92.4906731  65.3072405  53.9220905
  91.9198608  64.8767567  54.5585489  92.8747463  66.0407162  54.4024420
 110.2845001  43.4623289  63.8501167 110.7903385  42.8120899  63.3627272
 110.6052876  44.3051004  63.5290718  70.5615664  51.1517286  90.1133728
  69.8248339  50.5470371  90.0250149  70.7793999  51.3968658  89.2140961
  74.9812269   9.0890914   9.8231119  75.5394697   9.8399550  10.0251043
  74.1313362   9.4734442   9.6081901  67.8170776  53.0156231  72.9972839
  67.2938442  53.7833405  72.7669144  67.5496244  52.8030205  73.8914299
 104.7214794  99.1759968  20.3705359 105.1270294  98.5358047  19.7857893
 104.7251225  99.9925804  19.8711264 105.6202030  85.7063580  64.6927166
 106.3868999  85.6086922  64.1280317 105.7690525  85.0877094  65.4078054
 117.6945749  67.3150110  38.6315489 118.3067085  67.0667124  39.3242764
 116.9585563  66.7118073  38.7347746  86.8527603  35.1894164  73.6717987
  86.5636444  35.9457898  73.1613684  86.5995693  35.3965855  74.5713568
  75.3599882  23.1426287  11.6483402  75.9482861  22.4750996  11.2954342
  75.1312399  23.6839342  10.8927643 118.0827151  51.1087704  55.3323650
 118.9228213  51.3224030  55.7383394 117.6709306  50.4964066  55.9420156
 110.7196617  52.8051615  72.4600363 110.5973911  53.6086464  71.9543791
 109.9963284  52.8042889  73.0869436  99.8423862  73.1799173  80.1564026
 100.1811218  72.4411249  80.6620502  99.2829132  72.7786016  79.4914436
  76.5650845  33.4831667  86.1607838  76.6104984  34.4267654  86.3150215
  75.9352446  33.1648111  86.8074512  72.9962969  70.7357121  54.0436888
  73.6780739  70.7104635  53.3722925  73.4530449  70.5210495  54.8570347
  92.8751850  54.9090910  52.5666809  92.6083660  55.7237911  52.9924870
  92.1915245  54.7430134  51.9176292  94.7189426  54.5455647  72.5537205
  95.1331139  55.3706646  72.3009396  93.9880753  54.4476032  71.9434214
   6.7758662  49.1539574  84.3050003   5.9551990  49.5603943  84.5834732
   7.4107456  49.4146585  84.9722290  82.7824402  56.4674377  62.8383112
  83.1400490  55.6248522  63.1183147  82.0715618  56.6427183  63.4548855
 103.4992695  25.6467032  81.1267948 103.6774826  25.2219081  80.2877331
 102.5492382  25.7629299  81.1394024 104.1250610  40.0652027  81.3609123
 104.7725582  40.2502108  82.0411682 103.8366127  39.1705942  81.5417480
  83.6973095  55.4142189  92.7774525  83.1567001  55.9703350  92.2164631
  83.3236408  54.5385742  92.6781750  56.9575310 109.1628742  78.7887239
  56.7127228 109.9009228  78.2305336  57.5562716 108.6443520  78.2512522
  13.4345412  35.7632399  71.0396194  13.0811727  35.0629544  70.4910183
  13.4320652  36.5352178  70.4736948 101.2308598  52.0438051  58.0246449
 100.3907776  51.6324186  58.2277346 101.0145760  52.7323818  57.3959064
 102.9291725  48.7946224  43.2412195 102.8881073  48.5592699  42.3143148
 102.1549797  49.3389463  43.3846521  88.3668041  28.6920142  69.7885418
  88.3253098  28.2935071  70.6578541  87.6937771  28.2357073  69.2835140
 100.0210190  75.9082413  75.8422279 100.5552197  76.6123819  76.2097120
  99.1500854  76.0497618  76.2132597  91.7400837  35.3066373  91.0998249
  91.4825344  36.1944699  90.8515167  91.3846207  34.7512460  90.4059792
  57.2886610  68.1875753  78.5407495  57.5411177  68.1826305  77.6174545
  57.0655632  69.1003609  78.7231684  79.8007488  66.6761923  73.5908985
  79.1020918  66.3114643  74.1341162  79.8208904  66.1134005  72.8168869
  86.5872955  62.8135109  85.7419968  87.3497105  62.2348404  85.7512093
  85.8682537  62.2575569  85.4417706  76.0699892  67.1882391  83.0069447
  76.1935902  67.9299879  82.4146938  75.8469248  67.5876665  83.8477421
 108.8902473  30.5679584  85.4373741 109.7752762  30.5957031  85.0737953
 108.9793587  30.9430838  86.3134861  59.6849442  50.0202370  72.5158024
  60.0101042  49.1559410  72.7677870  60.2002954  50.2543259  71.7438889
 103.2983494  46.7286348  45.0990963 102.8632545  47.4067736  44.5823145
 104.2281246  46.8331146  44.8970318  73.3342409  51.5824938  73.1842899
  74.2556477  51.4582014  73.4118652  73.3356571  51.6976166  72.2340393
  80.9727478  93.2137203  61.4231396  81.0166550  92.5003815  60.7863903
  80.9702110  94.0096188  60.8913803  98.0201530  16.8195796  71.9775152
  98.7275028  16.1787176  71.9055510  97.5192261  16.5384459  72.7431965
 110.5438328  57.8353548  36.9809389 109.7608566  57.2857141  36.9481754
 110.2668476  58.6187172  37.4561787  65.1596546  64.3088627  60.0965595
  65.9702635  64.7874641  59.9231005  65.0538301  64.3534851  61.0468483
   5.1293069  16.4689231  66.4087200   4.8360988  16.8411279  65.5770206
   4.4242948  15.8753431  66.6672802 112.0786762  37.5054121  81.3124752
 111.8724918  38.4394550  81.2766361 112.2131252  37.2545719  80.3985596
  95.1651001  63.1175518  78.1879091  94.5297909  62.9649878  77.4883890
  94.6913433  63.6452007  78.8308477  80.7528973  39.9999046  66.0427952
  81.1207676  39.9507904  65.1604748  81.3226700  40.6139231  66.5060139
  98.7551212  60.2538109  76.6970873  98.8899517  60.6745529  75.8479548
  98.1533051  59.5323229  76.5140247 113.6199284  78.7364006  17.7490771
 113.7341499  79.0341520  18.6515903 114.5114803  78.6263132  17.4185383
 100.5496883  80.7020569  13.3664608  99.6710396  80.3889751  13.5813713
 101.1136150  80.3089046  14.0325356  89.6000099  11.9142520  84.8805904
  89.4407654  11.5983427  85.7700157  89.5995808  12.8680241  84.9615097
  93.1225491  43.2141447  81.5459824  92.8217793  42.3553467  81.8430328
  93.4610844  43.0576229  80.6644344  86.3578224  53.1135511  67.0274925
  86.0130405  53.8697577  66.5526152  87.3064041  53.1709385  66.9129372
  53.7195349  42.4955320  67.8722334  54.6653366  42.6424026  67.8831100
  53.5444975  42.0023918  68.6737347 112.2093678  63.7152672  56.8375397
 111.8004417  63.9253950  55.9979820 111.5207005  63.2752943  57.3359251
 102.9644012  63.6454487  71.4756346 102.4738216  64.4541311  71.6225624
 102.4663544  62.9748774  71.9430923 107.4578571  50.6666899  48.9550543
 106.9318676  50.0291204  49.4378185 107.7721691  50.1867819  48.1888103
  70.9233379  37.8616858  73.6257648  71.4906216  37.8208280  74.3956709
  70.0576830  37.6169395  73.9528370  81.9373608  51.2772179  71.6736555
  82.4928093  50.6006908  72.0609903  82.1784782  51.2837124  70.7473469
  89.9588490  79.2454958  49.7696447  89.3721104  78.6298561  49.3303728
  89.4277287  79.6242666  50.4701328  42.4579525  27.8346491   8.0790836
  42.3610258  27.7614045   7.1296245  41.8958139  27.1445227   8.4311700
  82.1001148  83.4686184  90.7501030  82.9446411  83.8527775  90.9855461
  81.4604855  84.1488361  90.9608269  22.6692128  86.5694332   0.3238843
  21.8273187  86.7221928  -0.1051926  22.6235580  87.0827293   1.1305280
  70.1142597   9.8176050   2.8623024  70.0420284  10.7463706   2.6422817
  70.9093332   9.7580695   3.3919668  22.5961256  33.8786697  63.1348515
  22.5120378  34.3400025  62.3003864  21.9517779  33.1726384  63.0841923
  74.2870522  66.2987375  72.6877356  75.0181007  65.7507372  72.4022675
  74.3419981  67.0783138  72.1350384 102.6006508  30.4106212  76.3173676
 101.7095852  30.3322935  76.6581059 103.1547165  30.0532889  77.0113134
  97.1655369  18.9050198  57.4209404  96.5750122  19.4130290  57.9772186
  98.0250072  19.3037927  57.5570107 101.9540405  19.9144721  66.5871096
 102.6320267  19.7742045  67.2480917 101.9450760  19.1042459  66.0775185
  73.0310583  58.3808136  88.6237812  73.1284571  58.6501217  89.5371342
  73.2447863  59.1652966  88.1186676   5.3721493  78.8192034   8.3864295
   5.0274372  78.4295368   7.5829589   5.8048362  78.0943584   8.8376671
 104.8449230  45.0804615  62.3949146 104.8654366  44.1234970  62.4007273
 104.1431522  45.3086901  63.0045462  27.9915118 111.2491512  13.9973605
  27.5260401 111.3668633  14.8254395  27.4838400 110.5862141  13.5293686
  89.7733307  68.3477688  67.2168112  90.3987217  68.9548779  67.6124620
  90.0133896  68.3265734  66.2904453  71.2838840 104.3443966  56.5078974
  71.6461563 104.9972630  57.1068573  70.5185127 104.7711945  56.1228371
  91.2179947  73.2132006  78.7789917  90.6987572  73.7801647  78.2087612
  91.9700146  72.9594040  78.2439280  12.9507339  39.5880079  75.4210997
  12.2054291  39.4305849  74.8414707  12.7295041  40.3977060  75.8811903
 101.9775963  62.1681452  43.3935976 102.2164822  62.1877289  44.3203020
 101.0241222  62.0837879  43.3937693 104.5365906  51.9461727  75.4187775
 104.9362850  51.7789936  74.5652437 105.2641678  51.8930817  76.0384941
 116.5632534  66.0874271  77.5640297 116.5462875  65.3966665  78.2264471
 117.1941948  66.7247343  77.8986692 113.1104279  48.6834288  81.2309074
 113.7886524  48.8021564  80.5659580 112.3490143  48.3696318  80.7430458
  85.1572800  33.4807301  61.2311935  84.9960613  33.3309460  60.2996302
  84.4857025  32.9641676  61.6765785  86.5221786  48.7944984  68.6011124
  86.8767262  48.2141018  69.2746639  87.2849846  49.0584183  68.0866194
  61.5063715  35.9839606  73.3782196  60.7127810  36.4560008  73.1259823
  62.2186375  36.5949917  73.1896782  62.2970438  49.7275066  94.7932243
  63.2141399  49.8693037  95.0278664  62.1313906  50.3514862  94.0865135
  86.3261318  55.2722073  72.8516006  85.6244659  54.6338272  72.9795074
  86.9464016  54.8329878  72.2697163  62.1133900  81.5802097  88.9918900
  61.6185474  82.2001743  89.5276165  61.8135786  80.7191849  89.2834091
  79.3144894  31.5913558  70.9980154  78.7535286  31.1992407  70.3288364
  80.2050018  31.3787794  70.7186794  21.0878205  99.7101884   0.0992269
  21.4321160  99.8198562   0.9856004  20.1481461  99.8707061   0.1857252
  76.3504219  68.7622404  80.6063461  76.2627411  68.7899637  79.6535683
  75.6823969  69.3686533  80.9260845  80.1540565  87.3563862  75.8009291
  80.3580570  87.3330784  74.8660088  80.3167152  86.4630985  76.1039162
  70.0266361  53.5485888  91.3908386  69.2944002  53.8222933  90.8384323
  70.4194307  52.8130817  90.9207630   4.2268249  64.6868801  49.3627119
   3.4286493  65.1940346  49.5108461   3.9538729  63.9738941  48.7853289
 102.0491982  58.4940195  81.4332008 101.5084648  58.6403847  82.2093582
 102.4533653  59.3440580  81.2590981  90.3625870  64.0121078  81.7498970
  89.6607971  63.3685970  81.6518211  90.0944138  64.5469570  82.4970531
 107.4590206  36.8126369  78.7030315 106.5588760  36.5457153  78.8893795
 107.8682804  36.8928790  79.5646000  61.7776108  51.9223547  73.7829685
  62.5152349  51.8176126  74.3839455  61.0741043  51.4048481  74.1747618
 102.4159813  83.9431953  45.8904791 102.7327061  84.6803188  46.4125586
 102.9319859  83.1960011  46.1932659  92.2767639  57.1658659  68.9019346
  92.0315075  57.7421618  69.6257877  91.6903496  57.4155045  68.1877708
 109.8135471  84.6262741  55.0274944 110.7216740  84.3377018  54.9365282
 109.3314934  83.8316059  55.2563190 112.6178265  57.9603195  63.5579109
 113.1547451  57.9074955  64.3485785 111.8141079  57.4914026  63.7824011
 113.2889080  29.3783760  57.5849438 112.4725914  29.4139147  57.0863390
 113.4918308  28.4449267  57.6459932  81.9860840  56.8191290  50.5233431
  82.4275208  56.4870310  51.3050556  81.4561749  56.0833311  50.2167177
 116.1369133  68.5882282  51.8667555 116.8717003  69.1490269  52.1154118
 116.4270115  68.1553364  51.0638332  92.3866749  52.9414129  78.2530117
  92.3960304  52.5639677  77.3734236  91.5111446  52.7472591  78.5876608
  83.3494949  39.3872499  84.8802757  82.8242302  39.7522593  84.1681671
  84.0929699  39.9848318  84.9601364  17.2042811   3.6900166  26.5092993
  17.3293042   3.8498127  27.4447489  17.2933817   4.5530042  26.1048937
  95.6631851  68.7134171  63.2220459  95.4218292  67.8950357  62.7881956
  96.5742302  68.5849047  63.4860802  22.2291899  34.9480963   4.3125308
  22.7475238  34.6589422   5.0634980  22.2811246  35.9035110   4.3392709
   0.9075343  21.8569660  66.2868643   0.3019511  22.3998451  66.7916250
   1.5748202  22.4685287  65.9754848  32.6749015   1.5363416  11.2852371
  32.0843840   2.2555521  11.0610592  33.5290074   1.8162246  10.9559941
  27.6905417 101.4634514   9.0788615  28.3595490 102.1017933   8.8315320
  26.8930483 101.9817829   9.1864341  80.0636005  81.0224438  42.8940487
  80.5961609  81.5974426  43.4435844  80.0929356  80.1739883  43.3362055
  61.1071539  75.8945751  71.1553383  62.0361805  76.0847807  71.2855911
  60.6722784  76.2993860  71.9058323  88.3183765  78.5650635  81.1446285
  87.9248238  77.9662037  81.7792225  87.7306461  79.3204689  81.1317348
  88.1481934  43.2377481  83.5833359  88.3590508  43.4949303  84.4809055
  88.7907696  42.5608397  83.3709145  58.9959621  88.5485363  54.2096663
  58.1310415  88.9225388  54.3778038  59.2994356  88.9931774  53.4181929
 106.4734268  42.0479107  50.9622717 106.5161800  42.9678583  50.7013035
 105.7544994  42.0110798  51.5931606  84.3001175  66.1294508  38.6045027
  83.3760643  66.3791227  38.6096716  84.6650124  66.5455294  39.3855047
   1.9452254  93.7730694  72.2177267   2.1169348  92.8617477  72.4548674
   2.4718359  94.2838478  72.8325558  65.8684015  87.3616028  82.9276562
  65.4266691  86.5879250  82.5776196  65.5178833  87.4574089  83.8132000
  72.8496885  21.7884421   0.4914881  72.1503782  21.6610932   1.1325627
  73.5027122  22.3162580   0.9510620 106.7845440  50.7476664  38.9627337
 106.4439297  50.9934378  38.1026101 106.3538647  49.9164486  39.1623139
   7.5100362  88.1428337  39.6433687   7.9720801  87.7953529  40.4062605
   7.3214340  87.3731422  39.1064954  95.2268887  52.2110367  59.9108744
  95.1305008  52.8244925  60.6393051  94.7367764  51.4356279  60.1843071
  89.7575092  13.6069906  68.4044361  90.2807808  12.8088593  68.4779453
  88.9973068  13.4473431  68.9637470  92.9894638  54.1077328  87.6838112
  93.9349842  54.1924953  87.5611687  92.6133060  54.3952179  86.8518925
   2.9425025  29.0857863  47.8107119   2.5820211  28.5168672  48.4908676
   2.1926314  29.3006849  47.2559643  13.2838619  71.2116814  72.4729300
  13.8931835  70.6149292  72.0383692  13.8420439  71.8933868  72.8470182
 117.4248219  67.0831442  82.6660347 117.8566551  67.6321650  83.3205032
 117.9753494  67.1613216  81.8869019 105.9792423  89.5143890  85.5845928
 106.3453579  88.8396454  86.1563492 105.3921795  89.0381050  84.9974537
 109.1545010  90.6338692  87.2363949 110.0652885  90.9274006  87.2594166
 108.6701012  91.3830566  86.8895245  45.3542757  19.8307562  29.9700642
  46.2503862  20.0260401  29.6960616  44.8122215  20.1075482  29.2312860
  69.7666645  84.8531723  74.8338795  69.3290806  84.5295143  74.0464830
  70.0612831  85.7332516  74.5995569  91.1299419  45.0288963  73.2295513
  90.2799892  45.1578665  73.6504745  90.9725857  45.2270889  72.3064089
  19.0482974  51.2165165  90.2367306  19.7663558  51.3078547  90.8630562
  19.4783950  51.0025644  89.4087982  88.5624695  60.3512001  61.3445234
  89.0147495  60.5275345  60.5195522  88.6667252  59.4091368  61.4782286
  79.0774727  71.4383316  82.3955345  79.2520571  70.8835983  81.6352558
  78.1524372  71.6708374  82.3150158  58.4444857  21.7019629   8.5915512
  58.6084223  22.3464346   7.9030651  58.3454847  20.8723760   8.1244183
  98.0733395  82.0708561  59.0209866  97.8676319  82.1315765  58.0881262
  98.5414886  81.2406540  59.1094780  63.1479168  59.6635485  55.4611301
  62.6841021  58.8365316  55.5921078  63.2691097  60.0126362  56.3441277
  88.0713749  78.2804394  73.9704132  87.2355556  78.2643509  74.4366646
  88.2042503  79.2020845  73.7487125 113.4649658  76.2693357  94.6620369
 113.4606743  77.2192812  94.5444775 113.0907536  76.1340332  95.5325985
   4.3394682  52.1386814  53.5931730   5.2668768  51.9594669  53.4381676
   3.8806945  51.6050434  52.9443359 104.3529034  51.5837622  63.5383320
 104.6492481  51.9732523  64.3609571 104.1485882  50.6760168  63.7630320
 106.5750313  79.9047565  52.5485134 105.6846714  79.8304129  52.2050381
 107.0207405  79.1195965  52.2305536  88.1313324  56.2415218  79.9541521
  87.9388905  56.3954210  80.8790874  88.2877445  57.1143150  79.5936012
 100.6466389  34.2518687  60.6225872 100.5698204  33.3039379  60.7310057
  99.9240589  34.6111608  61.1373806  58.6979675  80.1369572  54.5453405
  59.1295528  80.9641933  54.7590017  59.1809368  79.4787598  55.0450850
  36.2202382 101.2120533  13.9472663  36.7549467 100.8026886  14.6275139
  35.3286695 101.1845589  14.2945099 112.4284840  76.3745260  60.1982021
 113.0689621  76.9022942  59.7212458 111.6896725  76.9660521  60.3413105
   7.1003848  92.5622845   8.6332077   7.5675017  93.2394791   9.1225308
   6.6395336  92.0574474   9.3032777  97.7416039  72.8310156  46.5127134
  97.4162292  73.7294579  46.5689278  98.1616688  72.6750422  47.3585558
  71.9522524  70.0373077  65.7384443  72.2654200  70.4725266  66.5313768
  71.8445396  70.7452631  65.1032829   3.9748091  79.4067383  72.9505205
   4.6648711  79.3609715  73.6122990   4.3227616  78.9141560  72.2071981
  90.0082207  25.0657248  39.3248510  90.4175949  24.7452211  38.5211611
  89.6394730  25.9154153  39.0834332  80.4316521  43.5987902  79.3405199
  81.1362457  44.1301107  79.7113132  79.7284174  44.2235231  79.1633320
  51.7413330  11.9910944   4.7478393  52.4511194  12.6198137   4.8788008
  51.3271999  12.2644746   3.9293107 106.5896702  69.7707081  29.6195078
 106.7749023  69.6117067  30.5450535 106.8387508  68.9565516  29.1820884
 102.6785374  54.6199846  55.6155872 103.0103016  55.0084209  56.4250851
 103.0128574  53.7231255  55.6257153  59.2027235  74.0533209  73.5549545
  58.3727837  74.2011499  74.0083599  59.8158979  73.8137245  74.2498207
  63.6298418  23.6567211   7.1171659  63.4127331  23.6616731   8.0494052
  63.3772564  24.5266199   6.8077964  88.5530853  68.6170912  50.5846930
  87.9563808  68.0875874  51.1136532  88.6245155  68.1423235  49.7566080
 115.0507832  65.4072046  81.9765568 115.6258392  66.1192989  82.2566605
 114.5887470  65.1451445  82.7728558  82.0541954  89.8042297  80.4517174
  82.8315830  90.2772045  80.7486820  81.7907715  90.2558899  79.6499395
  84.9752998  50.3133917  88.3700943  85.2035332  51.2419701  88.3266926
  85.2192593  50.0479794  89.2568111  78.1389523  90.5864334  83.6962986
  77.9552603  90.4265213  84.6220016  78.3773422  91.5125942  83.6559296
  81.1458492  54.5994473  83.5537052  80.3746796  55.1178265  83.3238983
  81.1366844  53.8692236  82.9348946 109.0094662  34.1770720  67.4776506
 108.6326027  34.3374085  66.6124964 108.4031391  33.5639048  67.8931332
 109.4533253  49.3587828  70.3160048 110.3747463  49.5564842  70.4837179
 109.4514275  48.9368677  69.4568110  27.0545316  12.8425932   8.1290412
  27.5633240  13.6113763   8.3865935  27.0897865  12.2654843   8.8918877
  26.8456030 104.4682121  12.7636850  27.2180295 103.6760998  13.1511116
  27.5208235 105.1353836  12.8869200  90.9209728  82.8033829  66.8480682
  91.5561295  83.4873772  67.0601225  90.5387878  83.0811882  66.0156107
  31.2266827 102.1831226  10.1242173  32.0498991 102.3207474   9.6555996
  30.8686948 103.0628872  10.2429414  18.8194168  78.5783529  84.5399570
  18.1244659  79.2291451  84.4412231  19.1337919  78.4265614  83.6486912
  40.4859972 107.9802608  17.3096526  40.5049133 108.8290691  17.7516985
  39.8418593 107.4692726  17.7997613  89.6093178  82.1670818  73.1799173
  89.7629261  83.1001663  73.0316591  89.4611359  82.0955944  74.1228724
  73.4172916  89.2320919  69.3532848  74.3047857  89.0855694  69.0259933
  73.5106182  89.9412823  69.9893427  76.9393921  89.8343086  43.6379385
  77.4388552  90.1937675  42.9047537  76.5358686  90.5981350  44.0502167
  98.4152126  59.3101597  87.5444984  98.9049244  58.5646105  87.8917217
  97.9223824  59.6432209  88.2944393 105.5573082  72.5623083  93.5061932
 105.2535820  73.1884813  92.8490067 106.4683437  72.3891306  93.2689857
 109.2828369  44.0976429  71.9752407 109.5113850  44.5058823  71.1401749
 109.7794914  44.5919228  72.6273537  63.2918119  59.0678596  85.4217720
  62.7113104  58.3910608  85.7699013  63.9780617  58.5824585  84.9638653
  91.8335819  33.3786869  80.3230572  92.0443058  33.9070702  81.0928917
  92.1338367  32.4979615  80.5475616  84.4340038  68.2387161  62.6106548
  84.8031807  68.6672211  63.3828783  84.7095299  68.7883806  61.8770456
  76.7657137  36.7596292  67.7161312  76.6800356  37.3589921  68.4575176
  75.9621525  36.8862605  67.2116613  82.8838348  82.0592880  81.2906742
  83.1349468  81.3320446  80.7211971  82.5000286  81.6392612  82.0604038
  80.1628685  47.8836107  78.2688093  80.3621960  48.7125874  77.8337288
  80.0258160  48.1213045  79.1858435  98.4962368 104.9209404  20.4563546
  99.3761539 104.8174667  20.8186674  98.2507324 104.0416145  20.1687050
 105.0460243  48.2208920  63.9037895 105.9334660  47.9417610  63.6784697
 104.5315170  47.4137783  63.8947105  93.2928753  76.1927366  38.0950880
  92.7137756  76.8932486  37.7948141  93.0888462  76.0955000  39.0252233
  64.9930716   4.2544213  77.8858757  65.1541901   4.9130815  78.5614777
  65.5485106   3.5155410  78.1344223  42.3217297  15.3975546  11.4509976
  42.3554468  14.6102786  10.9075916  42.1057653  15.0754666  12.3261273
  90.3736782  44.8435211  79.1102695  89.7107029  45.4599237  78.7992239
  89.8718262  44.0972662  79.4381142 117.9305795 109.5182419   9.1067380
 117.6219417 110.0751209   8.3919936 118.0762424 110.1220512   9.8350435
  86.2248611  49.7106981  78.5755777  85.8297920  49.6272945  79.4434500
  85.4828739  49.6866798  77.9713392  57.3427105  23.3263445  96.6027927
  57.2063637  22.5193262  97.0991516  57.4287844  23.0371761  95.6943893
  87.6250744  82.3574829  68.2683372  86.9927502  81.9686031  68.8726282
  88.4548283  82.3388386  68.7451982  91.9631195  92.7535534  65.1403236
  91.9114017  93.4046364  64.4405746  92.6487827  93.0813313  65.7222605
  97.3918247  76.1267996  76.3882303  97.3839188  76.6178846  75.5666447
  97.5867081  76.7827940  77.0575094  84.0329456  81.7818546  73.3032799
  83.2257462  81.4255524  73.6743784  83.8664150  81.8216991  72.3615217
  38.6743569   2.0207742  22.8905821  37.9083848   2.2222228  22.3530555
  38.9594674   2.8695804  23.2289195   5.1533735  28.1074214  94.8841763
   4.6122369  27.3250461  94.7779274   4.5298725  28.8335681  94.8704338
  41.3778305  14.1729581  14.0268266  40.7956362  13.4885955  13.6967838
  41.0673285  14.3432355  14.9161100 110.0255775  91.9485950  44.4739485
 109.9358463  91.6998005  45.3938866 109.9504757  91.1236477  43.9943075
 116.4523506  75.6588650  90.8447552 117.1151447  76.2780046  91.1506939
 115.7607365  75.7026911  91.5050411   4.6709624  70.1293135  51.5954161
   4.0767485  70.6378889  52.1472263   4.2258012  69.2907524  51.4734364
  14.8362529  92.6828671  69.6539736  15.5918276  92.7202606  69.0675116
  14.0834200  92.8442574  69.0852642  73.5711336  70.6972837  71.8743753
  72.8205347  70.1370764  72.0718670  73.2057476  71.5809584  71.8314314
  93.4463024  85.2333641  87.8542519  93.5839748  85.0204849  86.9312286
  92.5214100  85.0413513  88.0089664  95.2087212  90.8340073  35.9874320
  94.5409775  90.1820278  35.7746720  95.2904606  91.3612652  35.1927304
  76.4365673  20.7454324   4.5774481  76.5727711  21.0140157   3.6688542
  77.0724535  20.0438595   4.7177103  38.7984514  95.8957958   2.0829466
  39.5265055  95.6228352   2.6412117  39.0804815  95.6733418   1.1957023
  75.9254932  72.3510695  62.4966288  76.7218494  72.2881651  61.9692898
  75.2137470  72.2009182  61.8744469  96.1674881  95.3605080  41.8219995
  96.0640717  96.0395908  42.4886131  95.2726460  95.1428127  41.5610266
  95.3422928  76.2221003  59.3514061  95.2373600  75.8315992  60.2190065
  95.2862644  77.1652508  59.5048904 116.7120743  73.4913492  55.3144741
 116.4348507  74.0548372  54.5920753 117.6675510  73.4820890  55.2579498
  65.9573126  78.6575079  70.9196997  66.3153696  79.1301680  71.6711140
  66.6554594  78.6838055  70.2653790  89.6377850  46.1757040  89.9270248
  90.4314518  45.7339096  90.2289295  89.8135662  46.3832760  89.0092850
  20.0249529 107.8083992  81.5028000  20.0046802 108.7612057  81.5921783
  20.3830266 107.4974060  82.3342419  88.6281586  71.8023205  66.4453077
  87.9445744  72.4723482  66.4456224  89.0953064  71.9363642  67.2699499
 107.3093605  99.3505383  69.2789459 106.5077305  99.8733330  69.2962503
 107.0169353  98.4716034  69.0377235  73.3698606  27.4417377  10.3753829
  72.6764488  27.5644684  11.0237265  73.1777430  28.0862808   9.6942890
  89.3930626 103.8500118  92.2012424  89.7024441 103.2446957  91.5273666
  88.5746193 104.2010784  91.8503475  59.3005848  66.5552998  84.5657825
  59.9090195  66.0573483  84.0198135  59.2091990  67.3959112  84.1171741
  64.8257017  71.5433359  66.0109758  65.4842377  72.2371387  65.9763193
  64.2161512  71.7561674  65.3043079  96.3812637  89.3459511  95.2706528
  96.6211414  89.2941761  96.1958694  96.8587971  90.1074982  94.9416733
  72.9456949  72.6668978  49.6974087  73.7130594  72.2117615  49.3506622
  72.9739904  73.5311127  49.2868423  97.0341206  35.7396197   1.2850887
  97.5070381  35.0798035   1.7922561  96.4497852  35.2340198   0.7201467
  90.2223969  42.3350811  64.8409176  90.4026031  43.2173491  64.5163202
  90.5924129  42.3244190  65.7236433  53.8094473  36.4439964   5.2338666
  54.4722366  36.7643452   4.6220478  54.0746021  35.5442786   5.4247379
 108.2231998  57.1292782  59.1529560 107.5745773  57.7118254  59.5481300
 108.3909893  56.4674568  59.8238277  31.8011057  45.8415416  -0.0166350
  32.3506605  45.1148799   0.2769441  32.3477804  46.6183093   0.1017446
  69.1975021  31.2044382   9.5554703  68.9597893  30.9503841   8.6637425
  68.7900877  30.5395532  10.1106036  95.1565361  67.8907490  42.2906923
  96.1004162  68.0153942  42.3895884  95.0679302  67.3390579  41.5135050
 102.0791817  49.4876814  58.2010031 101.3021088  48.9288425  58.1912804
 101.7815208  50.3048706  58.6007881 112.7351379  60.1294136  79.9309492
 113.3186626  59.3735647  79.8644114 112.3697090  60.0728941  80.8138371
 107.1654224  72.4979115  73.9690161 107.6459122  71.7747593  73.5660124
 106.3315964  72.1116352  74.2368937   2.7866402  82.9174042  93.1199741
   1.8556404  82.7748108  93.2906628   3.1878766  82.0577049  93.2470894
 109.7562599  99.5448685  64.8143339 109.8657227 100.3305149  64.2786121
 110.5921555  99.0847206  64.7382689  78.6323500  87.6128864  44.4586039
  78.0645943  88.3811188  44.3977308  78.2457685  86.9807434  43.8526440
 116.1295993  62.5787640  93.4078789 116.7076846  63.3176613  93.5978222
 116.6330586  62.0289421  92.8074932  11.8438697  57.1517086  59.7401142
  11.5054619  57.4181318  58.8852882  12.7675819  56.9568777  59.5819092
   4.1211030  91.4163303  46.2741375   3.4775391  90.8939934  45.7953691
   3.6930585  91.6205311  47.1055889  92.4875355  68.2719231  93.6098480
  92.3035908  67.3693848  93.8702583  92.5810623  68.7453890  94.4364738
  51.8202782  30.5364990   5.3779531  52.3613024  29.8566675   5.7796454
  50.9903812  30.0998569   5.1859862  69.1476631   9.7777271   8.7392634
  68.9492607   9.4591165   7.8587204  69.3880510   8.9917475   9.2298567
 111.4120293  46.5860605  59.1368675 112.0429230  46.5826797  58.4170055
 111.2142849  47.5119638  59.2776918  93.2888126  80.3602505  56.1801958
  93.5675812  79.7372627  55.5090714  94.0846920  80.5486393  56.6775084
  51.1781645  17.9107344   1.4298953  51.1058903  17.7838838   2.3758957
  50.2867031  17.7892315   1.1031458  81.1090076   0.3999946   7.0072311
  81.5617407   0.5368565   7.8394169  80.1834905   0.5302761   7.2138184
  84.5483208  74.1666126  85.6943798  85.3847694  74.1974306  86.1587334
  84.6390724  74.8130369  84.9942780  81.9652557  84.5786095  55.2563381
  81.5516663  85.0173378  55.9997749  82.7025509  84.1028976  55.6388617
 101.4732075  48.7722111  68.1629229 101.7095757  47.8449106  68.1411648
 102.1562862  49.1810894  68.6943865  94.4419193  39.7019744  55.1992607
  94.2274475  38.9815760  55.7919264  93.6248398  39.8804545  54.7336912
  89.9434948  50.7713795  84.4786930  89.7481728  49.9921179  84.9991035
  90.7957268  51.0662794  84.7995949  38.4596515  89.3417454   4.7595370
  38.3476019  88.4850979   4.3474188  38.8899326  89.8747349   4.0909505
 104.5091820  73.1899261  61.7156076 105.4505920  73.2440281  61.5511370
 104.3541145  73.8118219  62.4265480  94.0089989  62.9526329  52.3842859
  94.4729614  63.2334137  53.1730413  93.1076241  62.8117895  52.6739693
  95.0852203  77.2974300  79.5122385  94.3270016  77.4925184  78.9615345
  95.5370903  78.1363058  79.6035767  89.1519833  55.5247211  66.6294384
  89.0111637  54.8270082  67.2694397  88.2989502  55.6419420  66.2113142
  78.8432455  66.9796181  46.3126659  78.5070229  66.7256069  45.4532099
  79.7550726  66.6884184  46.3087702  32.0639420 110.8649921   4.5672646
  32.9867744 111.0485172   4.7431335  31.5869689 111.4757633   5.1291287
  58.4972286  79.0306997  68.8206720  57.7138805  79.4545984  68.4700918
  58.7569809  78.4081936  68.1415176   9.0065247   2.1577916  86.8187809
   8.7002450   1.2760839  86.6066074   9.2538083   2.5350663  85.9745407
  78.1944895  70.2262163  86.3214207  78.5994148  70.5680227  87.1185684
  78.8900328  70.2627611  85.6648254   0.8181819  70.0354385  55.2905226
  -0.1045078  70.2648497  55.1798582   0.9945830  70.1930094  56.2180376
 100.5105591  74.3561363  82.9300213 100.3677940  74.2360353  81.9911766
 100.5190849  75.3055620  83.0514622 102.1876907  62.8835869  67.0428658
 101.4063454  62.8959179  67.5956678 102.9181290  62.8610134  67.6610661
 104.5357609  98.0388832  85.1857948 105.4839420  98.1053829  85.0728416
 104.2882061  98.8560200  85.6185055 102.0320892  61.8727922  94.9819756
 101.0750294  61.8758583  94.9979877 102.2583485  62.2231150  94.1204071
  73.0934000  91.6634750  74.1308403  72.8084755  92.5418663  73.8788843
  73.2733488  91.7298412  75.0686312  92.4014664  78.9158154  94.4176102
  91.7184734  78.2485533  94.3504620  91.9304371  79.7193193  94.6383953
 102.1204472  98.2506275  34.5073342 101.8585491  99.0252018  34.0096617
 101.3627625  97.6676655  34.4594049  47.1762705  47.1826696  17.1243310
  47.3712873  47.7301788  17.8848791  47.0062447  46.3150215  17.4910939
  67.3308182  76.0881567  84.4806480  67.4210644  75.8858538  85.4118633
  67.0764065  75.2575445  84.0786648  17.5262725  32.6311874  83.3040142
  17.0023096  31.9492936  83.7243938  17.4222851  32.4692512  82.3663616
  99.3636990  60.5073738  48.6757708 100.2937889  60.2819300  48.6574602
  98.9378643  59.8076868  48.1804562  42.1235621  20.8345702  -0.1898699
  42.1665823  20.0510600   0.3583021  41.2485563  21.1892799  -0.0324469
  16.7055058  96.2726116  58.3728361  16.8147278  96.2648487  59.3237495
  17.5954771  96.1958981  58.0288887 114.1962147  75.7421064  92.1068668
 113.4181595  75.4415655  91.6372490 113.8884258  75.9099817  92.9975510
  40.3848982  45.9449625  16.1096013  41.3086033  45.7403088  15.9642744
  40.3920698  46.8163967  16.5055537 102.3819351  83.9072990  67.3533821
 102.4307632  84.7834873  66.9711065 102.7974796  83.3393860  66.7045164
  82.0534611  73.5955095  41.1974239  82.0054913  74.5203972  40.9555292
  82.6544189  73.2117701  40.5588150  83.1098366  89.0695667  58.0287695
  83.6044216  89.8281288  58.3389425  82.3437691  89.4444942  57.5942612
  99.9044418  57.7665758  64.9306726 100.6302166  58.2088947  65.3709412
  99.8811913  56.8944407  65.3244734  77.3878002  61.5628624  93.1254959
  77.4429369  61.4095545  92.1822643  78.2862282  61.4569330  93.4382915
  99.3862629  35.1699686  75.5614233  99.3740177  34.8119330  74.6737909
  99.9500751  35.9411240  75.5008745  88.5749531  85.3025818  59.3987179
  88.8382626  86.0295010  58.8343668  87.6511860  85.4680824  59.5871210
 103.3683014  89.0359497  81.0891151 103.4613895  88.9974976  82.0410061
 103.8904667  89.7944355  80.8278465  79.6154165  82.5325203  74.1722584
  80.3574562  82.2908306  74.7265100  80.0005245  83.0617523  73.4738064
 102.6923180  48.6008883  78.2649708 102.7114105  49.5307636  78.4912443
 103.5721874  48.4162283  77.9364014 110.3334427  50.5589151  52.6938057
 111.2589455  50.4364634  52.9052114 109.9833870  49.6705103  52.6272631
 108.1418705  46.4908075  92.0791531 109.0110683  46.0992241  91.9932461
 108.0537033  46.6754341  93.0142307  64.9145079  21.2423825  17.7491319
  65.4898930  21.7182064  18.3480978  64.6967411  20.4358149  18.2163131
  87.9336452 100.2322578  38.7181807  88.2719707 100.6933308  39.4857621
  87.6315498 100.9282398  38.1345916  80.0965595  72.6072693  47.7128363
  79.3215179  72.5894117  48.2742834  80.3663540  71.6911840  47.6477957
  64.2398691  66.9595432  85.5570698  64.1642141  66.4288473  86.3500881
  64.6037292  66.3626242  84.9032211  91.4997387  74.4895697  68.0410385
  91.8040276  74.5854902  67.1385765  91.4279175  75.3869629  68.3662462
  98.3577061  44.8074770  72.9749346  99.1223145  45.1985455  73.3976221
  98.3889961  45.1325655  72.0751715  69.3561840  61.1251211  48.3146429
  70.1691484  60.7180023  48.0153561  69.0512800  60.5584669  49.0232801
  87.1902370  18.9388418  62.8657436  86.2587929  19.1534030  62.9168844
  87.5566578  19.6007717  62.2793865  85.9017754  56.9856119  63.0642271
  85.0820827  57.3568010  62.7377844  86.5419579  57.1795416  62.3795509
  77.7479649  53.2580757  92.1872902  78.4333801  52.6755619  92.5145817
  78.1723452  54.1134501  92.1204758 116.8973064  63.6012983  46.0180092
 116.9904995  63.2842398  45.1196671 116.0331726  63.2940197  46.2920189
  40.0353146  46.9465494  10.7979643  39.6373868  46.5239763  11.5590930
  39.3026185  47.1088171  10.2037787  92.4830723  34.5091295   1.0531979
  92.0117378  35.0600481   1.6781500  92.4818516  35.0142694   0.2401387
 110.4539871  84.4073296  72.2212934 111.1360359  84.6448421  72.8494835
 110.1523495  85.2440357  71.8674850 100.4547501  66.3646555  80.4751873
 100.2310085  67.2924280  80.4016113 100.3958607  66.1776447  81.4120960
  90.5827999  44.9826717  63.9350605  91.5302563  45.1062012  63.8774967
  90.2959824  44.9027205  63.0253506 117.6730347  81.7540455  85.9166145
 116.9901085  81.1060333  85.7436371 117.6288986  81.9021988  86.8612480
 112.1195889  54.4410133  74.4243574 111.2547874  54.3747234  74.0194368
 112.1458912  53.7192535  75.0525331  97.2773266  67.7243757  95.0506020
  97.1522617  67.7233362  94.1016102  97.9336929  67.0453167  95.2064419
  80.6632233  84.1172409  60.7679701  79.7089577  84.1382790  60.6960630
  80.9280109  83.3747578  60.2249956 104.5634174  26.6286993  86.1060333
 104.4372272  25.9831333  85.4106522 104.1590118  27.4275088  85.7675266
 114.0771294  70.9383297  89.3838882 113.5062790  71.1337614  90.1269627
 113.5718918  70.3269339  88.8480186 103.2740784  36.4458394  72.7641964
 104.0995884  36.9271255  72.8201771 102.7127647  36.9958258  72.2176838
 104.5554829  50.9797812  60.9997702 104.4445419  51.4452696  61.8287706
 104.1066837  51.5274239  60.3556490 103.1174374  56.2260628  65.3815460
 102.8053474  55.5928659  64.7350979 104.0121651  55.9476471  65.5769539
 110.7312965  68.0469894  44.2590380 110.1899052  68.3352327  43.5241652
 111.5400124  68.5518217  44.1732311  87.4345207  67.5772429  78.3569527
  88.2666588  68.0488205  78.3942366  87.6774120  66.6555405  78.4446764
  97.4355221  82.3435593  86.9867229  97.0629120  82.9982090  87.5773525
  96.7368507  81.6994667  86.8716908  67.6458836  61.0020876  89.8861122
  68.5652304  60.7628632  89.7686386  67.3299456  60.4107809  90.5693245
 108.9524746  72.2484636  86.3908291 108.5984325  71.5794706  86.9767857
 109.7120285  72.5975943  86.8571091  81.7228985   6.7485720   9.9993438
  81.6146374   7.5924623  10.4379344  81.1990738   6.1393201  10.5195868
  62.6920176  50.6088781  88.2792664  62.9619312  51.2381601  87.6103973
  63.4749174  50.0831509  88.4433365  39.3535876 105.6379509   2.4509355
  38.7773848 105.4587841   1.7078875  38.7583661 105.8505821   3.1697753
   0.1624381  89.6477222  72.1027040   0.7725798  89.9064636  71.4120436
   0.5215727  90.0396347  72.8987360  83.2015991  11.6139710  10.3534818
  83.7835789  10.8745265  10.1781249  83.7723923  12.3815656  10.3184485
  12.0952332  88.7017155  79.7432137  11.6929424  89.3882561  79.2111874
  11.8925786  88.9483356  80.6456184   6.0614854 103.8031292  67.7253246
   5.7545143 104.6455765  67.3902273   6.8836319 104.0077591  68.1707859
  91.2027168  89.0342045  92.3596859  90.6341934  88.4898472  92.9043674
  92.0905113  88.7881088  92.6194763  10.3688657 106.0147953  92.4389458
  11.0100365 106.3678169  93.0558014  10.3304410 106.6633797  91.7360401
  29.8980188 103.9348030  66.1202431  29.5816755 104.1101551  67.0064783
  30.2688265 103.0536461  66.1682653  91.8213558 103.4872150  52.8160477
  92.0602608 102.9320526  53.5583067  92.2872829 104.3087482  52.9716635
  97.2230530  84.0734100  68.0596018  98.0152893  83.5933781  67.8184319
  97.5444794  84.8959160  68.4289265  79.4007301  63.8504696  67.4459600
  79.0014458  63.6674929  66.5954781  78.6812782  63.7655067  68.0715752
 101.1805153  95.0274944  60.1475286 101.4888096  94.8121262  59.2672968
 100.2788830  94.7069550  60.1706219 102.1803188  79.9501324  53.3366537
 102.7977371  80.6687450  53.4731293 102.6489067  79.3358135  52.7716112
 113.3875370  36.2370706  64.9238348 112.9224682  35.8168554  64.2003965
 112.6945019  36.5993428  65.4758263  77.8752804  96.8838406  45.9358549
  77.9433346  97.5527287  45.2545357  78.7063169  96.4109802  45.8911228
  25.6885481   4.6269283  94.3149948  25.7502031   5.5029106  94.6958923
  25.4421163   4.7792497  93.4026909   8.8279402  90.4766560  65.2454710
   9.3159771  91.1734772  65.6842184   8.5688508  89.8845482  65.9515190
  84.0681648  75.0601053  71.7663288  84.4398880  74.5409966  71.0531759
  84.3536472  74.6121979  72.5626421   9.9659795  68.9303923  19.5469010
  10.8752394  68.6636829  19.6823347   9.7899920  69.5496941  20.2552295
  79.5458317  90.6791401  51.2115908  78.8100052  90.0906849  51.3804340
  80.1042461  90.1957607  50.6026983 108.4351349  87.8656769  61.9808626
 108.7936783  87.9067612  61.0942984 109.1803837  87.6211071  62.5295115
  74.1395950   5.1538563   2.4997129  73.4158373   5.4792625   1.9644430
  74.7714567   4.8131588   1.8665382  24.6045971   3.5416460  73.8054609
  24.2921686   2.6930660  74.1193628  25.2351213   3.3255416  73.1184626
 116.0693550  90.1192760  40.0757885 115.8690357  90.7841587  39.4169664
 116.9674206  90.3119659  40.3451777 114.4858360  85.2317905  82.0743561
 114.2179394  84.3731499  81.7469406 114.1513252  85.2613640  82.9707241
   9.6658295  76.9343185  89.3324184   8.7108606  76.9955540  89.3551445
   9.8908532  76.4135408  90.1033878  23.3800054  85.3546143  75.4743624
  23.1835628  84.6183014  76.0535812  23.9720488  85.9083939  75.9833193
 111.2550259 108.2848263  91.3998604 111.8589115 108.9945602  91.1812019
 111.6182423 107.8982162  92.1966267  34.4756413  49.2281437  25.9738636
  35.0356889  49.9045277  25.5929613  33.6419010  49.3198109  25.5126595
  24.7808218   0.6557368  81.5944767  25.2828956   0.1631275  80.9452534
  24.8252249   1.5632525  81.2933540 105.1616287  95.0090885  83.4284782
 104.6124077  94.3189812  83.8004112 104.9195766  95.7965851  83.9158154
  96.5244102  67.3918581   9.5147240  97.0532227  66.5941715   9.4976640
  96.6087341  67.7540302   8.6327076  32.5098156 110.8610301   0.7533140
  31.6615795 110.7771879   1.1888570  32.9807305 110.0620799   0.9902734
   7.0725214  73.8402939  84.7839642   7.6112378  74.4125557  85.3303432
   6.1726773  74.0412188  85.0411415   4.3603891  78.1200075  76.2058735
   4.7422874  78.5428762  76.9750118   4.5636678  77.1913242  76.3174534
  46.0944128  23.0022383  18.4563351  46.4626646  22.1644092  18.7368083
  46.5584850  23.6552310  18.9802325  61.3840055  19.3393087   7.6726520
  60.6392670  19.8326397   7.3288167  62.1416426  19.8984444   7.5006461
  72.7356434  98.8590813  60.5724478  73.5497379  99.1850567  60.9561443
  73.0031300  98.4651661  59.7420740  72.3251963  33.5129714   7.3460001
  71.9734287  32.7208972   6.9396669  73.2095909  33.5929513   6.9886798
  72.2063732  83.5247993  89.7900295  72.5439024  82.6828671  89.4843197
  72.4426842  83.5552120  90.7171059  95.0487137  93.0393696  33.8869452
  94.8397350  92.3565578  33.2495070  94.2075729  93.4544849  34.0776992
  73.6095428  62.6929617  73.4794855  72.8612757  62.3955679  73.9970589
  73.3194780  62.6123476  72.5708628 106.7756462  48.0935335  70.2732134
 107.6152706  48.5258818  70.4292345 106.9131565  47.1916628  70.5629587
 108.6381817  82.1420574  56.0701370 109.3683529  81.8146324  56.5953684
 107.9592514  82.3551846  56.7103529 112.3038006  52.9238319  54.8281240
 112.9231739  52.2398567  55.0826740 112.7979660  53.4836149  54.2292261
  29.0734529 106.4663029  12.4768364  28.8978291 107.2626400  11.9756174
  29.4472122 106.7792988  13.3005869 105.7216072  92.7133369  70.8480549
 106.2175083  92.4868774  70.0612688 105.9144497  93.6394119  70.9944439
   5.5075151 105.1373100  62.9009151   5.6770235 106.0524559  63.1245613
   5.9541929 105.0085449  62.0641756  41.0900402  70.2307844   2.6482290
  41.3120461  69.8698568   3.5065269  41.2062359  71.1756134   2.7483776
  41.4345741  27.8845739   1.8624732  41.0078049  27.7821636   2.7131274
  40.9273005  28.5653877   1.4204308  42.5793219   1.6536663  66.4037609
  42.8093147   2.4759683  65.9711456  41.6317892   1.7058039  66.5290642
  46.6242165   0.4784820  53.8030863  46.9397122  -0.1659634  54.4366360
  46.6008216   0.0051735  52.9714203 114.6588421  68.2251215  91.5976143
 115.3382015  68.0899525  92.2582436 114.1719151  68.9887142  91.9075489
 111.3450909  84.9873447  79.7952175 110.8842278  84.2833900  80.2516174
 111.9686985  85.3224468  80.4394531  74.8136950  65.6504631  63.7691593
  74.7759485  64.9421549  64.4118881  73.8979626  65.8814430  63.6132240
 115.9946060  79.1469431  57.7166748 116.3892937  78.3602285  58.0928802
 116.5173531  79.3269634  56.9352913  29.3019366 106.8867111  80.8218193
  29.0232134 107.7088070  80.4184437  30.2578378 106.9104099  80.7779789
 111.7196369  60.8807135  54.6231842 111.1278248  60.8110762  55.3722811
 111.2391090  61.4100647  53.9867020 107.0508575  64.6891880  72.3985577
 106.5924263  65.0144958  71.6237974 107.8501034  64.2906284  72.0542049
 107.2851658 106.1816025  23.8783574 107.5088978 106.0252571  24.7958159
 107.6993275 105.4603386  23.4045649  11.3461816  96.2942505  91.8343067
  11.4461792  96.1596584  90.8919048  10.9841073  95.4690266  92.1570206
  99.5300007  60.2641201  73.5568476  99.9414730  60.1980114  72.6951313
  98.5925865  60.3186226  73.3711004  62.2299767  78.1395578  67.1821690
  62.5205469  78.5790157  67.9813385  63.0289459  78.0255413  66.6674995
  32.7557945   5.9063953  58.0719328  33.5405421   6.4485437  58.1524134
  32.2744131   6.2891960  57.3384714   5.7244933  74.1437197  95.5870914
   4.8812622  73.8616705  95.2326298   5.7214355  73.8294411  96.4912224
 112.2875214  41.6279173  75.6275940 112.7707767  40.8348322  75.3958273
 112.3620892  41.6840315  76.5802336  84.6228027  77.8142262  60.7751465
  85.3717804  77.6707268  61.3536501  84.2033768  76.9563484  60.7090759
 113.8463402  67.1793652  63.0662537 114.6829319  67.2948408  62.6156855
 113.7599945  67.9591608  63.6146069 107.2729778  79.5370293  69.5270300
 106.4301395  79.9758768  69.6422148 107.0474720  78.6699486  69.1900635
  78.4979582 106.5000820  61.4460039  77.6654530 106.1717987  61.1063004
  78.6456442 105.9959221  62.2461605 114.0541172  93.5591030  77.1909142
 114.6956921  94.1795731  76.8450403 113.2118797  94.0014267  77.0849466
   6.3325453  79.8952579  74.3514919   7.1199751  80.2851200  73.9717627
   6.6612881  79.2953253  75.0209999  82.0625877  73.2430649  58.8292027
  81.6865349  72.5206995  58.3262062  81.6580486  73.1691599  59.6935654
  27.7607083  92.6409721  69.9023724  27.9895020  91.9867420  70.5625820
  27.0057607  92.2680283  69.4471836 103.5712624  76.9664860  93.7088680
 102.8860092  76.3159800  93.5555363 104.0609550  76.6265440  94.4577789
  27.4078012  89.1998959  62.6354504  27.6024413  90.0182056  62.1785975
  26.5988183  88.8864040  62.2310972  80.8292294  41.3447380   7.8636056
  80.4009914  41.5924501   8.6830485  80.2635574  40.6673193   7.4929941
  66.1811876  91.1811733  51.9096899  66.5982151  91.3837051  52.7471256
  66.9046164  91.1476517  51.2837839 102.9943466  45.3993511  80.4433918
 103.1342125  44.4768381  80.2297783 102.1127987  45.5886269  80.1220226
   7.7181745 108.5413742  83.2568645   7.9625267 108.5079765  82.3319817
   8.4877628 108.2105350  83.7200069  55.3868437  20.3623700  14.8179877
  56.2645483  20.5746555  14.5005047  55.0792837  19.6732926  14.2290807
  88.1093311  70.7026482  77.2001839  88.5999489  70.7648277  78.0197382
  88.7583256  70.8774996  76.5186691  76.0153103  68.7593651  45.1655340
  75.6477928  69.3563843  44.5138216  76.8017435  68.4057903  44.7499180
  72.5552654  89.5342922  56.3335180  72.0485210  88.7608433  56.5809488
  72.5401735  90.0898933  57.1128130  66.7174578  79.3171167  79.8684597
  66.7718935  78.3633947  79.8077726  67.1497440  79.6326733  79.0748692
  97.4017715  98.5339069  54.8321724  97.0760345  99.1303921  54.1581345
  98.3384991  98.7230301  54.8869848  37.4658275  29.4497180  58.5450602
  38.0146575  29.4999361  57.7624416  37.3899841  28.5125875  58.7246847
  85.1514053  99.1889095  77.7722692  84.4182873  99.1737938  78.3875322
  85.9301376  99.1344070  78.3261967  44.6315903   0.2889011   8.9349383
  44.0414864   0.7343243   9.5428944  45.3364611  -0.0473740   9.4883865
  17.0603788  42.7404070  87.6965332  17.3350728  43.6565542  87.7345943
  17.5522137  42.3732042  86.9620323 102.2199345  73.5330915  60.1730633
 103.1386662  73.4230089  60.4180813 102.1617317  74.4362593  59.8614025
  24.0242028 106.8770981  87.4190998  24.3992472 106.5682983  86.5943527
  23.6447453 106.0939503  87.8177452 113.4469700  77.9000902  57.8200912
 114.2783833  78.3535814  57.6810598 113.4802914  77.1510363  57.2250795
 113.4626389  75.4332399  79.6270370 113.4305096  76.1345196  78.9763403
 112.5456142  75.2666378  79.8450947  88.3193111  35.0814605   6.0452121
  87.6059437  35.2702951   6.6548657  88.0670547  35.5264521   5.2361524
  19.9539661  82.2994423  68.6800146  20.2252579  82.7677155  69.4695425
  20.7745743  82.0290852  68.2680178  24.8741817  80.2610016  59.5957184
  24.1409659  79.6936035  59.8338079  24.9024391  80.2273083  58.6395264
  65.0753260  39.0991545  15.1805508  64.4886160  38.9464307  15.9212804
  65.7998610  38.4891772  15.3191578  87.7762222  75.9882164  58.8490152
  87.0770836  75.9708357  58.1954575  87.6787376  76.8365431  59.2815304
 113.9715290  91.1417580  69.5890808 114.0487385  90.7635975  70.4650164
 114.8745823  91.2198353  69.2814589  98.5921478  68.0630779  63.1440163
  98.3003998  68.0359697  64.0552664  98.2786942  67.2407103  62.7676058
  78.0299997  70.3404140   4.4092691  77.7739525  69.8300838   5.1775354
  78.3279514  69.6871758   3.7762335  27.4375057  85.7855129  67.4503374
  27.0751524  85.0556755  66.9480658  28.1067038  85.3853035  68.0055285
   7.0264751  92.5535488  68.2978868   7.4054289  93.3014202  68.7597513
   6.0982591  92.7707386  68.2114172  95.3836346  66.9040775  53.8173532
  96.2131691  67.3518085  53.6511230  95.4595757  66.0755825  53.3440065
  17.5838852   1.7434667  85.2935314  18.1520677   1.9210231  84.5439434
  17.6681304   2.5197816  85.8471298  94.8962212  66.3722563  61.8012476
  95.0987911  65.7541609  61.0990000  94.1515636  65.9805822  62.2576475
 101.3167191  86.8592548  45.8318329 102.1964741  86.6187000  46.1223316
 100.7379818  86.2511635  46.2917519 113.3242416  78.6214876  88.0923843
 112.9372120  79.0854883  88.8347721 113.7272358  77.8442907  88.4794140
  54.9343729  21.6334414   3.1286672  55.1808071  20.7093692   3.0887261
  55.0205803  21.9434953   2.2271875  83.2525063  42.7293491  93.9450645
  83.6668301  42.0363808  94.4592285  82.3379040  42.7228117  94.2273617
  84.1855240  10.9163702   2.2395411  83.8428211  11.3591719   1.4631942
  83.5768223  11.1539149   2.9390326   3.4459129  57.6998806  70.6251860
   3.1694719  57.8153229  71.5342999   3.7478516  56.7926741  70.5800200
  96.2377739   3.5832888   7.1073872  96.4627838   2.7951875   7.6018518
  96.7800903   3.5350877   6.3201141  96.7085838  79.7632837  79.7845364
  96.4514732  80.3185177  80.5206394  96.9722271  80.3790188  79.1007280
  21.1046505  89.6856689  61.5504122  20.5312085  90.3873825  61.8586302
  20.5351496  89.1249275  61.0236645 105.8064365  83.6255169  71.2025213
 106.4800835  83.0887890  71.6200781 106.2696362  84.0935707  70.5078268
  43.5179043  10.4280221  21.2460184  44.3698740  10.3709745  20.8134317
  42.8954983  10.1097572  20.5921483 106.1445999  42.5286579  74.8098421
 105.4980183  42.5155401  74.1041565 106.0215378  41.6945362  75.2629757
  92.8358459  87.7183819  81.6275692  92.8934669  87.9225159  80.6941700
  92.8483391  88.5719299  82.0606232  29.7027087  12.4392843  57.6955080
  30.0000954  12.0451331  58.5155344  30.2141094  11.9970584  57.0179129
 113.0310154  91.0649300  76.3325357 113.2951641  91.9607258  76.5423489
 113.2140064  90.9740734  75.3973961 106.2527275  59.9015045  90.3515339
 106.7231750  60.1721478  89.5630741 106.9280338  59.8514891  91.0280609
  42.0818806  24.9871826  59.9069691  42.5398684  24.2528367  59.4980478
  41.2100601  24.9756122  59.5119667  66.5048754  18.0942157   1.4856405
  65.7279360  18.2443002   0.9470529  66.2118303  17.4865916   2.1647233
  85.9461212  62.6029205  27.5090861  86.3786507  61.7559576  27.6177144
  86.1829948  63.0953693  28.2949734  53.4080362  57.5520420   5.1161462
  53.3952761  56.5975714   5.1872563  53.3590221  57.7228212   4.1755798
  66.6632318  48.4183502   7.7520359  67.4797821  48.0375767   7.4287951
  65.9843111  48.0372000   7.1952367 107.3963833  91.2396049  84.1313457
 108.2033539  90.9128094  83.7335491 107.0967674  90.5219650  84.6894264
  20.1460719   7.4401015  72.8788471  19.3709874   7.1906096  73.3820677
  20.4397225   8.2576400  73.2808828 115.3736401  64.3010616  90.5695915
 114.6054363  64.6253252  91.0396385 115.3530598  63.3532953  90.7020283
  61.4965010  35.7317114  15.6049371  62.4132156  35.7367468  15.8803344
  61.5192223  36.0173059  14.6916175  81.5353584  91.9693375  64.1012716
  81.2436676  91.0857773  64.3259192  81.3764000  92.0420074  63.1601620
   4.0486792  96.0887909  88.6596012   4.2355123  95.8726978  89.5731831
   3.8965052  95.2422523  88.2395458  34.2916107  49.3874454   3.0624762
  33.4650254  49.7732306   2.7723762  34.9591494  50.0149250   2.7851793
  88.0391598  77.5051451  48.9494705  87.1690273  77.4806023  49.3476009
  88.4071732  76.6390371  49.1245365  84.6870327 102.1402264  56.4285040
  83.7852192 102.1637154  56.7485380  85.2219486 102.1096134  57.2216988
  82.6809788  44.9533653  66.2301683  83.4415340  45.5175114  66.3698721
  81.9300175  45.5433750  66.2948275  10.2653134  74.8897743  83.1460571
  10.7396841  75.2117205  82.3795319   9.5158684  74.4177389  82.7830791
  73.4321022  41.5719604  91.8648338  73.7364101  40.8601713  92.4278450
  73.9266348  42.3373127  92.1579266  93.9383411  60.1870680  69.7187901
  93.2909775  59.6082973  70.1215076  93.5904312  60.3642130  68.8448286
  76.5046644  48.5384035  93.4346867  76.7248583  47.6080132  93.4807396
  77.1759129  48.9155245  92.8659725  97.4877834  32.8149319  58.7387276
  97.8442955  32.2102976  59.3895388  98.2581139  33.1769919  58.3008480
 104.2363739  75.4269981  84.8520565 103.7993240  74.6111059  85.0960636
 104.0368843  76.0292149  85.5688381  55.7388783  92.5484562   9.6779221
  56.2129688  93.3084011  10.0154960  54.8162317  92.7578163   9.8232436
  61.6370583  11.2985408  27.4790788  61.1292744  11.2970972  26.6676712
  62.1831799  12.0823216  27.4184656 115.9895420  82.7243519  67.0626593
 115.2456379  82.8857327  66.4823198 115.5928612  82.5232792  67.9102707
  69.8982525  28.6369348  29.3613267  69.2692280  28.0741549  29.8128128
  69.4269896  28.9524198  28.5902143 101.8700027  77.6139450  77.1682453
 102.5607204  77.3985434  76.5415478 102.1154499  78.4741306  77.5089359
  90.9397316  78.9318895  87.7905941  91.1620331  79.8366261  88.0102825
  90.0449181  78.8203764  88.1116962 116.7606831 101.5341568  71.5961027
 115.9689999 101.0244560  71.4238644 116.4378834 102.3880386  71.8840742
  87.2329712  84.3892574  55.7688856  86.5455914  84.3124294  56.4305830
  86.7797470  84.7088623  54.9887133 102.6577473  89.6128082  87.1086311
 102.9162216  89.9680996  87.9590416 103.3131886  88.9410782  86.9204617
 110.7164860 106.8194866  62.0692492 110.5788422 107.0333099  62.9920530
 111.2791348 106.0452652  62.0841217  95.9595394 105.0525761  95.9854317
  96.3226414 105.7115173  96.5771961  95.0129318 105.1880455  96.0280132
 116.2997532  72.1813059  71.3314152 115.8797455  72.9819727  71.0171509
 115.7111835  71.8530273  72.0111561  71.2495804  45.9261894  83.2117081
  71.5579796  45.1372910  83.6575317  71.9459677  46.5679026  83.3512688
   1.2630010  85.9844208  66.9521284   0.7901398  85.4589462  67.5975037
   0.6712066  86.0310268  66.2012386  75.0634718 110.7670498  81.8630981
  75.3509188 109.8580742  81.9489765  74.9357700 110.8900166  80.9224606
   1.2542517  85.6311131  95.5469894   0.6322037  85.1827240  94.9740696
   1.7517070  86.2013149  94.9607849 104.3232536 102.4898338  84.9670887
 105.2353573 102.3758125  84.7000694 104.3587303 102.5483799  85.9218407
  49.8533154   4.0971628  89.3780804  49.0822601   3.8939518  89.9076176
  50.5952072   3.8578400  89.9335575  10.8603060  57.7140093  83.3796501
   9.9553472  57.4339628  83.5169697  11.3847446  56.9417381  83.5912895
  13.5268509 106.0262966  80.4112816  13.5180080 105.3851032  81.1219215
  14.4081199 105.9634972  80.0429630  98.8111782 102.6356888  59.9925852
  98.0152225 102.9299927  60.4353714  99.1917706 101.9901085  60.5880785
  21.9544935  12.4692118  71.1256075  22.7791190  12.2520280  71.5604115
  21.7169642  13.3271635  71.4773607  88.7300301  26.5911889   1.4818409
  89.4262981  26.6433358   0.8270666  88.9549541  27.2637606   2.1247168
  52.3453665   9.6279144  16.0916996  53.0905533   9.4581622  15.5154037
  51.9037199  10.3798163  15.6969595  40.8542824  18.5503757  64.3327713
  40.3720284  17.7610970  64.0863943  40.4914379  18.7969828  65.1835108
  80.7386398  82.3108196  77.8724098  79.8087692  82.4957657  77.7406263
  81.0563660  83.0440998  78.3992672 118.0902481  84.6237755  68.7161016
 117.3702908  84.0451336  68.4649754 117.8927708  84.8739815  69.6186733
  10.9093642  68.4510136  43.2748938  10.2774334  68.9021206  43.8347149
  11.7276311  68.9310837  43.4021902  89.7359085 107.5679779  73.0839157
  89.1581917 107.0566273  72.5173521  89.5236111 107.2744942  73.9699316
 101.6975403  36.8759131  78.6272383 101.0558987  37.1630502  77.9775620
 101.9822884  36.0157061  78.3187056 116.6306210  68.0348063  86.4939594
 116.4142799  68.1663275  87.4170685 116.8471241  68.9097357  86.1716938
 112.4304962  60.7990646  69.7499657 112.2713566  61.0154963  70.6686926
 112.4930477  61.6475677  69.3113708 101.5979385  84.1429806  50.6737041
 101.3159180  83.7645340  51.5064526 101.4557743  85.0838184  50.7778263
  66.9248533  75.0012684  94.9265480  66.9201756  75.9409714  94.7444439
  67.1842957  74.5980406  94.0981007  76.5739250  92.6319599  60.6561613
  76.5937471  93.1140423  61.4828634  77.4913692  92.4260426  60.4769278
 102.5984001  60.2371216  76.2787533 103.2411194  60.6141901  76.8795586
 101.7662144  60.3008747  76.7473984  96.0975933  15.6945753   2.9893315
  95.5385208  15.3391290   2.2984418  96.4690208  14.9232197   3.4174463
  72.1516895  58.5809946  14.5255363  72.8298473  58.8504982  13.9061022
  72.4590206  57.7411222  14.8667037 102.1850491  45.7223082  30.6475401
 101.9461632  46.5885878  30.9772825 101.4364338  45.4540110  30.1147938
  96.2103558  78.0550766  87.3599720  96.3887119  77.3041916  86.7937660
  96.1607265  77.6842499  88.2410240  64.0005159  79.1525888  58.6654806
  64.0970373  79.7707891  57.9410887  63.0833197  78.8812971  58.6282349
   8.4228641  78.5879993  25.8962083   8.3364940  77.9825592  25.1598549
   9.2917788  78.9745998  25.7877660  42.3855114   9.8089117  26.1778665
  43.2938957  10.0994766  26.2593341  42.2912884   9.1277683  26.8437457
 105.3370380  79.3408728  88.5154724 105.4947376  79.0380001  87.6212502
 105.6844902  78.6421299  89.0697861  96.4051819 103.8402271  81.7100430
  97.1122074 103.2059765  81.5914440  96.4340496 104.3813992  80.9210396
  90.9824181  69.5353603  55.8403826  91.7432976  69.3778086  55.2814007
  91.3375187  69.5522785  56.7291164 108.8097191  96.1358833  62.3514986
 108.3407402  96.8944836  62.6990891 108.1290054  95.4782295  62.2087908
  94.3536949  86.1237621  77.6041985  94.4596577  85.5954075  78.3952999
  94.6330643  87.0018196  77.8634119  55.2173948  34.3051219   6.5471172
  55.6759548  33.5642600   6.9434482  55.7869005  35.0562072   6.7137420
 117.1482277  94.4017124  84.6118164 116.9850826  94.6174717  85.5300045
 117.0772743  93.4479141  84.5736504  90.0630665 101.2519646  83.8651943
  89.2736530 100.7563400  84.0829468  90.0703335 101.9773483  84.4896889
 114.1723537  87.0658875  88.9296341 115.0371361  87.4536610  88.7953758
 114.3519402  86.1555099  89.1645432  88.9792728  79.9084759  52.2440147
  88.4706593  79.1624689  52.5618553  89.8805428  79.7093439  52.4975491
  23.1651759  83.2485485  84.7329330  23.6365008  82.5590420  85.2005482
  23.8139653  83.6185074  84.1342354  14.9518764  72.1424437  55.7043600
  15.0474906  72.6140690  56.5318012  14.0987372  72.4178505  55.3688955
  92.3231030 107.3959732  70.3164196  92.0511150 106.5794182  69.8975086
  92.8390694 107.8475285  69.6485043  93.2660770  62.4184847  65.2354193
  92.8320026  63.2713079  65.2578068  93.2570076  62.1693039  64.3112659
   2.7106595  93.0392742  59.3226814   2.7740520  93.7644768  59.9442148
   1.8417248  92.6680565  59.4755840 110.7112980 104.5739746   7.4186236
 110.6635380 103.7711334   6.8995887 110.8503723 105.2679157   6.7741537
  76.7405796  99.3367100  85.4523087  77.4686193  98.7749004  85.7179356
  76.5515518  99.0739250  84.5515060  18.9083135  70.5552530  77.8134632
  18.5296583  71.3807487  78.1158066  19.5710194  70.8157921  77.1737957
  10.2952576  75.7816267  74.6956825  10.7498395  75.5875397  75.5153894
   9.4322342  75.3808784  74.7997141  51.7852020  23.7852359  14.9029613
  52.1753883  24.4201517  14.3022358  51.4793825  24.3112350  15.6418991
  10.4585457  90.2551270  62.7372837   9.8931289  90.3751469  63.5002565
   9.8686033  90.3323841  61.9874620 115.4364109  97.3191929  77.2937441
 114.7795868  98.0139542  77.3398590 116.0929489  97.5666809  77.9448509
  32.1129036  98.1515884  89.2296696  31.6592765  98.9678288  89.0194130
  32.5576711  98.3312607  90.0579929 100.7108593  47.6476049  71.5107870
  99.7944546  47.6243830  71.7862749 101.0971928  48.3575535  72.0235729
  93.2910538  42.3684835  78.6221313  93.7388706  43.1412077  78.2777643
  92.6624203  42.1321392  77.9400778  68.8615131  55.1026344  10.8833742
  69.3210363  55.8642769  11.2368941  69.3832922  54.3533993  11.1708200
  17.5596273  99.9889088  26.4954185  17.0858109 100.7059765  26.0740566
  17.3827386  99.2276001  25.9428382 110.2970409 110.8875561  34.1920304
 110.0165653 110.6115532  35.0646067 109.9533176 111.7761421  34.0998721
 105.5230522  85.5902576  76.4397907 104.6832466  85.2544117  76.7531109
 106.0441494  85.7104778  77.2336626  52.9780483  27.9088116   5.3996444
  52.8040171  27.0606303   4.9915561  53.1054068  28.5071802   4.6634603
  10.2087367  20.8312321  47.6470613  10.5569339  21.3360524  48.3820105
   9.4403142  21.3246799  47.3602390 106.7937946  90.0001907  75.6435537
 106.7901993  90.3255558  76.5437508 106.1931229  90.5810070  75.1765537
  32.3301053  96.5222263  76.3963556  32.7849889  96.7550850  75.5869770
  32.5570035  95.6039333  76.5429401  66.5570450 101.7223930  79.5820045
  66.0117149 102.1909714  80.2138805  67.2002029 101.2585926  80.1181698
  10.6036723 110.6075668  84.5456982  11.3612819 111.0890102  84.2133236
   9.8501587 111.0389233  84.1427326  86.7981148  91.9334412  75.8933020
  86.0245705  92.3694611  75.5358839  86.4458656  91.2538147  76.4679956
  89.8453045  99.3807888  53.0904818  89.5469475  98.4725380  53.1385040
  89.0744686  99.8713398  52.8051805  12.4098909  93.8460732  75.2278376
  13.0374837  93.8639069  74.5053148  11.5535629  93.8229370  74.8007584
   4.6699205  75.9369993  56.7052221   3.8193867  75.5204439  56.8441582
   4.7077617  76.6299820  57.3644495  35.3617525   5.4741502  63.3683491
  36.2748003   5.2305263  63.2159615  34.9654531   5.4749548  62.4970388
 115.3292299  33.4796909  -0.3492575 115.5515028  34.2241767   0.2098150
 115.0581623  32.7941611   0.2613134  33.9337921  19.2780101  93.8950062
  33.5205197  20.1255703  94.0595627  34.6669936  19.2457139  94.5094967
 113.4353924  79.1007280  94.4483757 113.1941509  79.8725796  94.9605083
 114.3925953  79.1034651  94.4474792 105.7474327  76.8039894  78.7057495
 104.9781799  76.5961123  79.2361069 105.6567955  77.7360058  78.5073423
  53.9987183  10.2171624  83.5265255  54.1726065  10.4277980  84.4439316
  54.8514414  10.2911162  83.0980206 106.1980438 104.5419979  79.9051857
 105.8337879 104.4791412  80.7881355 106.8408775 103.8341999  79.8603392
  51.2725210  29.6300554  93.8330936  51.6809940  30.0883794  94.5674706
  50.3896141  29.9964309  93.7833405 110.7553196 105.4877281  56.3584661
 110.2299881 105.1853943  57.0993137 111.5479946 104.9522591  56.3925600
  90.5744839  89.7880077  63.4154606  90.9050274  90.5171394  62.8907394
  91.3605976  89.3709755  63.7681007  30.9471822  26.9099426  93.1380939
  31.7690206  27.2620153  93.4799385  30.3072381  27.0818973  93.8288498
  24.3499231  66.4978504  90.0380135  23.8103318  66.7776012  90.7774830
  24.2457438  65.5466986  90.0117970  94.7940350   6.5565109   4.4591981
  94.3992233   6.7180419   3.6023045  94.1582108   6.9032788   5.0850666
  84.2443371 103.0756283  91.0096741  83.7782764 103.4519863  90.2630997
  83.6626148 103.2247066  91.7550659 113.6532974  82.1508980  75.6503534
 113.2989502  81.4549637  76.2038374 114.5007992  82.3608208  76.0426617
 104.0827179   8.8738203  19.2927444 104.4515324   8.0104822  19.4794321
 103.4717846   8.7224382  18.5715747  98.3219051 108.4654999  62.0596552
  99.1388798 108.9411545  62.2097683  97.9960251 108.8061333  61.2265873
  64.3108320  95.5627155  75.0509119  64.8385715  95.4934311  75.8464813
  64.7591591  95.0033188  74.4166327  80.5472755  61.2829828  11.2427330
  80.8387852  60.8977222  10.4163992  81.2541676  61.0911751  11.8589759
  29.6631694  36.3756728  66.1248636  29.4061947  35.6891489  66.7403936
  29.1949153  36.1614370  65.3179741   4.4114900  77.9315996  25.6421447
   4.3114826  77.6534748  26.5525723   3.9697197  78.7797546  25.6009030
  13.7625873 100.1182938  72.2907448  13.3684194 100.5610752  73.0422831
  14.0051579 100.8273125  71.6951895  85.4640007  73.2236576  64.3489218
  85.5359554  72.6358509  63.5969019  86.3693142  73.4441137  64.5680857
   4.8810285  72.3104858  91.8347931   4.8066193  73.2136154  92.1430969
   5.1614094  72.3909521  90.9231281 111.0389328  52.8522348  48.4071016
 110.9793568  52.6079226  49.3306780 110.5539131  53.6751366  48.3452654
  89.5392990  22.7313280  11.7934394  88.6460590  22.4053526  11.6835165
  89.4812012  23.3476448  12.5235140  32.4910736  97.7570915  35.4860735
  33.1507802  97.3135948  34.9528480  32.1958160  98.4878731  34.9429226
  22.8251719 104.1345215  72.8993559  23.7639689 104.3174839  72.9370260
  22.5524831 104.0919685  73.8159084 111.9624329 105.8531666  75.2682018
 112.1662903 105.0044918  75.6611776 111.0075569 105.9099960  75.3028536
  35.8018899  93.8577271  82.8189754  34.8703790  93.6990261  82.9717445
  35.9089565  94.7998714  82.9498672   5.9631234  89.5163822  91.3894558
   6.5014696  89.0991497  92.0620155   5.3849936  88.8195133  91.0790253
   1.0339230  79.0175390  44.6840763   1.2247817  78.2642365  44.1252041
   0.5407623  78.6520386  45.4185343 112.1712208  84.8302460  52.4553633
 111.7901516  84.4015312  53.2216740 112.3287296  85.7309628  52.7384186
  68.5129833   2.6227680  61.1523819  68.8577938   3.4551179  60.8290672
  67.8973389   2.8703374  61.8422508  19.5557678  84.2658710  95.0960159
  19.9298882  83.5978603  95.6704998  20.3065133  84.6188927  94.6185398
 101.3676262  56.8891716  67.6277828 101.1710072  56.1119318  68.1507254
 101.7885303  56.5470266  66.8391085  22.4199748 109.5864582  79.2746496
  22.3758602 108.6329842  79.3465662  22.4222326 109.7557354  78.3325386
  98.8210011 103.5389328  57.4416876  99.7457504 103.4798050  57.2017193
  98.7889862 103.2346535  58.3486700  84.6722984  99.8338699  63.8991976
  85.5481625 100.1448345  64.1280890  84.7357178  98.8801575  63.9506054
  29.7464633   4.0599763  40.5441332  28.8589191   3.9465973  40.8841991
  29.8911834   3.2918760  39.9915862  47.4129391  13.1716144  80.3853989
  47.6990747  13.3251858  79.4849682  47.4653387  12.2221220  80.4947186
  17.7828538  85.7795906  86.4770794  17.3409426  85.9187603  87.3146820
  17.4934411  86.5093422  85.9294224   7.4632514  98.1902790  39.0297055
   7.4457878  99.1250420  39.2350030   8.3116233  97.8893757  39.3552136
  23.3974504  65.2238464  65.9571266  22.7052426  65.7995081  66.2822294
  23.5481167  65.5147028  65.0577164  92.1747684  46.4440727  -0.2234844
  92.3190498  46.8223906   0.6438629  91.2716293  46.1278248  -0.1996328
  42.6905823  17.9378951  96.1612892  42.7951050  17.2020483  96.7644787
  42.3674250  17.5406468  95.3525925  65.8118391 105.4901981  62.6549435
  65.8139563 104.9893475  61.8392324  65.9061766 104.8300171  63.3415985
  26.4245510   2.9685944  69.4356585  26.0261369   3.7637955  69.0818882
  26.8060946   2.5325006  68.6737680 115.8212757  91.7794323  71.6876698
 116.3050365  92.4650574  72.1482277 116.4393902  91.0513020  71.6245699
 113.7408924 109.1764545  78.7743425 114.6562576 109.2596817  78.5071421
 113.5979176 109.9108791  79.3713427  89.4946194  78.7181807  38.7841177
  88.7329578  79.2205429  39.0735030  90.2450371  79.2632341  39.0207934
 106.4687347  97.1234417  92.9092026 106.2225056  98.0216026  93.1303310
 106.2333870  97.0309544  91.9860077  53.2931185  14.0665174  74.3648195
  53.1443262  13.9454246  75.3026009  54.0127087  13.4703159  74.1575384
  99.9939442  76.7268658  89.9183846  99.3046951  76.2856913  89.4218540
  99.6948433  76.6912508  90.8269596  94.0432644  81.5631580  41.8779230
  93.9314556  81.7315102  42.8135443  94.4252300  80.6864643  41.8362808
 111.8459606 103.8426781  72.3653507 110.9891319 103.8719559  72.7910328
 112.2353745 103.0219650  72.6670504  26.2319493  88.1886482  84.6621704
  26.5036154  89.0681934  84.9245358  25.7180309  87.8659153  85.4024124
  97.8982544  98.4702015  89.3300819  98.0137444  97.8648186  88.5976791
  97.3755741  99.1861534  88.9688969  94.1665745  73.0087471  46.7220116
  93.7893200  72.2835064  46.2240839  94.5463562  72.5950956  47.4971819
  68.7356901  70.6396198  69.1103554  68.9029264  71.4876747  68.6991692
  68.7197781  70.0191212  68.3816814 106.5613174 102.4736118  30.0419450
 107.2687054 102.6358509  29.4178343 106.7607880 101.6135788  30.4118061
  69.7332954  90.6824398  10.9010994  70.4297590  90.0389862  10.7701933
  69.6206284  90.7235909  11.8507540  34.8201156   2.8114513  80.7032299
  35.3997946   3.0298397  81.4329624  34.0726781   3.4004292  80.8065414
 115.5473804  95.9696293  82.5723457 115.8412266  95.4846191  83.3434772
 115.0346184  95.3352737  82.0714569   6.7155772 106.1074543  52.0294523
   7.2479266 105.9468269  51.2503290   6.8672097 105.3428268  52.5849533
  87.4704266 106.5425777  71.8597221  87.0677757 106.0997677  72.6067352
  86.8547058 107.2399235  71.6343021 113.4676743  80.9489250  56.1066914
 114.1417122  80.4842091  55.6107616 112.7136707  80.3593445  56.0966492
  57.2547770  16.9573343  77.9177427  56.4648581  17.4210608  78.1956244
  57.9756784  17.5091457  78.2211208  44.3691111   1.4681835  54.5112514
  45.2407074   1.3289827  54.1408825  43.8899660   0.6658112  54.3042517
  94.6945095  77.6543665  66.9734335  94.5820045  78.5631704  67.2520971
  95.2557468  77.2658205  67.6444626 102.3847675 108.8681126  27.7606750
 103.2682514 108.5940552  27.5145555 101.9140911 108.9335155  26.9297624
  20.4558849  97.1223354  45.6490612  21.2219858  96.8263435  45.1574230
  19.7391355  96.5751934  45.3279066  86.9700909  85.6838608  49.7470045
  87.4353409  86.0937309  50.4762363  86.5693188  84.9023342  50.1275778
 110.9762859  91.8482876  38.1750774 110.6904888  91.0161686  38.5520887
 110.1766205  92.2386837  37.8224492 103.4621716  95.9651661  48.2471943
 103.8261890  95.8107567  49.1189003 103.3034134  96.9086456  48.2176113
  97.9226112  96.4587593  58.1272650  97.8926563  95.8972263  57.3526573
  98.5526180  97.1434498  57.9025126  81.7393020 110.0877102  78.7481070
  81.6367540 110.8175570  79.3588734  82.1014643 109.3792122  79.2801762
 113.6150742 102.0375729  73.3559418 114.2060375 102.0419502  74.1089201
 113.7817955 101.1990356  72.9254961  86.1633110  29.6597719   9.1502595
  85.9967136  28.7401199   8.9435858  86.0713863  30.1139426   8.3126962
  -0.0444589  39.9402857  84.9789238   0.7916943  39.7403574  85.3997707
   0.1908296  40.1901197  84.0853596 104.1738987  85.3974533  60.0766087
 103.4273434  85.4905891  60.6684017 104.8966503  85.1279259  60.6433725
  92.2035217  77.3096609  68.4446192  93.1136417  77.2937727  68.1485319
  91.7409420  77.8072548  67.7703381   3.5610160  78.1013775  48.5844374
   2.8091446  78.4131813  48.0807543   3.5246417  77.1482658  48.5038757
   4.1302434 104.7074986  75.7579851   4.5520970 104.9999523  76.5659094
   4.2554715 105.4329586  75.1462221  83.3988667  38.4793878   5.6833458
  84.0020370  38.9328361   5.0944543  83.3304310  39.0545273   6.4454246
  27.4051619  22.6219440  64.4030476  27.7618337  21.7421126  64.5251751
  27.5335288  22.8053784  63.4723997  50.0489140  11.4669704  80.1494789
  50.3643417  10.6314468  79.8050404  49.2297983  11.6255474  79.6802902
 107.9713440  84.5787525  69.4002914 108.7272644  84.0519524  69.1408873
 108.3482933  85.3265381  69.8639345  11.5751386  92.1568298  65.2896500
  10.9038401  92.5142288  65.8709049  11.5240073  92.6992607  64.5026398
  10.4675460  98.7319851  65.3823423   9.6096706  99.0425205  65.6719065
  11.0905337  99.3307877  65.7941055  86.7819691   5.9124917  94.3129349
  86.6440010   6.0431218  93.3747864  87.3292446   6.6511214  94.5796776
 100.2848244 109.4870186  72.6773310 100.7465363 109.2775249  73.4892273
  99.5104790 109.9731255  72.9607344   9.3972361 100.6225586  47.0519352
   9.2475855  99.6779919  47.0116568   9.6257919 100.8673000  46.1552191
  80.8211327  10.3679824  64.7746706  80.2356052  10.2888203  64.0216017
  80.9592056   9.4668621  65.0664759  44.4516134   8.3613354  65.9547567
  44.1209984   7.9268867  65.1685143  44.5736551   9.2733711  65.6910753
  50.9983015  97.5286674   4.3398991  51.2219286  98.3369255   4.8013595
  51.8070269  97.2753143   3.8949215  69.7943592   3.0347142  85.8283234
  70.1865482   2.2490141  85.4474068  70.3730154   3.2625759  86.5559673
 114.6257019  99.1062069  67.4702024 115.4667473  99.5452881  67.5970078
 114.7889137  98.4734440  66.7707634  54.3037271 108.6617470  47.5059319
  53.9058685 108.1051445  46.8365049  54.9153709 109.2174244  47.0228672
  34.2704678 108.5542297  80.7607937  34.0993118 107.8601170  81.3973045
  35.0988245 108.9407253  81.0448265  17.7126193 109.1393661  88.3384991
  16.8893886 108.7016582  88.1218529  17.6646101 109.9793625  87.8820705
  38.9242291  86.5231705  56.2725019  39.3681335  85.6759262  56.2355566
  38.0743527  86.3664246  55.8609486  45.3486443  18.6098409  75.6624746
  44.7521496  17.9122615  75.3907967  45.4734135  18.4664381  76.6006088
  27.7331996  85.6099606  81.4191246  27.9016757  84.7086620  81.6938972
  28.4853220  85.8383942  80.8728981  85.6174660  21.6025233  47.8346014
  84.9799061  21.0397363  47.3952532  85.5811214  22.4281263  47.3515987
  70.6084013  19.8384953  31.9521093  70.2456665  19.5320213  32.7832103
  71.2428665  19.1656971  31.7050695  18.1047213 109.2380047  27.4150658
  18.7729728 109.3234921  26.7350936  17.6425469 108.4288311  27.1962905
  70.6694603  23.9059019  82.4610329  69.7505522  23.6582255  82.3585892
  71.1588287  23.1536484  82.1280670  36.4510441   2.8634942  43.7837744
  35.5039096   2.7903384  43.9013100  36.7407227   1.9678684  43.6100721
  34.3379951  43.5630417  33.6277795  34.7971678  43.5583162  34.4676423
  33.7535238  42.8061819  33.6700916  36.4954114  96.6031075  75.1369858
  36.8936801  97.3283863  75.6182194  35.6258225  96.9234848  74.8973989
  29.4999075  80.5814648  45.2479362  29.6703815  79.9341774  44.5636940
  30.2916741  81.1188316  45.2719116 100.9492588  22.1049762  24.4495201
 101.5680027  21.6152787  24.9913549 101.4791965  22.7879667  24.0385175
  23.7181616  80.0718212  66.0017490  23.7136364  79.1424751  66.2309551
  24.6450043  80.2896500  65.9030247   9.7664130   5.1424503  55.6928682
  10.2706611   5.5399287  56.4027786   9.5649165   4.2608732  56.0066366
  47.1524954 103.2156467  83.5289669  48.0206442 102.8371811  83.6679077
  46.5875196 102.4623299  83.3570576  26.4125156  95.9508038  65.5014801
  26.3101006  96.6386986  64.8438072  26.7640138  96.4030647  66.2683868
  40.1216364  98.9409447  21.8182206  39.6120429  99.1025639  22.6122117
  40.9756374  99.3343544  21.9975042  59.1479158  24.1351247  46.1493492
  59.5754337  24.9647617  46.3618755  59.5351219  23.8732362  45.3140545
  35.1577663  95.7626534  72.5289154  34.2867112  95.7746506  72.1322441
  35.4443192  94.8527527  72.4501276  17.1841919 104.6826553  34.4277644
  17.5123346 104.0691090  33.7704086  16.2354004 104.5562458  34.4208837
   7.1669316  72.2161150  50.7541847   7.4178928  71.7931414  49.9329996
   7.6532263  71.7399454  51.4272451  31.6657495  72.6192808  69.3308258
  32.4003077  73.0918646  69.7223854  31.5163016  73.0596495  68.4941816
  18.2890451  95.9256268  16.9042277  17.6705146  95.6789398  17.5918317
  17.7391422  96.1140251  16.1437368  81.5816402   1.8636185  53.5602665
  81.3456059   2.3729676  52.7849674  81.8766403   2.5164765  54.1950703
  36.9265246  13.2713878  88.2400703  36.9637251  12.9388869  87.3432541
  36.9127250  14.2234659  88.1421471  18.5891116  83.7220001  75.7203054
  19.4983029  83.4268951  75.6701469  18.6126971  84.6252441  75.4043531
  69.3650913  32.7252603  75.1342964  70.1737690  33.0028868  74.7039557
  69.5492744  32.8126574  76.0695362   9.8641241 103.5303307  59.2485571
   9.0570152 103.0200672  59.1819096   9.9855864 103.9016438  58.3747101
  15.4578197  64.8420477  13.0741656  16.2782311  65.0934362  12.6499462
  15.4294717  63.8885689  12.9947495 104.0401077  73.8972521   3.1188017
 103.9170551  72.9592609   3.2646370 103.2287693  74.2968464   3.4323117
  22.6418424 107.7931595  63.4661531  22.2118473 107.2083092  64.0900803
  23.5764933 107.6869965  63.6433268   5.7654250  97.4643135  60.1904917
   5.3250355  98.0109692  59.5397568   5.7530349  97.9883385  60.9914064
  96.7610836   3.1060562  21.9130993  97.1594048   2.4388883  22.4720812
  97.4294472   3.2974827  21.2551689  69.2830086   0.1752096  61.0782576
  69.0474367   1.1027526  61.0983086  70.0793314   0.1188674  61.6063976
   4.2508438 106.7938709  52.0627165   5.1886535 106.6377163  51.9515324
   3.9010337 106.7956066  51.1717319  75.1986504  17.0234358  64.3261290
  74.6834850  16.8981111  63.5291815  76.0501003  16.6353869  64.1244316
  55.7921076   9.5222867  67.7156973  56.7045450   9.2341095  67.7411127
  55.6607819   9.9754798  68.5485268  96.6325283  91.3598442  12.5257123
  96.7444706  92.3101902  12.5024235  96.2440872  91.1435890  11.6780221
  60.4704094  21.1401772  39.3785763  59.9983931  21.0829449  38.5478210
  61.3760567  21.3217735  39.1274619  44.4181681  17.4397266  31.1201525
  45.0329542  18.0735409  30.7506251  43.5604334  17.7280426  30.8080697
  49.3539095  15.2018225  76.8612909  49.9411726  15.8782268  77.1986771
  48.7818909  15.6648231  76.2491989  58.7786436  11.9720149  55.2769899
  58.6503124  12.1056485  54.3378925  57.9808521  12.3156929  55.6790447
   6.5418947  76.6560268  44.5246172   6.1237526  77.5152826  44.4692469
   5.8229983  76.0326624  44.4204903  81.8601418   6.7318773  89.8541737
  81.9281960   7.0810854  88.9655495  82.5835991   7.1415180  90.3285503
 117.0586681  91.4784718  43.2332468 117.2952271  91.8009853  44.1028738
 116.1039352  91.4128494  43.2536650 100.8025932   0.0355741  77.1492624
 100.1004601  -0.6062292  77.0428085 100.5143452   0.7926913  76.6394377
  24.1677761  51.3075304  14.3136585  23.4872246  50.8426189  14.8004246
  24.9837065  50.8818245  14.5768321  27.6663899 108.1096268  39.0127063
  28.5561037 107.9703236  39.3371129  27.7196789 107.9161644  38.0767775
  31.5061903  86.8856716  83.6834145  30.6564021  87.3258400  83.6647701
  31.3914895  86.1195660  83.1211376  11.5495276 100.1707935  89.0183353
  11.0863173 100.5249786  89.7774220  10.9269130  99.5624256  88.6202431
  41.6963291  81.2118816  56.7585278  42.2665215  80.6756115  57.3094559
  42.2870207  81.6116047  56.1201382  64.0067387  14.0119267  94.3788052
  64.1001844  14.4324780  93.5240269  64.8442698  14.1677713  94.8152542
  43.2830000 102.6971912  55.8696032  42.5326157 103.1602287  56.2420940
  42.9258537 101.8587208  55.5769348  64.9300575   7.8305840  47.2080040
  65.5705738   8.5400236  47.2596550  64.1040230   8.2681996  47.0021057
   8.3179027  77.2639513   0.5076764   9.0874791  77.0987511  -0.0370191
   8.6759365  77.5588036   1.3449979  72.3568201  61.3770723  11.3080859
  72.6661015  62.2775316  11.2093639  72.2792625  61.0508156  10.4115522
   6.0530025  87.8243446  62.5583887   5.5897009  87.8293800  61.7208004
   5.7193363  87.0503139  63.0120182  51.4519548  31.1978221  24.3119264
  52.3156595  30.7861376  24.3394470  51.1988068  31.1619449  23.3895063
  91.4749146  32.2011423  91.5560532  91.4532375  32.5237989  90.6551361
  91.3232803  31.2593508  91.4768887  15.7819855  23.3001375  40.8711529
  15.9393585  24.1731811  41.2306833  15.9303904  22.7073717  41.6079283
  79.4875908  18.8090992  72.1122169  79.0753984  19.6225166  72.4032164
  78.8824177  18.4533942  71.4614677  55.9804296  29.0050244  46.8882799
  56.4290571  28.1819415  47.0819283  56.6656590  29.5749068  46.5391064
  54.1341829  12.2827089  55.8953238  54.7077942  12.7778733  56.4801455
  53.9791584  12.8715658  55.1567793  52.9996848   0.4454182  58.4603119
  52.9217243   0.3660248  57.5096035  52.8366411  -0.4387905  58.7886763
  67.0803547  17.1729088  32.4618483  66.3675928  17.5051868  33.0075502
  67.1484947  17.8047156  31.7460203  16.2735415 100.1372051  74.2326355
  16.3638020 100.8701611  73.6236572  15.3288162 100.0018692  74.3061924
  28.7061524   7.3533458  23.9123797  29.0945172   6.9562048  24.6919203
  29.4036365   7.8987354  23.5486507   2.0871489  89.0340900  74.6384621
   2.7402589  88.9540958  75.3336430   2.0018044  88.1478977  74.2868805
   7.7326447  83.6317635  81.3276577   8.2823348  82.8652954  81.4907742
   6.8919319  83.2686520  81.0491085 116.4032364  96.4712620  55.1483011
 115.8460617  97.1381855  54.7470617 117.2493839  96.9037151  55.2634764
  13.0868781   7.3533106  51.7556572  12.9058421   6.7025447  51.0774565
  12.7630854   6.9541365  52.5631571  78.5959482  31.2535644  68.4052277
  78.1313372  30.6134033  67.8661919  78.0776596  32.0544124  68.3261824
  98.9408493  81.1309528  41.0725546  99.2306328  80.5632210  40.3584528
  98.0555058  81.3961887  40.8234549  42.6993370  96.9361401  78.0306005
  43.0782986  97.8151321  78.0307055  42.9639387  96.5611458  78.8705969
  58.9715815  15.8692968  31.6086698  59.5638847  15.9578872  30.8619690
  59.5508432  15.7438099  32.3602962  50.0334692 106.8766880  51.2655640
  50.9689951 106.7198658  51.3937330  49.6219873 106.0315323  51.4462042
  70.0862980  25.6653452  84.6360207  69.8160076  24.9927592  84.0108776
  69.8486853  26.4920306  84.2160606   8.9091951  95.5445194  43.9176893
   9.4338989  95.2833366  44.6744585   9.4988686  95.4423714  43.1706381
  35.7022190 109.0422344  42.4955416  35.8858514 109.6725082  41.7989397
  35.8187938 108.1870556  42.0816326  21.5105462 105.1782703  42.1081257
  21.7188072 105.9582329  42.6224422  22.3202610 104.6677971  42.1086311
  94.3592072 102.7161884  39.1645694  94.0954113 102.7764606  40.0827265
  94.5251083 101.7840576  39.0237308  81.3064575   4.1230950  30.6152821
  81.2333965   4.8416725  31.2434053  80.5678749   3.5497645  30.8202767
  74.1474390  40.3513002  74.8797226  74.0865755  41.2778759  74.6473742
  75.0627804  40.2268934  75.1305342  64.1841507   0.4373606  44.5972967
  64.9552584   0.9918308  44.7164106  63.5198021   0.8254768  45.1667118
  66.4079618 100.4862118  50.2037954  66.7766237 100.3985786  49.3247986
  65.7418919 101.1681938  50.1172733  69.7105932  16.8873274  49.5463610
  70.2019262  17.3201776  50.2445507  69.9452257  15.9627593  49.6260834
  23.0878472 104.2794418  62.0549822  22.3782825 104.8266220  62.3916483
  23.3378220 103.7283039  62.7966022  99.5356369   1.7755254  66.7256975
  99.6164894   2.6299837  67.1494818 100.3800488   1.6406418  66.2955761
  56.0967970  10.4133832  57.7534246  55.5780363   9.9949735  57.0663595
  55.5588913  10.3345549  58.5412502  33.6396074 101.1537457  53.4751940
  33.7247324 100.2599144  53.1434441  34.0480804 101.6987610  52.8026342
  12.4003696  14.7761917  46.3853359  12.7842391  15.2659845  45.6580257
  12.4697363  15.3671467  47.1351290  85.7141018  12.4620426  54.5264482
  86.2948990  12.8411853  53.8667822  84.8682022  12.3852670  54.0850973
  81.1513901   9.9986923  60.4328823  80.6367207  10.3290677  59.6965408
  81.7611885  10.7079363  60.6362247   9.6053720  93.0632210  80.3713989
   9.1424960  93.3942223  79.6017170   9.3297195  93.6406231  81.0833454
 113.8402557 111.1975670  42.7722120 113.4610939 111.2815094  43.6470985
 113.1638622 111.5345383  42.1846962   1.3513461  94.0067387  44.7665358
   1.8367912  94.3725777  45.5059528   1.3848296  94.6896172  44.0966272
  87.6782799  59.4552374  30.6255317  88.1973553  58.6528254  30.6796074
  87.7417660  59.8409033  31.4992952  65.2478123  25.0987005  40.4407120
  64.8765707  25.9474230  40.6817102  65.5742598  25.2243686  39.5497155
  50.6782055  22.0144582  52.8864574  50.3260231  21.7616558  53.7398577
  50.0387955  21.6832471  52.2558308  27.6429558  23.5252714  31.3346958
  26.7281199  23.3413887  31.5479898  27.7139711  23.3339667  30.3995013
  92.8191280  55.6935072   7.1585613  92.9682064  56.6238689   7.3271948
  93.4207726  55.2432203   7.7514398  55.7047033   3.6618954  52.4412203
  55.1728487   2.9639140  52.8235626  55.3654766   3.7615919  51.5517187
  70.6701231  24.4518590  76.8034267  71.6165972  24.3975472  76.6712475
  70.4966784  25.3869653  76.9116974 115.0152588 106.0335350  35.6414938
 115.5684185 106.8147182  35.6386113 114.2269421 106.2965107  35.1664901
  59.8410416  26.2740660  61.4080048  58.9144230  26.5080237  61.4616013
  60.2367640  26.9788980  60.8953142  53.2055378  10.1445055  52.8531647
  53.4661388  10.3828061  51.9634867  53.2066345  10.9727407  53.3330154
  39.6719432  11.4354002  39.1149545  40.0103664  10.5446887  39.0236735
  40.1342392  11.7906380  39.8741126  91.0627842  90.4928970  66.6080189
  91.3791466  91.2258625  66.0798931  91.0289001  89.7555923  65.9985399
  19.8959696 105.9420204  79.2439938  19.0516388 106.1810207  79.6263742
  19.8768747 104.9860287  79.1997957  35.8640933  96.1658382  79.5802784
  36.4506531  95.4696274  79.2845201  35.1922846  96.2179375  78.9004326
  50.8103943  16.3083911  83.0295181  50.1794338  15.5906916  82.9744625
  50.8473206  16.6634929  82.1413898  39.0306520 110.7995987  25.1640010
  38.6650801 110.4826355  24.3380928  38.3099580 110.7244110  25.7894444
  76.5861177  19.0370023  51.5330696  77.5067902  19.2817545  51.6263103
  76.5875483  18.3480895  50.8685207  42.8771877  34.5325994  46.7280054
  43.1926680  35.3081584  46.2640953  43.6143064  33.9224482  46.7034245
  46.1372614  22.3001528  40.6259584  45.6269455  22.3748016  39.8195863
  46.8896723  21.7601347  40.3841114  73.0102968  43.4759855  69.0293694
  72.8559923  44.1382170  69.7030687  72.2296524  43.5103178  68.4765196
  73.2712746  16.1477399  62.7354097  72.8605700  15.4437613  63.2373714
  72.7776289  16.1770225  61.9158411  96.1234379  66.2648106   4.5274773
  96.2366390  65.8164215   3.6894053  95.1815319  66.2275076   4.6937662
  85.1507854   8.4883660  73.5071850  85.0989532   9.4382471  73.4010172
  86.0789299   8.3152616  73.6647320  51.4447594  17.7425420  52.9250193
  52.0149612  17.7213824  52.1564770  51.9089365  18.2967079  53.5524511
  15.6258750 106.7841911  95.2614880  15.2894258 106.8766975  94.3701553
  14.9692440 107.2121334  95.8109665  67.1456575 111.1009598  43.6645603
  66.9839144 110.3061390  44.1728354  67.9605055 110.9231853  43.1948185
  86.7117691   7.1877068  25.2861595  86.1032963   7.5030303  24.6179080
  87.4247837   6.7854106  24.7901726  72.2046185  17.0711195  34.7026587
  72.9461241  16.6643667  35.1509333  71.5714550  17.2474253  35.3985405
  49.4633245  35.2338243  40.6601524  49.5068693  35.3616428  39.7125220
  50.0001383  35.9389687  41.0218620  29.9328947  96.2148380  35.3610659
  30.8345771  96.5009212  35.5072188  29.7731948  95.5664444  36.0468578
 107.5974846   4.3035790  73.9941454 106.6843414   4.3061331  74.2811775
 108.0978012   4.5034754  74.7853231  69.4599819  19.5964801  52.9491806
  69.3818712  19.9202609  53.8465643  68.6038637  19.2137766  52.7572680
  43.7454447   0.0934360  58.8422680  43.4398011  -0.0462200  59.7385406
  43.3376319   0.9174011  58.5757923  32.9848266   3.3304507  70.6039000
  32.5383162   3.0979592  71.4180279  32.3324966   3.8221025  70.1049280
  50.3194141  65.0653267  43.8241959  50.5519342  65.2144623  42.9077196
  50.9965324  65.5247116  44.3208933  42.8167343  97.2829342  74.7825003
  42.1102905  96.6379929  74.8173571  42.5080156  97.9430199  74.1618443
  73.1670284   6.7593938  77.1162891  72.7065277   7.5551295  77.3827028
  72.5096178   6.0672390  77.1867609  59.3014526  19.6382904  77.2293472
  59.0338850  19.0982640  76.4857006  58.9068794  19.2112434  77.9897261
  60.0232887  14.3803108  49.6821308  59.9324179  14.9596429  50.4386663
  60.2171278  14.9682987  48.9521074  13.5787702   0.7917321  74.6490479
  14.0309787   1.5400279  75.0386572  13.4515846   0.1832437  75.3769207
  96.0821819  14.9946356  33.5085917  95.5726910  14.4144201  32.9429078
  95.6764698  15.8544409  33.3973885  37.7195430 101.8867111  77.7481651
  38.3189225 102.0805359  77.0274639  36.9565058 102.4397659  77.5804234
  51.1600208 110.4389763  76.9897413  51.3641119 109.5324898  76.7598248
  50.6943226 110.7806301  76.2264395  62.4704647  26.3797998  63.4665489
  62.0814562  27.2376561  63.6367989  61.8219185  25.9251261  62.9290628
  63.8418388   4.4955081  60.6932116  63.9898682   3.6010394  61.0002041
  64.5762205   4.6714792  60.1050329 109.3976593  18.0074608  70.3520060
 108.5653210  17.7410269  70.7424641 109.6292686  18.8154769  70.8099318
  45.1799536  13.8032186  72.5136518  45.2864170  14.4741368  71.8392897
  44.3086529  13.9639056  72.8759289  52.6843643   6.9456309  43.9242744
  52.4215698   6.9828391  43.0046082  53.0849648   6.0820472  44.0241480
  41.9599962 106.5194702  85.2693939  41.7961931 106.9655418  84.4384766
  41.0896158 106.2830067  85.5899525  53.3144903  18.2241106  76.2769175
  52.6999140  18.9197230  76.0431433  53.4564781  17.7455080  75.4602098
  98.4617138  14.6765554  54.0555763  99.3095207  14.5672822  54.4862890
  98.2249641  15.5891716  54.2208433  86.9213676  13.5998797  52.2352123
  87.7113628  14.0826976  51.9922638  87.0161533  12.7517831  51.8016434
   7.0260596  91.5084362  39.8830295   7.3223937  90.6728935  39.5220590
   6.0736102  91.4848900  39.7907352  77.1188831  30.6032896  52.2027826
  76.4268541  31.2612081  52.1359491  76.9072819  30.1129460  52.9971504
 111.0423088  86.3227844  22.2120428 111.1556911  86.9969654  21.5420771
 110.4396725  86.7131329  22.8450489  26.1484575 105.9992504  67.7275562
  26.8688869 106.6231251  67.6382160  25.8258128 106.1319923  68.6189127
  81.3209534  32.6326561  37.3351359  81.2613964  32.3557997  38.2494855
  82.1753216  33.0591989  37.2692037 110.8220577  95.0463104  -0.2048946
 110.1390457  94.3937206  -0.3593706 110.9623718  95.0266743   0.7417613
  97.8073502  52.0226049  62.4443626  97.0078087  51.5190983  62.2912312
  97.9691505  52.4731064  61.6154480  72.0604277   1.5769401  74.4346046
  72.5361443   1.9004549  75.1996326  72.6824951   1.6620830  73.7121010
  92.1346283  28.5344768  93.2387733  92.0106125  28.7871861  92.3238945
  93.0732346  28.6428308  93.3920670  73.6926556  10.3749549  59.8025036
  73.3039141  11.0704482  59.2720318  72.9437685   9.9251533  60.1937580
  31.0751033  17.9857862  37.3430228  31.2781286  17.5350451  36.5233612
  31.4953208  17.4542356  38.0191159  23.7982130 107.4431324  75.0301600
  23.6382699 108.2389355  75.5374527  23.1902456 106.8001842  75.3951645
  87.0015717  26.4180136  95.1312733  86.9049644  26.2979102  96.0759735
  87.9323673  26.2691641  94.9648476 113.0600357  17.6830232  79.3793535
 113.8948727  17.4219859  79.7681189 112.8217220  16.9513226  78.8100958
  10.1587939 108.6780357  91.0636234   9.8273736 109.3617821  90.4814816
  10.8425307 109.1100311  91.5755939  75.2514839  19.8049080  75.4326630
  75.4205036  19.0097857  75.9380770  74.6371222  20.3044891  75.9704447
  78.7611580   9.4940108  77.3868990  78.2290173   8.8537019  77.8591967
  78.8835287  10.2100956  78.0101824  87.5579357  12.1978295  61.8296623
  87.1247196  12.4834371  62.6340199  87.8864002  13.0055332  61.4347506
  44.9425507 104.7546387  56.6651535  44.7022676 103.8705349  56.3879251
  44.2700386 104.9971390  57.3016691  84.4834328  37.6955462  24.1177440
  84.5049286  38.0380321  23.2241726  83.5849476  37.8473425  24.4108772
  38.5346913  86.9515610  52.9189682  38.8176441  86.5875912  53.7578344
  38.2911348  86.1875248  52.3963213  83.6378765  22.1580172  43.2319069
  83.3745289  21.2384582  43.1959152  83.7473392  22.3394489  44.1653585
  36.3427711  29.9109674  86.6320515  36.2730765  29.7296071  85.6947803
  35.6397915  30.5363679  86.8079185  37.7749467 109.0202141  61.4812994
  37.6915264 108.9911747  60.5281878  38.0501461 109.9172878  61.6704178
  98.9936829  42.0812082  21.3597035  99.3087292  41.5883207  20.6020474
  98.2264900  42.5533772  21.0361242  72.2908115  17.9152989  30.2606559
  72.6787281  18.6696839  29.8171973  72.7098942  17.1568525  29.8540044
  90.6276321   8.7522221  95.1419926  91.3145828   8.4167576  95.7180119
  90.6464863   9.7001499  95.2735519  23.4676504  86.8198299  79.4064760
  22.5747490  87.0025253  79.6990156  23.5791755  87.3612690  78.6250401
  11.5829790   7.3868442  87.4419880  11.8375909   6.4909232  87.6627350
  11.2648261   7.3303181  86.5409756  75.5203962   2.2752941  28.7562442
  74.9349165   1.5198132  28.7043715  76.1287451   2.0587835  29.4628310
  46.6006660   3.1132868  77.4948549  47.4408197   3.3429888  77.8918600
  46.7783880   3.0903220  76.5545750   3.6795709  92.8338337  54.8384094
   4.4978639  92.7801037  54.3447113   3.6639372  93.7280464  55.1795483
  84.6200466   8.7282741  29.0436649  84.9678898   9.5591331  29.3675661
  85.3929901   8.2377321  28.7641001  89.9298096  16.1783350  67.7015305
  89.8685169  15.2860045  68.0424452  89.2276287  16.2359393  67.0535707
  54.6058130   9.3596619  55.6053209  54.4535923  10.2961898  55.4789162
  53.7991905   8.9428520  55.3022337  59.0050173  63.6431646  42.2957945
  59.1012287  63.4931278  43.2362556  59.2941999  62.8249454  41.8919039
  26.1172438 110.4956722  39.2788649  26.3552284 109.5825863  39.1180158
  26.3980150 110.9589481  38.4897065  64.2791653  99.8967075  42.4441338
  65.0124168  99.2999077  42.5938177  63.5039711  99.3360043  42.4743366
  64.8970556  19.1872048  64.0929365  65.7215452  19.6121383  63.8565540
  64.5525646  18.8549542  63.2639790  70.8748579  13.6301768  57.5579691
  71.3358021  14.3459857  57.1204996  69.9478626  13.8495708  57.4642754
  30.5462909  90.7248688  70.8868694  29.6241999  90.4723930  70.9341335
  31.0253954  89.9030304  70.9930038  41.1624956 103.1418610  35.7634735
  41.4265680 103.5902309  36.5668797  41.7588854 103.4780121  35.0944829
  87.0097828  12.8977561   5.6605965  87.0497322  12.4369919   4.8225442
  87.4794102  13.7173665   5.5059224  72.0902777  20.0329709  68.5573959
  72.8527117  20.5984235  68.6806345  71.4750242  20.3090453  69.2367172
  14.6568751  99.8667049  55.7352400  14.0659773  99.1958427  56.0773277
  15.0704074  99.4567966  54.9755049  94.6251869   9.5762008  66.9652796
  95.3824997   9.4749087  67.5418568  94.9476051   9.3243277  66.0999250
  46.0463047   1.7773215  56.6173077  45.3224468   1.6154107  56.0122919
  46.0467672   1.0172237  57.1990967  89.7131348  30.1664615  78.0139637
  89.1385174  29.4053483  78.0961609  89.6134281  30.6326008  78.8440275
  11.1595249 101.7205715  67.1622801  10.7216716 101.2936687  67.8986740
  11.7795932 101.0662746  66.8403339 103.7093925  15.1083004  42.9631853
 104.2935467  15.8069527  43.2579279 104.2744732  14.3393624  42.8880644
  41.2936306 104.7073078  60.1844978  40.7500648 105.1759720  59.5511532
  41.9214344 105.3613377  60.4916477 103.2320786  16.0462141  82.0118904
 103.7420750  15.2555621  81.8358040 103.3589840  16.5910184  81.2351513
  90.3492737   8.5899746  90.9432697  91.2355042   8.4154534  90.6264400
  89.8911190   8.9530563  90.1853085  80.6446552   5.8058983  23.7877870
  81.1999989   5.6029022  23.0350471  79.9917793   6.4167470  23.4459567
  86.9124317   6.1302787  78.4076118  86.2798309   6.4622802  77.7705765
  87.7602100   6.2199169  77.9723310  45.9195566 107.6298141  39.5969224
  46.4629698 108.1497002  39.0047550  45.1173687 108.1422138  39.6977830
  73.6261082  36.1543846  62.2013187  74.4534254  36.1831141  61.7207432
  72.9645920  35.9885979  61.5296459  44.6181583   2.1201101  68.5398340
  45.2956676   2.5265411  67.9994345  44.3049526   1.3823463  68.0165386
  68.4127331  14.8460674  57.3862028  68.0254364  14.3158042  56.6897440
  67.7033281  14.9677873  58.0172062  59.2374325 105.3685188  33.7161565
  59.5612669 105.1196861  34.5818615  59.4857025 106.2882328  33.6228132
  65.5871201  98.2105350  45.3535318  65.4093933  97.7735615  44.5206451
  64.9396038  97.8471565  45.9576130  99.5239735   1.3492785  47.2028017
  99.4702816   2.1191610  47.7690458 100.3242111   0.9032808  47.4801874
  36.4830446 107.3907757  70.8565283  36.5867949 108.0442238  70.1648140
  35.5664706 107.4663544  71.1218834  41.1342478  91.5399647  27.8198743
  40.8710241  90.8987427  27.1597362  40.4026031  92.1558094  27.8607154
  48.7747860   9.1015285  76.9164848  49.0434551   9.1239291  77.8349352
  47.8283930   8.9614183  76.9471312 102.7905464  19.4598043  45.6757450
 103.3997536  19.7551727  44.9990892 101.9233513  19.6332586  45.3095245
  77.9506016  21.2690973  45.4279852  78.8073254  21.6614747  45.5961847
  78.0812740  20.7355046  44.6441269  58.9907265   5.5077696  39.8131728
  59.6438646   5.9393483  39.2623711  59.4939518   5.1459360  40.5426073
  82.2568417  18.0805480  81.3882542  82.8184319  18.5959983  81.9671822
  82.7370548  17.2634959  81.2538815  80.7507133  35.3134656  79.0044355
  81.3393688  34.5933890  78.7781525  80.5710697  35.7471418  78.1702375
  65.6613159  14.0310788  44.1733265  66.2223768  14.5421648  43.5900307
  65.5458260  14.5879745  44.9432373  89.1019058   5.4092783  62.1833372
  88.5333920   6.1791462  62.1650648  89.5157623   5.3966135  61.3203239
  30.3716135 103.9376640  53.2095575  30.0331283 103.9954758  54.1030455
  31.2564635 104.2985249  53.2648325  92.1399689  21.5879488  55.3632450
  91.6602898  21.8183708  56.1588860  92.9712296  22.0561886  55.4406548
  29.9151731 106.0179901  34.7044039  30.1224327 106.2782383  33.8068819
  29.7788835 106.8442822  35.1679659  35.9173322 105.5007458  43.7895393
  36.0716987 105.7561493  42.8800488  36.3774776 106.1626911  44.3056011
  68.0043507  91.5767288  49.9465656  67.6538897  92.2943878  49.4189548
  68.2085323  90.8901691  49.3115997  58.0198669  40.4060030  71.8670321
  57.1020746  40.2777100  72.1066809  58.5074234  39.8643470  72.4876213
  72.7190924  29.7787261  79.2850065  72.8842020  30.2471089  80.1032925
  73.5688639  29.4093943  79.0447712  28.3147192  96.3770390  44.8680544
  29.1171074  96.8465233  45.0960779  27.8722310  96.2382603  45.7054186
  62.6157475 104.7834206  70.7924938  62.0502663 104.0763569  71.1031914
  63.2669163 104.3458843  70.2440596 117.3886395  17.8395915  87.3827648
 117.6315117  18.7574732  87.5041676 116.8798161  17.8316867  86.5720463
 103.1885815  35.2799535  54.8862219 103.1142712  34.4324160  55.3248453
 102.3716927  35.3679228  54.3951178  68.6039495   9.3469930  64.1713524
  68.4691334   9.6222979  63.2645655  67.7398920   9.0581441  64.4649506
  85.5651760   6.7316324  76.2766552  85.0981998   6.4782172  75.4804516
  85.7497692   7.6635581  76.1597252 108.5641003   6.6848993  35.6277990
 108.2677269   6.2801588  36.4430189 108.3546829   7.6131570  35.7313013
  75.2245808  34.6388817  74.1916370  75.3420162  33.8951826  74.7826958
  74.6337748  34.3139124  73.5122442  58.4167957   1.3057753  24.3289638
  59.1945839   0.9851021  24.7855139  58.7611008   1.8692246  23.6359906
  78.1753969   8.2776099  72.6970339  78.9518499   7.9271758  72.2605133
  77.4530125   8.0691761  72.1046257   0.9233653  10.6963181  61.0396481
   0.2198397  10.2111948  60.6084490   0.5585753  10.9423363  61.8897295
  85.1658630  27.0921993  34.2354012  85.9810925  27.1577573  33.7380743
  84.7264862  27.9294705  34.0865278  75.0135374  16.9056141  58.5986233
  75.5372620  16.9947660  57.8023863  75.6449842  16.9972348  59.3121433
  60.2657366  33.0168200  71.3531399  61.1038828  32.8742003  71.7929173
  59.7287703  33.4709716  72.0024824  76.6488075  17.0100212  66.8444872
  76.0830927  17.1345210  66.0824537  76.9996357  16.1255360  66.7403889
  40.1913786 107.0688725  70.1579809  40.7652044 107.1879864  69.4011641
  39.7315001 107.9039764  70.2436638  22.3390508 106.2129593  70.8995867
  22.5927401 105.4426670  71.4080477  22.2175145 106.9018459  71.5529537
  38.4344125  93.5928535  65.5981064  37.8610754  93.5490131  66.3633490
  39.1987205  94.0841293  65.8993006  25.9671497 107.3563576  51.8522787
  26.7327166 107.2676754  52.4199724  25.5012941 108.1187439  52.1957588
  76.7140150  92.7441406  90.0218868  77.4122858  92.7152824  89.3678093
  75.9449053  93.0451298  89.5380402  60.5772781  20.2507734  74.0809917
  59.8277712  20.3722930  73.4981537  61.0970020  19.5642638  73.6628723
  91.6627407  13.5152102  41.6450405  92.1086693  14.0083396  42.3336649
  92.3605061  13.0224288  41.2131548  73.2264042  38.0746651  64.3710661
  72.9611921  38.9632487  64.1337633  73.4565639  37.6629186  63.5381699
  69.3324995  18.7427557  62.4438190  70.0748730  19.1104972  62.9232693
  69.7003222  17.9989970  61.9665766 104.1732407  50.1002696   0.5328435
 104.3106056  49.1531470   0.5149335 105.0069881  50.4687694   0.2407903
 109.2411804  44.3842936  55.8806658 108.5733986  43.9979935  55.3140259
 110.0722218  44.1229963  55.4840279   6.3235551  93.2762718  46.7674780
   6.1569875  93.2767296  47.7100754   5.5287081  92.9056263  46.3839769
  90.1944923  25.3225040  44.6902323  90.6854534  25.0440288  43.9171553
  89.9237823  26.2189603  44.4919491  33.8908529 107.2720623  34.0790534
  34.6917295 106.7899609  33.8731098  33.2815146 107.0338249  33.3803511
  86.8169785   6.6056699  38.6799932  86.8286705   6.8048495  39.6161675
  87.6626968   6.9177455  38.3581400 108.6648273   6.5458596  72.4400711
 109.4477844   5.9972155  72.3931360 108.0970287   6.0996878  73.0683756
  97.3833370  27.0666838   3.9507028  97.6944256  26.4254546   4.5896718
  97.9649258  27.8185606   4.0632945  83.4870243  34.5899987  51.2032890
  83.1404018  35.4069066  51.5620947  84.3123531  34.4550180  51.6689587
  68.8777542  24.0474677  78.8306952  69.5330906  24.2485809  78.1626272
  68.8983488  23.0935287  78.9068985  76.5600443  23.6507988  45.1499081
  77.2854853  24.2744708  45.1815271  76.9590569  22.8081012  45.3664303
  67.7302933  20.5430841  63.6430645  68.2140779  20.6164455  64.4657469
  68.1492758  19.8158383  63.1828499  40.2168465 108.2628727  63.2227945
  40.6735134 108.6687851  62.4859667  39.3113685 108.1758976  62.9248333
  93.6164188   3.1589469  52.7064896  94.2367649   3.7084365  52.2274637
  93.3485985   2.4924928  52.0737648  51.2355280  12.5850487  72.2109461
  51.7929173  11.9605529  72.6752234  50.9396315  13.1922662  72.8891516
  89.2570686  23.4606290  63.2041550  89.6039200  22.7047992  62.7301836
  88.5655403  23.0990124  63.7584639  64.7910213  42.5548124  77.6471853
  65.0412941  41.9149113  78.3136129  64.2792416  43.2087612  78.1232882
  39.2660403  98.8975239  60.7416201  39.4930363  99.0437603  59.8232937
  38.4407234  99.3671799  60.8620501  64.8190689   3.3751857  53.7813616
  64.3531847   2.5585878  53.9612198  65.7378244   3.1699058  53.9545107
  69.0233278   7.8910965  60.7042551  68.5936975   7.3056149  61.3278437
  68.4141731   7.9454041  59.9679041  41.2578058  90.7902718  84.0258217
  40.9060478  89.9252415  84.2361259  41.9872856  90.6142044  83.4316063
  88.4249878  15.7293570  60.6869030  87.4872494  15.5872023  60.8160162
  88.4837627  16.1984360  59.8545885  82.2996712  21.4824915  90.8796883
  82.0135880  20.5852818  90.7082081  82.5062084  21.4935446  91.8142700
  66.3339329  17.0294261  68.9557552  66.8118048  16.2513363  68.6686134
  65.6424332  16.6897523  69.5238018  75.4431200   1.3970804  68.6774063
  75.0136948   1.4383325  69.5318794  75.4109573   2.2958048  68.3495474
  75.5046368  97.6698017  56.8306398  75.8944845  98.3395576  57.3924923
  75.2734852  98.1360149  56.0272360  44.0855312 108.5172176  62.3040867
  44.7462940 108.4764862  62.9954338  43.9939976 109.4510746  62.1149683
  37.9924369 106.3295174  61.7421913  37.5163794 106.1196995  60.9387112
  38.0568051 107.2845459  61.7400026 101.5044212  84.5725250  20.6959772
 100.7769108  84.0264034  20.3981519 102.0706463  84.6564198  19.9287820
  47.6691008 100.3427124  41.1312246  46.7357779 100.2880573  41.3365364
  47.8397226 101.2801361  41.0397720  91.3097382  24.4612741  64.8395443
  90.5788040  24.1737199  64.2924881  90.9004784  24.7411847  65.6583166
  46.3946581  37.4461961  42.2792339  46.7552519  38.1686640  42.7932787
  45.6470537  37.1377063  42.7912474  78.5275221  18.2227254  75.4362440
  78.1716013  19.1046488  75.5447054  79.4177008  18.3617735  75.1130152
  71.5415287  28.1132174  64.7343254  71.0070562  27.4594235  64.2836285
  70.9334612  28.5496569  65.3309917  50.6814253 111.2743201  15.2557063
  49.9567663 110.7671423  15.6215906  51.4088976 110.6539017  15.2099180
  66.4829016  94.6715641  45.5503273  65.8473492  93.9570141  45.5916977
  65.9663582  95.4611683  45.7113838 105.3006744   7.6041347  61.4867878
 104.4099617   7.5167847  61.8262386 105.5136299   6.7351478  61.1465788
  60.0854206  12.9255664  74.6599245  60.2134705  13.5681164  75.3577518
  60.4317856  12.1089864  75.0197268  89.9518490  13.3602130  64.9009466
  89.8908138  13.4726918  65.8495522  89.0422821  13.3192837  64.6055937
  64.1219282   1.9515203  61.6018867  63.3183765   1.7363089  61.1283636
  63.8454866   2.0426135  62.5137615  54.7215891   4.0419599  49.5462990
  54.2189550   4.6234924  48.9758444  54.3895006   3.1663471  49.3481731
  97.7962399  31.3323545  71.9781923  98.0100727  31.7463255  71.1420488
  97.1647072  30.6493115  71.7527103  61.0206890   8.0563807  52.0515633
  61.2687016   7.1341074  52.1158600  61.8298149   8.5054940  51.8069363
  42.4141169  87.7116108  83.2320595  42.9414797  88.4676933  82.9742908
  42.1924925  87.8754807  84.1487217  54.6641731  14.5123577  79.2555761
  55.3320026  13.9353180  79.6260643  53.9837837  14.5536804  79.9275780
  66.9134998   5.0536209  47.4859715  67.4260426   4.2526928  47.3762178
  67.3328066   5.6878781  46.9044828  81.5950966   3.1656903  78.9775324
  81.5848732   3.2300997  79.9325085  81.8173313   2.2514383  78.8015079
  45.1611996 100.2350998  67.6102448  45.0304747  99.8801517  66.7309523
  44.4947529  99.8030281  68.1444693  83.1837845  21.2512136  64.1529417
  82.3911381  21.5698504  64.5847082  83.7938404  21.9874024  64.1986179
  43.4853220  17.6893473  72.6351976  43.7134647  18.6057866  72.7911615
  43.5597372  17.2744083  73.4945679  31.3859248   9.5194674  75.9644461
  31.2483287   8.5831559  75.8208466  31.3915515   9.8983061  75.0854206
  28.2688260  80.7412243  41.7006207  27.5511670  81.1989212  42.1384764
  28.9995813  81.3588142  41.7291880  20.5324793  18.3780324  53.7139225
  19.6367216  18.1971788  53.4290695  20.9393001  18.8119566  52.9639673
  91.1257935   2.0561759  63.8655853  91.5852547   2.8942040  63.9188576
  91.7840672   1.4060903  64.1111469  80.0400734  25.7278848  55.2973223
  80.1906490  24.8023462  55.4894972  80.6559658  26.1933041  55.8632708
  74.8887539   2.0090492  44.9702168  74.5056486   1.3164988  45.5085802
  74.4581366   1.9175720  44.1202545  63.7833261  18.6354578  61.5830946
  63.4310770  19.4893742  61.3321400  64.2803574  18.3470321  60.8175850
  84.7708035  48.7028933  63.4323120  85.2194500  49.3885994  63.9270401
  84.3606186  49.1645670  62.7009869  71.7268515  12.9361045  70.6902266
  70.9297037  12.9904187  71.2173271  72.4381924  13.0633461  71.3179493
  74.9551916 105.1934338  74.3207693  74.6966028 105.1596642  75.2417564
  74.2164469 105.6130028  73.8798046  87.8509712  21.5458703  76.1352825
  88.0069351  22.1535301  75.4123306  87.5156116  20.7541680  75.7146025
  74.2812300  13.5040832  59.3858099  74.3989658  13.2720232  58.4646559
  75.1191664  13.2896435  59.7958183  38.5594964  90.8471584  31.1323023
  38.6447597  91.6647720  30.6419396  38.9763784  90.1894379  30.5756593
 107.4418545  49.6485090  88.6223412 107.1354675  50.5421591  88.7764359
 106.9796658  49.1211557  89.2738914  30.1289225 104.1065407   3.1381187
  30.9544659 103.6968994   2.8794605  29.5749187 104.0408611   2.3603021
  81.8762493  15.0589561  71.9761515  82.2989082  15.8907187  72.1900749
  80.9487534  15.2072084  72.1605396  68.1402159  24.5998383  54.2483044
  68.7342930  24.2153835  53.6037159  68.1903934  24.0110993  55.0013638
 100.4659557  96.3394737  70.6779575 100.0327110  97.0351219  70.1833868
 100.0416946  95.5344868  70.3809166 117.6159286  13.5244513  60.3368521
 116.8007755  14.0178668  60.4279804 117.4987316  13.0141973  59.5355177
  88.0105591  16.5216732  65.4732180  88.6026859  16.6479170  64.7318125
  87.6814651  17.3989439  65.6689930  71.1273146  26.3030648  67.5161982
  70.8046532  26.0091591  66.6642952  70.3511477  26.6416335  67.9624844
  32.0964503  18.7816262  58.0092096  31.6152644  18.0636537  58.4205627
  32.0436549  19.4984829  58.6413193  42.0130301  32.1030855  48.8225746
  41.2377310  31.9071198  49.3486357  42.2783947  31.2567806  48.4626055
  22.0930529  96.9822979  71.6298485  22.3387647  96.7301083  70.7397556
  21.5041256  96.2865543  71.9219637  83.0574036  22.9848003  54.2045975
  83.4969711  23.8113093  54.0048647  82.9962921  22.5361252  53.3612776
  90.0236511   9.5088834  51.9165182  90.8508205   9.8402119  52.2661591
  89.8654175  10.0374079  51.1343050  82.5592518  27.0993590  31.0908175
  83.0304337  26.7300940  31.8377185  82.1898270  26.3393688  30.6411839
 104.3134022  28.2459927  52.9616261 103.7754631  27.5192952  53.2759047
 105.2115726  27.9841280  53.1639862  49.2663193  99.3861103  64.2472076
  48.9855814  98.5960197  63.7855053  50.1179886  99.5972061  63.8646793
  83.6632061  21.9464493  74.4288635  84.2479992  21.7305064  73.7024927
  83.8158131  21.2549758  75.0729179  74.3017387  35.5446768  83.9887428
  74.6707726  36.3908172  84.2419052  73.8615179  35.2295518  84.7781372
 100.2531052  36.8699670  59.5101213 101.1001110  37.2873831  59.6668816
 100.3325367  36.0069466  59.9164677 106.5089035  40.8009386  82.3538113
 106.4407539  40.0532341  82.9475498 107.1422672  40.5240536  81.6916847
  79.1773796  18.7204731  58.3875465  79.8168707  18.0090439  58.3536339
  79.5857906  19.3832982  58.9444065 100.7112026  15.2630985  62.1628952
 101.4024258  15.8669996  62.4344683 100.2044392  15.7543015  61.5162611
  88.2472801  27.3632550  66.4536476  88.9489269  27.8634691  66.8704414
  87.6378345  27.1669292  67.1651649 100.1468754   3.4200448  61.9344139
  99.6587944   4.1116771  62.3812437 100.3780842   3.7994677  61.0865831
 109.3610287  14.1928256  23.8225198 109.3832493  15.1140368  24.0815735
 108.7236500  14.1599393  23.1091499  84.2515087  38.2877231  62.8906631
  84.3023396  37.9230976  63.7742329  85.0375080  37.9624677  62.4517488
   1.8521014  20.6499553  37.7528906   1.4153053  21.1368942  38.4516954
   1.3610554  20.8733726  36.9622016  80.8023071  16.9599736  45.8492661
  81.0072994  16.7217481  46.7534018  81.5717697  16.6873729  45.3494120
  53.9858580 109.9412632  80.0309849  53.8879251 109.0764332  80.4293633
  54.6814489 109.8291302  79.3830585  87.9499912  27.8780890  74.3647051
  88.0453110  27.3517823  75.1585245  88.6352444  28.5427761  74.4343042
  84.4695377  26.3424993  65.9621525  85.0061989  27.0391774  65.5841827
  84.0569592  26.7456555  66.7260122  97.5055695  29.4033408  43.8030910
  97.9300976  29.6484184  44.6252489  97.5113106  30.2062130  43.2819414
 117.3696232  26.4353228  75.8478355 117.6718235  27.0522165  75.1812410
 116.4147568  26.4693952  75.7904100  81.4162731  24.2224288  42.3425341
  82.2228909  23.7070704  42.3455238  81.2277317  24.3775630  43.2680702
  91.1392879  17.6917720  57.9543400  92.0237160  17.9546034  57.6995230
  90.7180309  18.5054708  58.2312393  97.6503277  45.5371523  57.7033997
  98.3518410  46.0616875  58.0893707  97.1381760  46.1623955  57.1905565
   8.0524546  25.4219532  76.3507605   7.9424751  25.9384084  75.5523777
   8.8039654  25.8188510  76.7911386  44.9387789 100.4516602  57.8231478
  45.7806206 100.9069729  57.8081656  45.0764275  99.6757507  57.2797823
 105.0022697  22.5928783  77.7066135 104.9415493  22.6321101  78.6610794
 104.2031002  22.1419978  77.4341059  44.6068048  18.7188280  69.6928740
  44.2483616  18.8118577  68.8102055  45.0438404  19.5532513  69.8630762
  92.2443581  12.2497666  83.3071899  91.9673729  12.9262018  82.6891708
  91.4656448  12.0747352  83.8355827 103.2648373  14.9229765  55.4639101
 102.6346207  14.5010281  54.8799419 102.9656696  14.6949697  56.3441086
  91.4530563  25.0071955  55.0965643  91.6107845  25.9138894  54.8333883
  91.6134262  24.4961762  54.3032312  74.2870665  23.2045078  22.3834968
  73.6215878  23.8874197  22.4671602  73.9076519  22.5740719  21.7712641
  87.5422668  36.2028265  51.7443657  87.6381493  36.3387036  52.6870108
  86.9227123  35.4771066  51.6687822  67.7816391 103.6255932  56.7493248
  68.0260754 103.7271881  57.6691961  68.0214596 102.7238274  56.5359545
  66.5321732 107.9773808  43.2831812  65.6565905 107.8930664  42.9057169
  67.0919752 107.4550629  42.7086830  72.7084112  15.8066523  59.8750544
  73.1057882  14.9359000  59.8858356  73.4438562  16.4038777  59.7383976
 105.2495098  48.4578419  39.4691944 105.6557751  47.6618958  39.8121786
 104.8218632  48.1787300  38.6595964  95.8789825  37.9924560  41.7244577
  96.5579414  37.7512383  41.0943270  96.3612366  38.3380556  42.4756098
   5.2450830  48.4350491  24.6808839   5.7376420  47.6663542  24.3932581
   5.1654363  48.3276129  25.6286955  73.5391665  27.3100710  50.7924557
  74.0442848  28.1103849  50.6489849  74.1142845  26.7550397  51.3191557
  81.1639690  35.7573462  60.1731253  80.2806568  35.7314754  59.8052454
  81.3133430  36.6815257  60.3726578  89.8812675  32.6096082  47.4354935
  90.1055336  33.3266664  48.0285883  90.1116180  31.8169689  47.9201508
  68.9583492  35.9408545  74.7787714  69.1770601  35.1874113  75.3271484
  68.9110613  35.5854511  73.8912535 110.6528664  21.4682603  57.9417610
 110.6248951  20.5500674  58.2107782 110.2664375  21.4731407  57.0660400
  47.1280622  84.2065620  50.1045561  47.9290724  84.1014671  49.5911646
  46.4439487  84.3587589  49.4525862  81.6189289  32.5361466  48.1937313
  81.0874844  33.0122399  48.8318062  81.5191555  33.0322075  47.3812008
  73.4088230  14.2820549  48.8709545  72.8896999  13.8388371  48.1999111
  72.9265404  15.0885880  49.0529966  85.2769279  35.8007145  90.4705143
  85.4942036  36.5138030  89.8700714  84.5829487  36.1574769  91.0249043
  92.0528412  21.0411215  59.6565008  91.2435150  21.4216900  59.3153381
  92.7487087  21.5755415  59.2738771  72.8483295   4.1816658  54.0294409
  73.2844019   4.8706326  53.5280418  72.0910931   4.6148586  54.4233513
  78.8330221  20.4161239  55.2044010  79.7600698  20.4660344  55.4374743
  78.3702850  20.5980992  56.0223198  79.2981482  32.6643515  53.3587599
  79.0389013  32.8513813  52.4565172  80.2074051  32.9586124  53.4125948
  10.8162808  76.9226313  43.0265856  11.2717342  77.6461601  42.5961208
   9.8916584  77.0689869  42.8268671  81.0026073  42.0182657  71.9347239
  81.8459988  42.3030186  72.2866154  81.1608887  41.1262703  71.6256523
  83.9330006  11.7345822  76.2375784  83.5896111  12.0325983  75.3952599
  84.8344898  11.4732671  76.0497952  38.5676193 103.5642624  81.6240692
  37.6790571 103.7291336  81.3086224  38.6145139 102.6132011  81.7216587
 102.4444199  53.8304424  76.0199594 102.6436996  53.8942099  76.9540119
 103.0226707  53.1387615  75.6983566  92.3676491  36.3871884  58.3392525
  92.3298168  35.4308367  58.3532429  91.4636517  36.6648412  58.4873724
  96.7189026  60.7406282  72.0215034  96.4134693  60.2619267  71.2509251
  97.2998905  61.4151192  71.6697264  92.3867130  61.8477774  71.9860220
  92.6354790  61.2420845  71.2878227  91.7654324  61.3540936  72.5212955
 111.0306358  55.7543707  63.4359074 110.2017117  55.2817249  63.3603048
 111.5158558  55.2804136  64.1113091  69.2782021  33.4165645  81.1296463
  68.8322306  33.7624693  81.9027519  69.3303013  32.4735093  81.2851048
  49.2118168  10.9564447  58.6355019  49.6781778  11.6003335  59.1685581
  49.8765802  10.3057694  58.4097910  90.8497906  29.8827100  95.5880070
  89.9632549  29.5856357  95.3830051  91.4125538  29.1522050  95.3312969
  88.1635750   0.3021381  83.6492157  88.5746706   1.1604069  83.5461807
  87.9427135   0.2524612  84.5792580  80.6503582   6.0252035  54.8672533
  80.4905701   6.6589731  54.1679430  79.8630619   6.0641485  55.4102802
  90.7693672   7.2424763  75.0857830  90.5690575   7.0724314  74.1653538
  91.0400105   8.1603891  75.1063871  47.8625441  99.0575123  34.8349881
  48.2797480  98.7679195  34.0236235  48.5755539  99.0893078  35.4728293
  96.9506168  38.7056088  57.0858192  96.0481739  38.7526894  56.7702198
  96.9851208  37.8942800  57.5925589  63.1500292  20.6405210  28.0839729
  63.9126492  20.9968519  28.5396838  62.5102806  21.3524437  28.0948186
   3.0536595   9.4843143  63.7014437   2.8249094   9.4970936  62.7720690
   2.4703602  10.1298308  64.1005707  76.3404894  18.6591458  44.5354366
  75.8852911  19.3542361  45.0106955  76.9873524  19.1188788  44.0002298
  28.0866051  84.4209671  26.3065076  28.6963606  84.3315125  27.0389175
  27.8113341  85.3372955  26.3345695 104.0495110  47.0087576  91.2148380
 103.3321095  46.8237066  90.6087780 104.3216515  46.1482430  91.5337276
  80.0675678  34.0860415  68.5806990  80.8583641  33.5833645  68.7761164
  79.3720388  33.4300303  68.5346508 101.6659164  31.0752439  37.2640324
 102.3889828  30.5185366  37.5529552 102.0921803  31.8292856  36.8566585
  92.0286274  10.4574251  68.7004805  92.1560955  11.2201011  69.2646694
  92.7207661  10.5274987  68.0430126  74.5294476   5.9614819  52.1297121
  74.3916035   5.9741324  51.1825752  75.4731464   5.8388251  52.2327852
  85.7512951  29.5684075  73.7465763  86.5272713  29.8530650  74.2293406
  85.4094315  28.8328838  74.2548752  79.2011118  19.2569745  52.5238943
  79.1743040  19.6801138  53.3820724  79.8039579  18.5222483  52.6378489
  78.2173681  37.9420948  79.8032761  77.3356771  37.6265073  79.6051359
  78.5154200  38.3471870  78.9888430  97.7962589  52.4566221  65.0867414
  96.8414688  52.4676085  65.1537085  97.9694748  52.2859526  64.1609430
  56.8706083  20.1623487  63.1321144  57.1971560  19.7796309  62.3177910
  57.4233866  19.7813356  63.8143873  87.3086357  11.9506431  57.1098137
  86.6062832  11.8357682  56.4697075  88.0286121  11.4168370  56.7737770
  99.3976307  34.7679949  72.7196884  99.2510700  35.6895518  72.5064182
  99.8974133  34.4270444  71.9779301  93.8205910  12.8630018  63.2197857
  93.6630535  13.2498264  62.3585176  93.0476856  12.3230004  63.3848190
  82.4485970  39.0439057  51.2661648  83.3903790  39.2138362  51.2458563
  82.3678112  38.1942940  51.6996002  71.0114908   6.0066468  47.0804358
  70.4573870   5.2265394  47.0552731  71.3349152   6.0417712  47.9806566
 100.2617359  72.1780014   4.1330984  99.3132496  72.1806192   4.2619127
 100.5033207  71.2519598   4.1509667  33.9835000 108.3813190  86.2359047
  33.9258718 107.4512291  86.4546490  33.1846857 108.5606670  85.7399559
  80.8689404  18.5175478  10.1148999  80.7749271  18.5157299  11.0674691
  81.2141323  17.6493871   9.9066359  81.9138145  38.4876323  60.5452061
  82.4156857  38.9513111  59.8748636  81.2277603  39.1044855  60.8002567
 116.3334274  19.1557789  56.8345308 116.7269516  18.6700952  57.5594330
 115.4848003  19.4430792  57.1714497  49.2859650  24.8757434  70.0132418
  49.2707682  25.6969786  70.5047464  48.5421801  24.9412727  69.4143105
  71.9749689  13.4633076  46.6914606  71.5767241  14.3256831  46.5733862
  71.2663221  12.8455508  46.5113783  78.3223581   2.3674785  75.8543777
  79.2785120   2.3318139  75.8813763  78.0529976   1.4611831  75.7050276
  84.2069435   1.1043348  57.4265099  83.8269806   0.2530526  57.6437092
  83.4557533   1.6951065  57.3723030 107.7383137  17.6727915  74.5963955
 108.6035156  17.2810078  74.7153950 107.2425652  17.3973811  75.3675079
  33.5362959 109.5467567  75.2705193  32.8569913 109.8925877  74.6915770
  33.5178971 110.1246929  76.0333347  92.5561333  41.6673803  89.4936657
  93.2183075  42.1266270  88.9771080  92.2222900  42.3298883  90.0985336
  82.0641232  38.2141900  57.3198414  81.7325020  38.8191986  56.6563463
  83.0136395  38.3334422  57.2995472  91.8956280   7.5724196  38.7212229
  91.0373402   7.3169231  38.3831334  91.7018223   8.0675089  39.5171857
  71.1484289   3.2723919  64.5121098  70.7417631   3.8649225  63.8798428
  71.2049341   3.7848374  65.3186083  65.3679228  16.6855466  56.7612410
  65.8287477  16.8876123  55.9469652  65.4045010  15.7312870  56.8266869
  82.0465565  28.5143805  64.9111891  81.3921928  28.4764242  64.2136240
  81.5408421  28.6899948  65.7046890  79.5600271   6.0269535  47.0952415
  79.9342346   5.7071304  47.9161644  80.3118324   6.3520139  46.5999079
  97.6701927  27.1091485  85.1401520  97.0674229  26.8941617  85.8519554
  98.5285187  27.1611834  85.5606270   9.8767996  60.5431747   0.8275378
  10.1259136  61.1851311   1.4924181   8.9296216  60.6474543   0.7369214
  17.6513886  46.4993668  73.8565874  18.3019328  46.0340118  73.3307838
  17.5033379  45.9310246  74.6124315  94.4084883 109.4238826  82.8950119
  94.8441804 109.6589916  82.0757866  94.2319918 110.2623773  83.3216286
  71.1714602   8.1626832  57.2099686  71.1698246   9.1194457  57.1810675
  70.2879190   7.9301792  57.4955130  79.7387981  10.2400506  51.1957979
  79.8768282   9.4547975  51.7254734  78.8008261  10.4164076  51.2688446
  46.9049358 108.7953854  83.0256081  46.5645075 107.9730892  82.6732254
  46.9378185 109.3838024  82.2713470  82.7865219   9.9706721  23.2118845
  83.3404636   9.9731266  23.9925051  82.4096775  10.8500922  23.1828451
  18.6369956  21.7510176  37.3481178  18.3049691  22.6295185  37.5331259
  17.8740442  21.1812115  37.4453735  86.2162018  18.3306766  27.1757007
  85.3116512  18.4416831  27.4684334  86.7075729  18.9949083  27.6590037
 100.1212597  49.1199732  52.9648829  99.2143631  48.8492966  52.8216934
 100.1140976  49.5346117  53.8275814 106.3829041  38.4975004  31.6863251
 106.6287804  39.1618562  31.0425758 106.7198181  38.8328004  32.5171685
  87.8301239   7.7232987  51.1640310  87.7186203   7.9744190  50.2471113
  88.4645081   8.3516139  51.5089989  79.0993786  28.5308337  70.0739336
  79.8718882  28.5319805  69.5087337  79.2050362  27.7534914  70.6223917
  79.4673824  26.0422516  71.2280178  79.1938496  25.2952909  70.6956100
  78.8721037  26.0329247  71.9775438  31.7684793  94.4809723  51.7437696
  32.6354027  94.6675682  51.3834095  31.9215941  93.7942028  52.3927069
 108.9245224  61.4160585  68.5810328 108.3512688  62.1377516  68.3226395
 108.8017273  61.3396263  69.5272398  85.4469967  21.0496736  54.5836401
  86.2384319  21.4989495  54.8803234  84.7612762  21.7158079  54.6313810
  83.3768845  18.3985031  57.5718355  83.2446384  19.3464994  57.5652552
  84.0257740  18.2424283  56.8856716  84.7930431  22.8345609  79.7418118
  85.2748775  23.1691051  78.9854097  84.0160656  22.4200892  79.3666410
  85.6059170   9.9941832  83.2148266  86.5472984  10.1461935  83.2979965
  85.5320740   9.0670353  82.9886055  76.1241198  52.0780659  73.5603428
  76.2630701  51.2968111  73.0250216  76.9337845  52.1715975  74.0622616
  89.2447376  37.0238090  66.6089439  89.0771389  37.9295301  66.3485432
  89.0578365  36.5101743  65.8231449  94.8460865  23.8901520  60.1258659
  95.5548477  24.4839191  60.3735304  94.2876625  23.8468432  60.9020853
  96.1366749  45.2128983  74.9285364  96.6861343  45.0055790  74.1726637
  95.2821636  45.4244423  74.5526505 117.5920773   4.8377335  51.2100649
 118.1596470   4.3100941  51.7719364 117.8714085   5.7397336  51.3669205
   1.6398492   7.9087597  56.3810730   1.5705146   8.7965888  56.7320442
   2.2734624   7.9821581  55.6673622  77.4592161 108.7764740  93.1368828
  77.6540375 108.2937241  92.3336220  78.0143976 108.3691120  93.8017654
  62.5077391  67.3814392  94.3234825  62.5915432  68.0245972  95.0274467
  63.2718325  66.8139648  94.4253159  98.6689186  39.6773505  69.0121841
  99.4146824  39.9788785  68.4933901  98.3000946  40.4765129  69.3883991
  87.3280811  15.9958851  28.1392407  87.4223518  16.1879027  29.0722322
  86.8139172  16.7262745  27.7951479  93.5801506   1.3549469  84.5103073
  92.6980114   1.7264450  84.5036316  93.4664059   0.4618702  84.1851807
  69.1848755  19.3011081  44.8270559  68.6337709  19.5351636  44.0802383
  69.5973444  18.4761274  44.5711136  83.8727665  40.6210852  70.8905935
  84.6303654  41.1084223  71.2142706  83.7373543  40.9511137  70.0023460
  14.8351133  36.2559295  73.4332800  14.5029712  35.5115223  73.9350462
  14.5511615  36.0852766  72.5352335  89.6422195  44.7733212  59.1974163
  90.2128601  45.1313305  58.5173893  89.4090080  45.5289888  59.7366858
 110.1816940  34.0882421  85.5648994 110.3844833  34.8988748  86.0317802
 110.7892895  33.4440804  85.9283829 112.5201702  30.5743527  63.0929804
 111.8207073  30.4909635  62.4448824 113.2667923  30.9110880  62.5976038
  45.7042074  21.6123414  69.1589880  45.5623436  22.4977326  68.8240433
  45.6904554  21.7113304  70.1109552 106.9619274  28.1436276  56.3662386
 106.3987160  27.6315761  56.9466066 107.4520111  28.7185407  56.9540501
 112.7140236  72.7121401  39.0641093 113.5433483  72.8765965  38.6153293
 112.8378010  73.0807495  39.9387741 101.0820389  50.4011250  55.4483032
 100.9181404  49.7081661  56.0879707 100.5229378  51.1249161  55.7307291
 113.7955856  33.4809351  48.5398769 113.5112000  34.1768646  49.1323614
 113.1035519  33.4300470  47.8805351  99.0687656  34.1056204  37.9747915
  99.1298676  34.4030547  38.8825536  99.3127537  34.8713946  37.4548984
  66.1865807  18.7398517  80.4995251  66.0150194  19.4809568  81.0805321
  65.7781744  17.9928958  80.9371281 117.8840923  56.2451410  72.6067924
 117.1490669  56.2078667  73.2188320 118.0460262  57.1804714  72.4836540
 100.0513649  31.9852686  63.8784409  99.3274689  31.6311288  64.3949604
 100.3211308  32.7720833  64.3521261  40.9486485 109.8966312  74.7713709
  41.6639709 109.7886181  75.3981733  40.1607895 109.9440575  75.3129101
  82.3174572  59.0716648  62.1721983  82.5123787  58.1505871  62.3449802
  81.3653374  59.1334772  62.2489119  40.4663849 110.6514072  47.9288435
  40.4926300 110.7074642  48.8840389  39.8231483 109.9663448  47.7467060
  43.4195232 111.0196781  61.2076235  44.2683744 111.4506626  61.1079407
  42.9625273 111.5405464  61.8679905 113.7388039  20.2263331  43.6243916
 113.5152245  19.6995032  42.8571272 112.8994179  20.5663919  43.9342880
  66.7411232  31.7773509  82.4962521  66.0095930  32.2483706  82.0972061
  67.3065186  32.4656320  82.8467274 113.5062695  56.1552000  21.7825007
 113.3492470  56.6065741  20.9531426 112.6353741  56.0461092  22.1644425
 100.1500416  52.3886967  74.3230534  99.5814419  51.7299080  74.7217083
 100.5264282  52.8611708  75.0655699  11.2231183  27.9894185  37.8926659
  11.5716720  28.8694906  37.7504778  11.9592226  27.4957943  38.2542133
  97.9354763  19.4895768  74.6839762  98.5684586  20.0863147  75.0833035
  97.6534176  19.9380541  73.8867664  96.8210125  14.9767733  69.1145420
  95.9863472  14.9408472  69.5817423  96.6199017  14.6460021  68.2391119
 102.9579163  15.5270457  59.4018507 103.4863758  15.9962142  60.0474834
 102.4624062  16.2127447  58.9540529  96.9533443  61.2957382  59.2930794
  96.9254112  60.4919577  59.8121119  97.3347473  61.0278368  58.4570217
 115.1032734  49.9212503  31.2987733 114.9212551  49.2929506  31.9975853
 114.2449093  50.2740669  31.0643387 114.1289234  69.8585892  53.0493641
 114.9158955  69.6753168  52.5362158 114.2253971  69.3216276  53.8358688
 101.3221169  54.5254135  69.1832590 101.3166618  53.6790323  69.6302891
 101.7009830  55.1305723  69.8208141  99.3426418  16.1925936  83.0945492
  98.7161732  16.2182724  83.8177967 100.1553249  16.5320539  83.4694481
  77.7848625  30.7314730  63.5033607  78.2566118  31.4861917  63.8556194
  77.5018120  31.0109854  62.6327372 112.3990536  72.9282570  56.6743755
 112.0609474  72.7169418  55.8041668 112.0512199  73.8002253  56.8612289
  16.8224096  27.6311898  66.4392900  17.4497080  28.0848837  67.0022202
  16.0698044  28.2210064  66.3953257 116.6706497  60.4208851  68.7905550
 116.3680235  60.5402708  67.8903341 116.4642254  61.2487650  69.2244148
  13.0651009  78.8537359  13.1669760  12.9858851  78.9217997  12.2154903
  12.1634030  78.8928413  13.4857941  94.9065685  67.8959179  73.3642387
  94.2141247  67.6801157  72.7395916  95.5659771  67.2140598  73.2358456
  80.5918407  46.5153933  66.8015480  80.2874851  46.6553736  67.6982117
  80.5782032  47.3865843  66.4052343  87.9641724  65.9022760  64.3598795
  87.1461868  66.0523129  64.8338270  87.6898575  65.5400515  63.5173941
   6.4055765  44.0614080  61.0368490   6.1145014  43.1749153  61.2504721
   6.6657537  44.4372559  61.8778467  90.1106453  19.0079021  71.9334030
  90.8908176  19.0676904  72.4847555  90.3229618  18.3312535  71.2905216
   4.0789926  42.6902056  64.4112730   3.2873222  42.8698921  63.9041185
   3.7806946  42.1363878  65.1327562  87.0535088  22.8316641  68.1995440
  86.1174202  22.8148603  68.3987904  87.3596764  21.9502306  68.4130049
  93.1875420  16.5360093  76.4625931  93.2266617  15.6017363  76.2580585
  93.4445477  16.5906525  77.3830271  79.5728493  37.4435997  72.4205351
  79.6468306  38.3977365  72.4400949  80.3159904  37.1350694  72.9389811
  81.0771561  22.4895644  65.4909420  80.9829140  22.4947190  66.4434767
  80.4590893  23.1535935  65.1855135 115.0881863  44.9083042  70.1467896
 115.2519417  44.8822784  69.2040634 115.9010315  44.5905972  70.5399513
 108.9573479  22.3822212  29.3920732 108.5335636  22.8422070  28.6674690
 108.7354946  22.8992820  30.1664519  10.1699972  44.9755383  91.0563469
  10.8189178  45.0598812  90.3577614   9.5377982  45.6726456  90.8814335
 113.6221027  30.2304792  38.9586329 112.7920818  30.0743127  39.4091010
 113.8567734  31.1282897  39.1933537 108.3000374  40.0998354  63.8197422
 107.8096676  40.1043510  62.9977036 108.8506699  39.3187189  63.7658787
  89.4075394  54.4841719  86.4412975  88.5743141  54.5314121  85.9725380
  89.7704029  55.3673935  86.3743973 104.7477818  24.4754982  59.1550255
 105.5098057  23.9519262  59.4028425 104.1774750  24.4469452  59.9232483
  90.2468491  66.3348818  45.9062099  90.9207916  66.7914057  46.4098167
  90.7355881  65.7505512  45.3266191  93.4907913  36.7503214  32.2504139
  94.1937351  37.2077417  31.7890429  93.1128025  36.1665845  31.5926838
 105.2612495  74.1139126  50.6761885 106.1624050  73.8631296  50.4730701
 104.9151134  73.3768129  51.1792850 107.1882153  37.5356722  51.4350557
 107.3846626  36.6787791  51.8136978 107.2714138  37.4049091  50.4904842
 108.9122963  29.2558527  36.5613341 108.4500122  29.3487716  35.7283282
 109.6752262  28.7166309  36.3530135 114.4214821  27.2828889  63.7253761
 113.6353683  27.5740790  64.1873932 114.9845886  28.0565071  63.6996937
  91.1093616  20.6412554  81.2305927  91.0194588  21.4422750  80.7143497
  91.5202236  20.0162148  80.6333160 115.8176899  22.5233221  43.3222151
 115.5541039  22.9994988  44.1096210 115.6057358  21.6095281  43.5127115
 110.7185459  40.5930233  48.2814932 110.8029366  41.5419769  48.3742189
 111.5612793  40.2476978  48.5760593  91.7281818  79.9641180  74.9661398
  92.0372581  80.8100510  75.2903414  91.7420578  80.0532436  74.0131998
  78.3850384  20.9571123  88.9051914  79.1981506  21.0902238  88.4179974
  78.1131935  20.0676274  88.6790371  62.8728962  41.8860245  95.6086159
  63.4336233  41.1936092  95.2587891  62.0411158  41.4500189  95.7937336
  69.8897314  42.6045656  70.0785065  70.4583025  41.8699503  70.3093815
  70.3519011  43.3768082  70.4045105  45.4239082  85.1710510   6.5873295
  45.6266594  85.9411049   6.0561550  45.8800602  84.4518471   6.1504102
  59.4179487  55.1364946  89.8445129  59.5219040  54.9571848  90.7789993
  59.7662592  56.0207033  89.7301006 100.7732773  23.7598157  57.1470928
 100.0625706  24.1168833  57.6796627 100.4980469  22.8645754  56.9495440
 108.0345631  58.8158417  68.4405756 108.7373066  58.2670641  68.7887430
 108.4565926  59.6538162  68.2510519  89.3910694  64.3399811  30.6790066
  89.9921036  63.5974455  30.6187391  89.6819782  64.9399519  29.9922466
 100.5168438  32.3471093  88.2437611 101.1278820  31.7253566  88.6390972
  99.7156525  31.8415117  88.1070137  81.9340038  42.3541260  66.1252260
  82.1541786  43.2852888  66.1514902  81.7961693  42.1666956  65.1967335
  95.7416630  32.4623990  75.4694033  95.7037544  32.9900360  74.6716595
  96.6712284  32.4379325  75.6964350  90.3812027  56.9586182  94.6734619
  90.6140709  56.7823315  95.5850124  91.2129211  56.9172239  94.2014790
  91.8536091  46.2609386  60.8256769  91.4985943  45.3726435  60.8594084
  92.7192402  46.1580658  60.4302883  39.0937114   2.0947005   4.8555502
  38.6770892   2.9557806   4.8209277  39.3125296   1.9714640   5.7792187
  84.9116325  56.3861990  67.3889494  84.0700340  56.2728453  66.9472647
  84.6825695  56.6979694  68.2644796  31.4083934  27.0910048  72.4525070
  31.7339921  26.4216208  73.0542898  32.1294618  27.2328472  71.8391752
  24.7370791  89.8647499   6.3644171  24.5804882  90.3824329   5.5746609
  25.4956722  90.2789211   6.7757893  64.1065121  40.3082275  81.5445423
  64.1126728  41.0751677  82.1172523  63.2275105  39.9424529  81.6435146
  95.1162624  46.6462994  57.0168734  94.8794365  46.2600517  57.8600550
  94.7756100  46.0311031  56.3674784  99.3646526  35.9493876  64.0442085
  98.9629936  35.4781580  63.3142471  98.7583065  35.8224201  64.7738981
 106.8606186  83.3892059  75.3035736 107.6023197  83.9910793  75.2414131
 106.1303520  83.9377785  75.5899191  84.4242287  17.1574819  46.8214750
  83.8197708  16.7302024  46.2145948  84.1556358  16.8462384  47.6858950
  18.6413610  71.0720396  38.8685679  18.9314747  70.1599789  38.8541913
  18.2827616  71.2231255  37.9940343   2.8348571  70.5373621  30.7114053
   3.7656283  70.7189322  30.8415198   2.7424723  69.6056557  30.9104395
 107.6900005  33.0419278  65.0363159 108.1257439  32.2030115  65.1865578
 106.7808342  32.8890848  65.2937937  79.2595530  11.8031538  66.8379068
  80.0159550  11.6065836  66.2852287  79.4657040  12.6499701  67.2336817
 111.4372730  28.7633967  55.7287407 111.5446663  28.1543946  54.9981117
 110.8548450  28.3078718  56.3366127  84.3081284  26.3059330  82.7739429
  85.0514221  25.7054043  82.8295994  83.9332294  26.1434460  81.9083309
   8.9124984  40.3825378  77.3956585   8.7552702  39.6431088  76.8085003
   9.8023176  40.2453136  77.7206564  90.3052235  56.2562990  13.7932110
  89.7044277  55.7068348  14.2965662  90.8668327  55.6349421  13.3298051
 106.1458015  73.9683819  30.9589219 106.2524223  74.7952986  31.4291024
 107.0380402  73.6413097  30.8442068  92.0959568  15.6152713  89.9460697
  91.3577175  15.0309098  90.1185989  92.6794910  15.4914176  90.6946564
  88.0788612  54.7492743  77.0417118  87.9015350  54.6718502  77.9791498
  88.9363194  55.1720715  76.9942713  53.6564016 110.0121117  71.1640358
  53.2671690 109.2377758  70.7576752  53.7219620 110.6487560  70.4522657
  20.5550456  63.1141186  65.8934069  21.0625529  62.6304197  65.2417135
  20.7337618  64.0346241  65.7011604 110.5582142  20.9051085  74.3025064
 109.9283981  20.6661153  74.9825382 110.5986786  21.8607688  74.3387127
 110.0661659  58.1579161  65.3076982 109.9165821  57.2551918  65.5886793
 110.6902695  58.5065889  65.9442091   1.1563098  35.9314108  69.3527985
   0.5016409  36.3675237  69.8981905   1.5984808  36.6448689  68.8926983
  30.1406813 109.0660095  56.7152977  30.8870411 109.1832733  57.3030281
  30.4031444 108.3519363  56.1343908 104.6125317  62.1171856  48.2915783
 105.5471897  61.9682217  48.4345961 104.1877556  61.3404036  48.6554623
  83.1618214  38.3046150  79.9134636  83.0220318  38.2843709  78.9667416
  82.4159241  37.8266644  80.2759838  97.5649929  39.7984171  61.0650349
  98.0562305  40.5576324  61.3788986  97.9825497  39.5695496  60.2346754
 108.4866142  27.2017026  38.1842899 108.4854507  26.6159749  37.4272180
 108.5225391  28.0806828  37.8070140  72.8470421  56.2942314  86.7325687
  72.8073406  56.9515944  87.4272060  73.5823631  56.5688086  86.1847115
 112.2737122  59.1452122   8.3356607 112.4762630  59.5697260   9.1693228
 111.3498306  58.9053202   8.4072846  11.7561424  67.0202065   4.3702269
  11.4182341  66.1494112   4.1610152  11.7923570  67.0396709   5.3265435
 100.0868511  46.5764856  78.8331985  99.3767929  46.3188267  78.2452631
 100.5988312  47.2080755  78.3280182  86.1188507  27.9827213  64.6122503
  86.8993187  27.8502750  65.1503611  86.2259769  27.3743224  63.8810825
 112.1532536  27.7416277  29.4184351 111.8826485  28.6386061  29.6144843
 111.8056107  27.5725508  28.5427690   3.3268958  52.1134233  59.2481232
   2.7823907  52.8841162  59.4086790   4.1804343  52.3423624  59.6159458
  99.0839005  51.0226440  84.7310257  99.6673775  51.5844727  84.2210007
  98.2359982  51.0977459  84.2932510  51.8802118  36.9155121  88.0717278
  51.0552549  37.1138859  88.5148239  52.5300026  36.8929505  88.7742233
  93.6759377  71.9510269  60.8562088  94.2535496  71.1964321  60.7413626
  93.9648724  72.5770569  60.1922512 106.3743782  41.8969107  27.7203846
 106.5692234  41.9289637  26.7837739 105.7487488  42.6079082  27.8593445
 107.5144672  80.1572323  75.2277708 106.8612480  80.6558609  74.7369480
 108.3251667  80.6549454  75.1215410 106.8208981  38.5664153  75.6790495
 105.9487629  38.1785631  75.7510328 106.8342781  39.2514873  76.3474274
  96.9418049  54.2575645  45.4412270  96.2082195  54.4453621  46.0267305
  97.0779037  53.3136225  45.5229473  38.6297464  68.1051445   1.7485143
  39.2042375  67.3469353   1.8548644  39.2149162  68.8599110   1.8128045
  27.5668812  42.9971600  79.4434166  28.1891847  42.2715855  79.3932915
  27.1014643  42.8569889  80.2680206  84.6555901  31.6868806  72.1119452
  85.1368141  31.0054159  72.5812674  85.3258801  32.3206425  71.8564129
  82.1777725  26.7260242  78.7654114  82.9600811  26.9822121  78.2769537
  81.9334984  27.5112057  79.2553663 115.7305527  62.9274750  30.1028872
 115.2430439  63.6602592  30.4791784 115.6746483  63.0631447  29.1569996
 101.6287804  62.2181082  73.4478569 101.5590763  61.3079309  73.7358713
 101.2977886  62.7290773  74.1864920  83.4556198   2.2108719   1.5731595
  84.3412209   2.5625408   1.6640623  82.9067421   2.8105664   2.0784645
   0.5351244  42.6672268  59.7233486   1.4219748  42.3116922  59.7809172
  -0.0233091  41.9770479  60.0811815  99.7676659  11.7267060  72.3449230
  99.9780941  11.1063027  73.0428123  99.8653412  12.5874448  72.7521372
  99.8685074  10.9474182  52.4106216 100.2704430  11.1660695  51.5698624
  99.0379620  11.4232492  52.4099970 103.7284946  25.2708817  62.1538401
 104.5724201  25.5622888  62.4989367 103.0801105  25.7401252  62.6788616
   8.1693357   3.3798510  69.2802048   8.9410329   3.1298885  69.7883749
   7.5097680   2.7247873  69.5084476  93.1833458  55.3317738  17.1309817
  93.4844398  54.7655773  16.4203525  92.7569485  54.7363567  17.7473354
 114.4777584  53.4614134  33.3521724 113.6170578  53.0428600  33.3366728
 114.6902084  53.6064148  32.4301791 100.9949970  15.0045145  44.1707087
 100.8210087  15.6745911  44.8317337 101.9425201  15.0381744  44.0391636
  94.1611385  18.6320329  48.0869532  94.5797920  18.1322896  47.3860836
  93.5246944  19.1880178  47.6374578  93.6975384  32.2241592  59.6475840
  92.8353977  32.6257634  59.7555494  93.7408638  31.5610933  60.3365660
  17.7835763  73.0150604  61.0212135  18.4745681  72.9275179  60.3646326
  17.2125208  72.2619295  60.8698177   5.4443264  52.9735947  56.7235088
   5.8369750  53.0339146  57.5943804   5.1505291  53.8640261  56.5310431
 107.3627949  42.8255463  37.4863505 106.9253063  42.9179430  36.6400051
 107.9074001  43.6091471  37.5612664  85.0215340   9.9265838  51.8335342
  85.8559322  10.3446651  51.6208839  84.3755531  10.4015207  51.3106871
 109.4795322  53.1759357  55.0695944 110.3905582  53.1230307  54.7806978
 109.4096947  52.5198412  55.7630634  90.3844738  28.0273628  54.1904259
  90.0494289  28.8627362  53.8646603  90.0364780  27.9600859  55.0795841
  23.0646300  22.6774621  73.6891508  23.1131721  23.0923438  74.5503998
  22.9637265  21.7445278  73.8780546   1.0811634  64.4776964  43.2905626
   1.6958210  64.0014601  42.7323294   0.2393401  64.0471172  43.1416750
  99.7192383  29.1656995  80.9700489  98.8756943  29.6162391  80.9290218
  99.5063305  28.2867789  81.2837315 111.4928341  31.7511773  35.4901075
 111.8649864  31.3146281  34.7238445 110.6381989  32.0655394  35.1951337
  78.9075518  41.9694281  65.0168419  79.2889595  42.1042252  64.1493177
  79.4734573  41.3162994  65.4284286  92.2594166  19.1460872  39.7890449
  91.7392921  19.1027498  40.5914354  91.6802406  19.5618474  39.1503477
  96.4052582  35.6208920  43.9728689  96.1501408  35.5286360  44.8908234
  96.7568111  36.5089774  43.9100695  65.3437376  51.4602280  72.6726532
  64.7580099  51.3399363  71.9252014  65.0083447  52.2389507  73.1168747
  14.3938887  40.7642269  67.9203081  14.3417645  40.7092953  66.9661045
  15.0713599  40.1319075  68.1599617  86.5000820  14.6961081  81.5561008
  86.7747784  15.0224078  82.4130154  87.2050571  14.1072857  81.2867832
  11.1069918  57.8104925  41.8102694  10.3244114  57.5364923  42.2885227
  11.5473390  58.4211969  42.4013424  93.9340878  54.7491837  55.9168100
  93.7302971  55.6729603  55.7707310  94.4418049  54.4913435  55.1474094
  82.7080631  79.4263411  31.4973402  82.1991158  80.2073860  31.2801576
  83.4044838  79.7461081  32.0709038  98.0273914  43.3457470  59.3902493
  97.8383446  44.2057323  59.0148544  97.6125431  43.3644342  60.2526808
  92.3712254  30.6925178  80.6317711  91.6279602  30.5702305  81.2224007
  92.4678898  29.8486066  80.1905251 107.8508854  35.3408265  52.9454279
 107.3312378  34.7614169  53.5026407 108.0456734  36.0957932  53.5006905
 103.7036133  62.6813602  62.7172136 103.0641556  62.2144032  63.2550621
 104.1342831  63.2825422  63.3249426  68.4897852  45.9658480  88.3037853
  68.2275295  46.6516018  87.6896191  68.7128925  46.4362383  89.1070175
 102.5243378  16.6491961  45.9615660 103.3748627  16.2970352  45.6992149
 102.6383114  17.5990593  45.9299040   2.7593717  27.7502537  66.4233255
   3.1326255  28.2147980  67.1723986   2.3846096  28.4403610  65.8760262
  55.9021711 100.7521152   2.6347685  56.5608978 100.6843090   1.9436020
  55.2972221 101.4256096   2.3238449 115.8713055  47.0627832  73.4462357
 115.8593369  48.0177736  73.3823967 114.9558735  46.8041325  73.3398056
 113.0128860  59.8487568  50.0693464 113.4564400  59.2862558  50.7042360
 113.6969280  60.4390717  49.7533607 100.7281876  23.5637164  85.1756382
 100.2625084  24.3250251  84.8295403 100.7141113  23.6855388  86.1249542
  91.1595249  73.3048677  45.1120806  91.6088676  72.4815464  44.9211073
  90.3554726  73.0407667  45.5592918  17.7351475  89.1084671  65.4609632
  17.0471156  88.4970951  65.1981640  18.1381869  88.7004566  66.2273312
 108.2836533  61.4292049  71.2825871 108.8331413  62.1845102  71.4918804
 108.5788822  60.7445574  71.8828678   5.0274295  81.8239784  71.4977407
   4.2417356  82.1339512  71.0473728   4.8190674  80.9248352  71.7514372
   2.2280718  51.3942862  76.8009329   1.4450446  51.6788483  76.3296318
   2.5456104  50.6400490  76.3044214  93.5394669  51.0179329  70.9274387
  93.5601616  50.0812960  70.7311726  92.7513790  51.3373756  70.4879951
 104.8360729  54.5672607  91.9008446 103.9610863  54.8239994  92.1918964
 104.7555161  54.4760275  90.9514141  14.6445656  85.1392746  24.8450637
  15.0563145  85.1783752  25.7082939  14.2649364  84.2617130  24.8003030
   2.1768278  47.9790258  72.8138113   2.6924115  47.2220945  73.0921268
   1.3608117  47.6042080  72.4823570  93.2366562  55.9360743  37.1573687
  92.5765038  56.5868330  36.9187427  93.4953785  55.5409384  36.3248062
  97.9415512  20.0714135  68.8536406  97.9842663  21.0096359  68.6688519
  98.3294964  19.6575391  68.0826473  83.4639263  69.4889641  55.3863001
  83.3520222  68.7760830  56.0151958  84.4111919  69.6165991  55.3349972
  15.8006513  52.0689821  15.1742339  15.5761850  51.1480284  15.0412285
  16.0670567  52.3780394  14.3083560   3.3834052  75.8835649  64.1906500
   2.8422192  76.6708422  64.1310787   2.9809016  75.2692223  63.5768080
  94.9987698  51.3749313  46.8256712  95.2078342  52.0839643  47.4337816
  94.0646553  51.4812803  46.6458130  10.4053092  62.5534296  17.9553258
  10.9862268  62.5846291  18.7154531  10.8903170  62.0468998  17.3038459
   1.9519021  46.7199326  63.2759953   1.8913744  47.6709461  63.1857347
   1.2268955  46.3827753  62.7497625  95.3906918  65.9435129  77.3264408
  95.4970074  64.9926519  77.3545837  96.0220718  66.2357616  76.6690350
 110.4464436  73.1364918  69.1288996 110.1191711  73.8499308  69.6767426
 111.3458729  73.3884239  68.9196301  33.6613512  41.6568470  58.4659243
  32.9426050  41.0255527  58.4327126  33.4688592  42.2761965  57.7619457
  76.1655951  64.9409723  81.2898922  75.8750343  65.7176924  81.7679214
  75.9610319  64.2102194  81.8733215  49.2309666  97.4116325   0.3766722
  49.3397093  98.3203316   0.6571604  48.3119392  97.2137165   0.5568124
  95.6297970  84.9435329  59.8283529  94.8571014  85.4846573  59.9907160
  95.2787590  84.1208935  59.4873714  84.3188667  28.4957218  84.1942310
  84.2499065  27.6688075  83.7170601  84.1825771  29.1689968  83.5276222
 117.4781799  31.5282083  75.1493406 116.6059113  31.8717265  75.3426790
 118.0712605  32.2506309  75.3557158  84.2291260  93.9475441  15.0182354
  84.9714088  94.1362476  15.5923748  83.6136055  94.6625900  15.1796865
  94.9337482  63.8567877  54.8120546  94.4069672  64.5955658  54.5071840
  95.6139088  64.2554569  55.3548908 106.4992809  53.2193613  48.4761047
 106.4988422  53.4198523  49.4120741 107.1304607  52.5056219  48.3843470
  79.1752815  68.3286142  33.5198712  79.1385269  69.0834618  32.9324269
  78.4553862  68.4685612  34.1350079  44.8022413  98.9489841  65.2566910
  45.5855513  99.2008686  64.7676039  44.0775442  99.1305161  64.6582794
  61.4186382  68.4938431  22.2122240  62.2086000  68.4649897  21.6724515
  61.0642910  67.6058578  22.1658373  -0.2508902  59.4279957  44.5597029
  -0.0724661  59.3520641  43.6223507   0.5114013  59.0314770  44.9815083
  95.1758671  85.9008598  24.5655370  94.7865200  85.0580120  24.7984433
  95.4835606  85.7824230  23.6669111  95.2770138  48.2303333  54.6894503
  95.3281307  47.5788832  55.3889036  95.6105995  49.0348387  55.0865936
  13.6172450  50.6010342  61.5647936  13.9535117  49.7437048  61.8258286
  14.0750325  50.7992697  60.7478714 109.9005318  16.2939858  21.4526868
 110.0476933  16.3348949  20.5077505 110.7712746  16.1542749  21.8248653
  11.8644476  75.6818676  64.6600533  12.4236405  76.4483881  64.7864580
  12.4564838  75.0049400  64.3321848 113.4742832  66.6935587  49.3589020
 113.1031418  66.6432428  50.2397871 113.7740803  67.5988722  49.2766666
   4.3290028 102.8994465  14.2025387   4.0640607 103.7655544  13.8928699
   4.0247700 102.8659534  15.1094854  91.6103840  51.3304758  66.1278105
  91.4537334  51.4297247  65.1887465  91.7347050  50.3895140  66.2517595
  54.6525049 101.9341469  10.6787157  54.1373968 101.8563557   9.8756951
  55.2745152 101.2078762  10.6355715  87.3978710  60.3668261  27.8970814
  87.3180580  60.4743385  28.8448691  88.1658173  59.8068523  27.7833843
  80.2951527  89.7248554  37.5811529  79.9617624  90.5656052  37.2677374
  79.7643185  89.0717220  37.1252346 109.2332077  30.4094672  65.8090544
 109.8064423  31.0375237  66.2485695 108.6144924  30.1353931  66.4860344
   0.4345519  81.5386105  63.0937815   0.4235992  82.3861027  63.5385942
   1.2868731  81.5071583  62.6592779  84.7914410  28.8999391  50.7387590
  84.6951675  28.7314653  51.6760826  84.6972084  29.8488045  50.6550360
  87.7635479  88.5996628  58.2106400  88.3197975  88.1771946  57.5561762
  86.8758965  88.5114098  57.8634644 109.0477848  38.0319738  72.4080372
 109.5918560  37.9180002  71.6287899 108.2372856  38.4210324  72.0794535
 114.4509792  65.7140923  44.4440031 113.8198566  65.8495712  43.7372112
 113.9374924  65.8126354  45.2457809  79.8895025  53.4294415  88.7621307
  79.7919416  53.9854717  87.9891205  79.6769667  52.5490713  88.4522820
  91.6302872  63.3974886  60.9213972  91.9465828  64.1693592  61.3908625
  90.7775116  63.2110500  61.3141346  18.8552892  57.4114180  33.3955383
  18.5023046  56.8159580  32.7344298  18.2879043  57.2879219  34.1564941
  11.3758802  75.9611511  60.5248880  11.5153217  76.6337681  61.1915016
  11.4586902  75.1335669  60.9986877  93.3722878  10.5062902   2.6431191
  93.5900402  11.4188445   2.4532185  93.9728642   9.9982589   2.0977347
  92.8162289  25.9449625  68.2282591  93.3691311  25.1736736  68.1031942
  93.0391121  26.5206027  67.4966860   5.2355456  47.5706196  53.6315918
   5.5314606  48.3043146  54.1704416   5.5871302  46.7951488  54.0689325
  98.9681911  44.5927382  18.1468475  99.0434456  44.7653961  17.2083592
  98.2050419  44.0202141  18.2246101  92.1805954  44.5101976  68.6064386
  92.4938202  45.1997995  68.0211401  92.9012299  43.8812208  68.6427116
 106.3770199  79.4751883  47.1346331 107.2825050  79.6945333  47.3542118
 106.3759518  79.3886948  46.1813498  74.0229368  79.9297380  50.1826048
  73.2623482  80.0073528  49.6066618  74.5033550  80.7479858  50.0565004
  94.4804478  68.3354664  27.4331474  94.4306564  69.0294838  28.0904865
  93.5856628  68.2534409  27.1032000  98.6874294  47.2614527  59.6645927
  97.8555489  46.9442225  60.0161314  99.2360592  47.4008465  60.4364777
  14.3852115  78.1025124  45.5515289  13.9649904  77.2538424  45.4122066
  13.9610529  78.6859703  44.9223280  76.4453888  72.3941088   7.4993026
  76.0458708  71.5282345   7.4163777  75.7077932  73.0029392   7.4603671
  94.1392803  70.7190657  28.8624477  94.0991497  71.3739491  28.1654906
  93.9352226  71.2061262  29.6607971  93.5513115  59.8165464  59.0251398
  94.2475224  60.0852919  59.6245527  93.4064770  58.8918209  59.2254829
 100.4901409  44.1230917  47.6942205 100.0459385  43.3843374  48.1103611
 101.3803291  43.8089323  47.5358009 114.4255161  50.3148937  37.3484921
 114.8868656  49.5658302  37.7257109 113.9666271  49.9558878  36.5890431
 115.5955505  54.3349457  45.7351208 115.2078438  53.9534378  44.9474812
 116.2210846  54.9802542  45.4057121  83.4568977  19.7359180  83.4218216
  82.9717731  19.8017871  84.2443466  83.2730103  20.5587983  82.9687405
  71.2946224  70.3121328  23.0888700  70.8825254  69.7931051  22.3982048
  71.3289165  69.7233677  23.8428020  12.1766996  58.4819603  51.6445446
  11.2492609  58.3732271  51.4341497  12.3775256  57.7497149  52.2273970
  86.1131096  63.1821823  45.4684162  87.0147896  63.3409452  45.7476950
  85.6169605  63.1201792  46.2846422 100.2602959  69.5618057  77.6718378
 100.3674412  68.6949253  77.2803402  99.8936844  69.3893099  78.5390568
  82.8565788  84.8661423  24.5341754  83.6240864  84.2941761  24.5375633
  83.1991863  85.7281208  24.7704887 115.9512043  49.1691780  70.2397966
 116.8431664  48.8349152  70.1454782 115.6820965  48.8899946  71.1149359
  79.1688013  85.0220299  38.1927896  80.0836945  85.1005077  38.4630513
  79.2112970  84.8344517  37.2551131 104.0444088  18.7827492  77.1554422
 104.2104530  19.6930087  77.4005699 104.9145889  18.4110093  77.0111275
  92.1774673  82.5837231  50.0391245  92.5450897  81.7254829  49.8281527
  92.8777313  83.0349064  50.5106163   2.8546914  66.9360161  36.1104989
   3.3798641  66.9961500  36.9085026   2.6453125  66.0053778  36.0311270
  95.4685402  60.9514189  21.6507483  95.7029057  60.3929806  22.3919940
  94.5265007  61.0922766  21.7454338  71.9107485  53.4569263  86.8572140
  71.9288349  54.3717098  86.5760231  72.3057842  53.4664869  87.7290440
 109.5369339  58.2037640  83.6203766 110.0216389  57.7746773  84.3254852
 109.2999268  59.0591431  83.9786911  83.1616497  43.1698561  18.4808314
  84.0208817  43.1739569  18.9026690  83.1896210  43.9089346  17.8732002
 117.2679806  74.8616028  67.9917479 117.0505142  75.2807236  67.1591139
 117.6833344  75.5532980  68.5067844  90.0619125  77.7613497  75.8859682
  89.3326759  77.7395773  75.2663183  90.5457401  78.5553741  75.6586599
 101.1351299  87.7962208  43.2228708 101.5295315  86.9390392  43.0618954
 100.9267521  87.7923584  44.1571045 109.2972183  53.6378813  60.7731438
 108.5147381  53.1153965  60.5971718 110.0149536  53.0046272  60.7646704
  90.1343727  52.7916336  73.9060402  90.1758099  53.4677744  73.2297659
  89.3544769  52.2815847  73.6873150  16.6766787  63.4013224  53.3973598
  16.4647901  63.7693691  54.2551899  15.8374357  63.3647776  52.9384851
   3.5671183  70.4095984  57.9826307   3.8924450  69.9094868  58.7311506
   2.6194102  70.4454851  58.1122208 108.9813328  51.7403936  32.8635406
 108.8229465  52.4440956  32.2342968 109.1222477  50.9630442  32.3230791
 114.1035748  61.3734436  61.4346838 113.3089733  60.8408880  61.4697123
 114.6188354  61.0846758  62.1879053  10.9866214  80.7802486  47.1497202
  11.2115896  80.3996658  46.3007355  11.6442692  80.4304218  47.7508497
  96.0284138  70.2731133  73.5528469  95.8503819  70.7631111  72.7500725
  95.5498695  69.4514322  73.4430218 105.8341885  33.6599922  53.7806463
 105.0271511  34.1418886  53.9614725 105.8639812  32.9811645  54.4548416
 116.7843342  76.9930983  59.3622255 117.6804066  76.6747570  59.4715500
 116.2373638  76.2185049  59.4928408  58.0454302  10.5731535   4.3726698
  57.1603107  10.9249866   4.2777678  57.9849911   9.6788734   4.0367502
   5.3694630  54.5049524  51.7690277   5.7374424  53.8189030  51.2121058
   4.5203960  54.1597223  52.0449448 109.7932816   7.7370173  23.6027813
 109.7993755   8.4534496  24.2375398 110.5838203   7.8730476  23.0804896
  94.9442673  76.0393286  33.2752395  94.7457600  76.2136173  34.1952682
  95.8481026  76.3345909  33.1651282 100.6388187  53.0347013  50.5029154
 100.7125664  53.0606508  49.5489120 100.1970291  53.8525534  50.7313204
 113.2684422  41.3095331  85.9193325 113.1809521  41.9135237  85.1819229
 112.7718353  40.5351496  85.6548786  15.9117413  78.8919115  42.2683191
  15.2681613  78.5837603  41.6302919  15.8138251  78.2985401  43.0130005
   8.8691503  42.3945236  79.1779232   8.8034868  41.6642809  78.5625696
   8.3648515  43.0980921  78.7693787 110.7323074  71.8517017  50.6625509
 110.0374794  71.4668083  50.1284075 111.2184143  71.0998631  51.0011864
   1.6597863  49.7014475  62.8042173   1.6080436  50.5783367  62.4239349
   1.1885682  49.1437531  62.1852160   1.3080555  74.8301840  89.4494724
   0.4250196  74.9346781  89.0951252   1.3958959  75.5390978  90.0866222
  96.7352200  86.1911583  47.0578432  96.8622208  86.6600323  47.8826237
  96.5341282  86.8769073  46.4210176  96.0016346  56.9089222  48.2872057
  95.3520584  56.2679815  47.9982853  96.5563869  56.4276600  48.9011002
   6.2459326  46.1980534  73.9918566   6.1844951  45.8913565  73.0872059
   7.0588648  45.8139849  74.3202829  94.0131092  37.9024243  60.5364561
  93.5785770  37.5488496  59.7603130  94.0892029  38.8404918  60.3618956
  93.3075714  76.2602234  72.5278902  93.5061932  76.6752481  73.3672571
  92.5382710  76.7293167  72.2048569  96.3775063  45.1667929  65.8155251
  96.7965031  46.0182619  65.9407139  97.0598507  44.6187735  65.4278135
 115.7530785  71.3473940  67.9954338 116.5839195  70.9890127  68.3076811
 115.4474640  71.9031906  68.7123156  98.2517815  44.9499846  10.2355409
  97.5541878  45.5529499   9.9785870  98.4303188  45.1663208  11.1507225
 106.1219978  58.1203032  30.5358267 105.7179546  57.8764772  29.7030425
 106.3970566  59.0286875  30.4117060 105.0057030  59.9322987  83.5150623
 105.4775524  60.5987597  84.0144825 105.5824757  59.7324753  82.7777386
 103.6412907  53.5464478  48.0724669 104.5939255  53.4933519  47.9956102
 103.3775234  54.1442776  47.3729992 100.3798389  36.9718885  88.1037903
  99.6781826  37.4518847  87.6638985  99.9381256  36.4882588  88.8018036
  71.9266510  32.9476523  90.9337139  71.9659519  33.9030623  90.8903599
  72.4211597  32.7231169  91.7219257 112.3600483  74.9196672  45.1926947
 111.9443798  75.4834270  45.8450985 111.8993664  75.1170683  44.3771935
  81.1285400  46.1460543  71.4030266  80.5205822  46.6750193  70.8864880
  80.6523991  45.3337860  71.5754795  70.9056807  15.4421544  73.9782953
  71.2328863  16.3397026  73.9185095  71.6608572  14.8967540  73.7581253
  93.4396076  57.1646833  54.9353409  93.4312153  57.4480963  54.0211010
  93.2586002  57.9610348  55.4346323  77.9181147  88.9390850  75.9003544
  78.6549282  88.3321953  75.9712839  78.1474161  89.6633053  76.4827204
  69.6857548  47.0288372  78.7044621  70.1942396  46.2920046  79.0432072
  69.7603416  46.9540834  77.7531052  75.4353619  50.8581638  86.6683483
  74.9497461  50.8168888  85.8445168  75.5925846  51.7921019  86.8071651
  13.2738662  73.7809038  34.0898371  13.7980986  73.3566284  33.4105706
  13.9138615  74.0724277  34.7391844 108.9558983  45.1443195  52.7260351
 108.8456631  45.5846691  51.8833160 109.7363949  44.6019316  52.6125669
  96.5836811  33.2013535  62.6352930  95.8757496  33.4282684  63.2382679
  96.8826675  32.3410821  62.9298592  65.5267048  47.2166538  79.3100309
  65.4607773  47.5223446  78.4053564  65.0922298  47.8966522  79.8248768
  98.3993435  35.0238657  61.7860413  97.9037666  35.8090138  61.5532732
  97.7348423  34.3422961  61.8867207   5.7722527  67.0262957  51.9047737
   5.0759643  67.3277855  51.3212347   6.4278090  67.7231598  51.8754721
 100.2969933  54.5483494  78.9026356 100.2504063  55.4484367  79.2249823
  99.9948502  54.6026897  77.9959965  14.8516071  68.4186411  29.8081684
  14.0685356  68.8992262  29.5397115  14.6263742  68.0522919  30.6633234
 116.7768288  55.4639101  23.8400912 117.1466732  55.8148193  23.0299592
 115.9189606  55.1248026  23.5845661   3.2744625  16.6083705  71.6823196
   2.5212526  16.8086195  71.1266136   3.9854130  17.1386433  71.3223314
  23.2787991 104.0359592  48.3432817  24.1660571 103.7214565  48.1698132
  22.9907966 104.4113636  47.5112009   1.3552321  68.1481743  66.1535215
   0.6518199  67.9385662  66.7679405   2.0222872  68.5763359  66.6901302
 112.8453541  50.6453991  61.4002705 112.3406506  51.2294769  60.8342743
 113.0671406  51.1819744  62.1612787   1.0940671  52.2006464  22.8666115
   0.4844766  51.5489912  22.5202322   1.9138315  52.0326424  22.4018598
   6.9013429  76.7854071  81.3752842   6.9650483  77.1168375  82.2710133
   5.9765148  76.8835402  81.1487961 117.8876495  52.9438877  69.4444132
 117.5644875  52.8939772  68.5448027 117.3354816  53.6056042  69.8609066
 112.1077251  15.4572940  37.2170496 112.3714542  16.3743520  37.1416473
 112.2066593  15.2553499  38.1474590  96.5616035  55.8854580  62.2060108
  95.8073044  56.3966227  61.9127893  96.2556553  54.9785471  62.1939230
  68.6121988 103.7388515  27.1103907  67.6680470 103.7486935  26.9531965
  68.9869356 104.1754150  26.3453937  95.1856995  35.5611324  56.0097504
  95.4186821  35.0598550  56.7912006  94.9215221  36.4179850  56.3447809
 116.8691063  87.0222187  76.3358212 116.1138248  87.4405575  75.9225607
 117.3548985  87.7445316  76.7339277 110.4240704  75.0469065  66.2441826
 109.7157192  74.4899559  66.5670967 110.2416134  75.1490259  65.3100967
  91.8437767  58.8180065  65.0863838  91.2130642  58.5601139  65.7586432
  91.6137218  59.7231960  64.8767710  78.6183214  81.6097450  32.7364135
  78.7719631  80.6873417  32.5319767  79.1941023  81.7894745  33.4796548
  80.6612968  81.3586044  23.5522747  80.0966263  80.9187984  24.1878486
  80.0712395  81.6113186  22.8422046 103.5257626  58.9508533  46.3117933
 103.3212280  58.9948750  45.3777361 103.9641953  58.1070614  46.4214659
  90.7751369  82.7952957  63.8599920  90.1482487  82.0993614  64.0572739
  90.2359295  83.5218906  63.5476637 113.0180168  33.8586402  56.1278963
 112.7441311  34.1316223  55.2522850 113.3754539  32.9793930  56.0038090
   4.8521137  69.9445152  93.3950615   5.3649497  69.1882610  93.1099224
   5.0196230  70.6120777  92.7298355 115.9156799  57.8901100  38.0014205
 115.6480122  57.1487284  38.5445046 115.8856678  57.5540209  37.1056676
  91.2509537  48.4532642  62.3258734  91.4839458  47.6801825  61.8117809
  91.7012024  48.3298397  63.1614971  89.3135548  33.1863570  78.8615608
  90.1878452  33.4673333  79.1315603  89.1192532  32.4357057  79.4228077
  87.5382519  13.0935800   0.8231089  88.2171249  13.0726695   1.4975837
  87.7790642  12.3911965   0.2190397  33.4570956  38.2513976  72.6099730
  33.7357497  37.5559449  73.2057285  34.2737365  38.6443949  72.3019457
  23.2196736  29.8566341  85.2630806  23.4737301  30.7181621  85.5939198
  22.9484010  29.3713069  86.0422421  97.2194195  67.3608971  57.1739149
  97.8580475  67.8172588  57.7217531  96.3696384  67.6647520  57.4929237
 108.0884457  19.2711401  66.1830378 107.7054119  19.7072053  65.4218817
 108.7189102  18.6532426  65.8129787  94.7534847  62.6053190  15.4188693
  93.9640236  62.0647192  15.4459429  95.4707241  61.9895077  15.5691278
  81.3408470   6.4862931  61.9043112  81.6477966   6.7644644  61.0413933
  80.3882122   6.4484704  61.8189335 111.0664272  85.3685856  30.3589940
 110.2827454  85.5305672  29.8338008 111.0240936  84.4361401  30.5710983
  90.6713772  59.9166679  52.8877449  90.8616066  60.5287123  53.5986948
  91.0716820  60.3152609  52.1150160  94.3190098  53.6340666  62.1751308
  94.5237446  54.2692518  62.8613186  93.4046173  53.8086033  61.9522810
  89.1026402  75.8296347  61.3216305  88.8751411  75.4858398  60.4577541
  90.0479221  75.6961489  61.3912010 101.1786652  57.9507971  43.8789272
 101.0454559  58.4681559  43.0846786 100.8123589  58.4897327  44.5800686
   5.3890151  35.9003496  59.3626690   5.0096679  35.0241756  59.4308329
   5.9401011  35.9839535  60.1408339  20.8625627  68.5327053  33.8316011
  20.5078244  68.0173922  34.5560646  20.1431084  68.5887623  33.2027340
  85.4627419  88.3957386  49.3726063  86.3715839  88.1989479  49.5995808
  85.0367641  87.5398159  49.3261051 102.6592255  44.2164707  57.6857233
 103.1011295  44.7324562  57.0113993 102.8368282  44.6855211  58.5010052
  76.0736036  64.2883587  72.1017885  76.6158581  64.2480040  71.3140297
  75.8088303  63.3816957  72.2570038 110.3483772  38.6595774  54.6480179
 110.4280663  38.4605670  53.7151289 109.5090485  39.1132069  54.7253036
 105.8979321  68.1269598  55.7775784 105.3016186  68.4614754  56.4474630
 105.3222561  67.7959013  55.0882101   5.6686193  79.0045786  46.2059069
   5.7119602  79.9250412  46.4649487   6.1286831  78.5375547  46.9033766
  92.3320198  24.1115332  52.6637316  91.9484615  23.2880759  52.3620176
  91.8785095  24.7863007  52.1585083 105.9738255  70.9243965  88.1744385
 105.8979607  71.7061615  88.7215424 105.0718975  70.6265879  88.0558681
   9.7652072  51.5578651  65.5414438   9.1946167  52.0696402  64.9680805
  10.1439214  50.8907413  64.9689484 117.1338081  11.2194276  43.8390732
 117.1108818  11.3772964  42.8952599 117.1272659  12.0938480  44.2284012
   1.5782982  38.8046169  49.6982336   1.7825976  39.4572878  49.0285206
   1.7095062  37.9633999  49.2607737  94.5269775  64.7353268  82.9964161
  94.0162277  64.9931955  83.7637997  93.9990902  64.0577364  82.5740051
   9.1167879  43.3698702  29.2168713   8.8328063  43.2463169  28.3111572
   9.2861962  42.4840975  29.5377159  82.2486782  39.1760278  72.3432016
  82.8643036  38.8670111  73.0078363  82.7570724  39.7892952  71.8124771
  12.6041996  87.5517368   7.5452650  12.8948522  88.3356953   8.0112666
  11.8565166  87.2351646   8.0522025  71.7219973  72.9063749  76.2639570
  72.2149181  72.1600389  75.9230089  72.3916197  73.5030842  76.5982771
 105.0717258  89.5475674  37.6299572 105.5757713  88.8392258  38.0304933
 105.2787876  89.4910908  36.6971302  95.2315712  79.0307665  94.1730881
  94.2942333  79.0425873  94.3667316  95.5653763  78.2717180  94.6512604
 117.8606728  44.9452496  49.7170305 117.0687708  45.4768229  49.7979784
 118.2601222  45.2339888  48.8964796 101.3370228  37.8819799  63.5478306
 101.6518593  37.9144955  64.4511843 100.4468441  37.5369287  63.6167049
 117.9073976  61.9050503  76.7840672 118.6604808  62.4919176  76.7156315
 118.1523684  61.1394501  76.2643814   5.6212956  48.7411404  61.6262436
   5.6860024  49.3936682  62.3235607   6.4435792  48.2538128  61.6771889
  14.9916160  59.7427845  20.3554440  14.4424284  60.2821112  20.9244347
  15.6087863  60.3602505  19.9629331  10.7332230  26.4172530  90.8971024
  10.3731024  25.6603146  90.4349422  10.1318455  27.1326113  90.6901264
   5.5080348 104.1734219   4.8031819   5.3725237 103.5792255   4.0650779
   6.4255744 104.0487576   5.0456935  98.6438942  71.1655045  37.2632241
  99.5523548  71.4203978  37.1021342  98.4904671  71.3925123  38.1803727
  99.9213791  75.4590511  63.7415457  99.9538136  76.1917019  63.1264067
  99.6979237  75.8609056  64.5810795  90.2359200  61.1421251  69.2328882
  90.1240158  61.0647345  68.2854080  91.1229420  60.8216190  69.3962765
  13.8734233  73.2735443  64.1245317  14.6185017  73.3707666  63.5315418
  14.1099644  73.7923002  64.8934126 107.6670837  58.6321449  40.9480572
 108.6226082  58.5755587  40.9471893 107.4273586  58.6499119  40.0215340
  76.0172224  66.7877769  78.3439302  75.1963282  66.3022184  78.4251738
  76.2992287  66.9342422  79.2468452  73.4858036  20.9112096  77.4932480
  73.6185026  21.5933752  78.1514835  72.7213907  20.4252505  77.8026772
  92.5461388  26.9964862  36.8781376  92.6564693  27.9189777  37.1085119
  92.7905750  26.9495463  35.9538651 107.4223995  93.3628082  53.2163954
 106.9914532  92.5097466  53.1634617 106.9809055  93.8097763  53.9385653
  19.0079236  44.8439789  57.3972940  18.3701384  45.1153994  56.7371464
  19.7365189  45.4558134  57.2922230 100.1658440 100.3953266  90.6723309
 100.1616955 101.2650299  90.2725410  99.9328518  99.8022652  89.9580288
  39.7434402 108.1866074  24.7299433  39.8832631 108.9733601  25.2569199
  39.0147591 108.4120655  24.1516447  18.8549101  93.1933689  41.1986732
  18.4294999  93.4396362  40.3773260  19.0159261  92.2537422  41.1126661
 110.5177689  88.5109615  59.7597742 109.8832703  89.0871429  59.3335629
 111.2971878  89.0549850  59.8728275  46.6509962  24.1032529   9.1194361
  46.2922430  23.2352352   8.9348465  47.2868967  23.9556813   9.8194969
   7.8542453  72.9769897  92.5986290   7.9771632  72.5254965  93.4336662
   7.6951754  72.2748280  91.9678402  97.5349522  96.3759995  65.0685310
  97.5682640  95.8286095  65.8530617  97.8548622  95.8088017  64.3669748
  98.1334877  86.2519169  39.2594385  97.6930332  85.9070778  38.4827018
  97.9764652  87.1955109  39.2247200 107.0364857  91.1654377  48.6127234
 107.7514267  91.3648319  48.0082989 107.1293449  91.8097878  49.3144417
  10.8773267  70.8516169  56.5336132  11.4117098  70.0770617  56.7089272
  10.2400672  70.8695555  57.2476244  98.4888363  70.0348139  61.4041185
  98.6753941  69.2814064  61.9643021  99.3085289  70.5287981  61.3862514
 109.5891857  91.5450096  78.5102463 109.6873665  91.7344761  79.4433546
 108.8904762  92.1308994  78.2190990 103.3309937  55.2948809  46.1337280
 104.0170193  55.9114218  46.3896132 103.0083847  55.6293201  45.2968836
 113.5882092  87.4697304  55.7765770 112.8463268  87.8403473  56.2545681
 113.8433456  86.7020226  56.2882042  97.3328114 105.9648895  18.2339334
  96.5757656 105.4094887  18.0478024  97.6486588 105.6618786  19.0852046
  34.2416286 108.3684254   1.4587215  34.0905142 107.6002216   2.0094198
  35.1925969 108.4065628   1.3565665  10.5174744  63.7945795  48.3313656
  10.7577693  64.4854021  47.7139091  11.2985396  63.2444954  48.3911848
 104.0154839  49.5582104  85.8137035 103.6404896  50.4286098  85.6794930
 104.6949196  49.4842005  85.1435471 108.0382252  82.7128696  60.3553772
 107.7029419  82.1080017  61.0171556 108.9755440  82.7739048  60.5396032
   0.9784304  72.8803015  68.3271456   0.1600730  73.3256626  68.5466433
   0.8525931  71.9826698  68.6348009  96.5443420  43.0440044  67.6131439
  96.4749813  43.9322996  67.2633553  96.8025112  42.5101852  66.8617344
  96.1701870  62.4362755  45.1736736  95.9633160  61.5295744  45.4002476
  96.3932896  62.8469658  46.0090113 113.3784008  93.5658741  29.7815776
 113.0997944  93.0328560  29.0369320 113.8965797  94.2699146  29.3916297
  86.5770340  11.5839469   3.0509263  87.3535728  11.3732231   2.5324491
  85.8547592  11.1677337   2.5804913 104.9786091  75.0420618  39.5013571
 104.9955463  75.2079630  38.5587955 104.9931240  75.9130239  39.8981500
 114.0437794 103.8981819  40.5737114 113.3346558 104.2288876  41.1250734
 113.6629200 103.8501740  39.6968555  95.3020287  65.4518223  71.4815760
  95.7911491  64.9018145  70.8696270  94.6560383  65.9008455  70.9363127
  10.0763321  50.5547810  62.2264099   9.1331977  50.7124615  62.1831942
  10.4704595  51.4059639  62.0356512   2.7446312  86.6225815  73.5388660
   2.7425563  85.6738758  73.6660814   3.6710095  86.8633652  73.5475111
 115.0130177  91.6336155  78.8967228 115.1173306  91.0237694  78.1663513
 114.5566845  92.3850155  78.5180426  99.3560028  67.2563362  70.5199051
  99.5210934  68.0591869  70.0255299  98.5751057  66.8808746  70.1131439
  91.3757706  89.3039894  58.9639425  91.5724277  88.4448528  58.5905361
  92.2289371  89.7298717  59.0473795 103.5248852  76.3483191  74.6119785
 103.3616352  75.4410505  74.3542147 104.2055893  76.2881088  75.2822304
  12.4028754  73.1745005  82.0590973  12.3908246  73.7047195  82.8559399
  13.2862759  73.2887793  81.7087078 104.1604805  70.2218676  38.1636429
 104.6720505  69.8801661  37.4303174 103.6313725  69.4787073  38.4534574
 115.6090450  65.2437639  36.4242458 114.8395252  65.6145525  36.8561912
 115.6259060  65.6628036  35.5638075 108.6534500  59.1183424  80.9823322
 108.8266945  58.2873154  80.5400562 108.4894466  58.8751173  81.8934727
  96.3088226  57.9296446  53.5901403  96.8910122  58.3561707  52.9613543
  95.6814384  58.6097622  53.8352013 105.2286339  80.5156517  63.0130386
 105.0466728  81.4092159  62.7220726 106.1578751  80.5230427  63.2425499
 102.4479771  71.2138271  76.8014002 101.8980217  70.5124283  77.1504307
 101.8293095  71.8328524  76.4137220 114.3022537  93.8688087  33.5263801
 115.0624275  94.3348694  33.1783080 114.3184566  93.0201054  33.0840278
  66.5755463  31.2409067   5.0436860  67.1840811  30.8991122   4.3886307
  66.2571049  32.0622706   4.6692738  96.2306023  47.3572111  85.9367371
  95.4398632  47.7038479  86.3500214  96.8694401  48.0662966  86.0095692
  98.0424881  75.1860952  70.2406025  98.5022163  75.9123135  70.6618929
  97.6774979  74.6802664  70.9666538 117.3380756  40.6892681  72.1630621
 116.5284348  41.0234737  71.7770195 117.0527172  39.9866724  72.7471542
 104.1420841  93.9417171  57.1421051 103.2024288  93.9794445  57.3206139
 104.2970181  93.0389500  56.8641710 106.9637680  87.9027748  42.7244282
 106.2709332  87.8984928  42.0639753 106.5771294  87.4602604  43.4800196
  21.4681101   7.1506906  27.2258472  21.6292071   7.9871047  26.7891645
  20.5343127   7.1659881  27.4356651  10.2373755  95.8446026  54.7859621
   9.9043250  96.4091206  54.0883780  10.2801919  96.4135170  55.5545568
  19.2512619  79.7637653  67.6669979  19.9821043  79.5428753  68.2443237
  19.0365958  80.6699371  67.8883505  99.6582699  46.9118881  36.9225335
  99.9290848  46.2510729  37.5598788 100.2686405  46.8052912  36.1929369
   5.6812966 103.1360912  71.2816715   5.5742574 103.9297009  71.8060255
   5.8983803 103.4552288  70.4057407 117.0251369  65.7933569  27.7177024
 117.7136517  65.1378298  27.8293204 117.4683094  66.6312599  27.8509259
 105.7075596  60.1041746  71.2003708 106.4926338  60.6419563  71.0970449
 105.7816982  59.7390318  72.0820761  27.2670412  84.3321800  59.6791649
  27.3919153  85.2604580  59.4818401  27.7649021  84.1893387  60.4841280
 113.1714153  90.0714779  29.5980453 113.9891529  90.4945087  29.3361521
 112.5071239  90.4621506  29.0303016 108.7490177  65.7106018  54.9210596
 108.1436443  64.9712896  54.9774456 108.4879589  66.2891102  55.6375790
  23.5010719  94.4679737  93.2939148  23.4820962  94.6043205  94.2411613
  22.6192546  94.6979618  93.0011082  59.5886469  17.7133679  34.6957302
  60.1030874  17.1469152  34.1206551  58.7846231  17.2207534  34.8603702
  24.2307377  92.4507046  31.4999962  24.2378569  91.8738174  30.7361984
  23.3114552  92.4868584  31.7642784 103.1943607  59.6443892  71.0029554
 103.0248260  59.5931673  71.9436264 104.0112400  60.1384401  70.9333611
   2.3223366  68.7607908  53.4615278   2.5837713  67.8814268  53.7346649
   2.0254464  69.1835356  54.2673683   7.5205004  57.1697664  70.3509140
   6.8970329  56.4930248  70.0872087   7.8526360  56.8724728  71.1979866
  14.9241960  95.5154037  50.6066751  15.3898811  95.4380131  49.7739792
  15.2407563  96.3367558  50.9826994  97.0799923  73.4424114  72.2845411
  96.1817455  73.1181574  72.2194004  96.9845581  74.3742657  72.4814272
  92.0034885  88.8367653  52.6198912  91.6102600  89.0537453  51.7745924
  92.3497391  89.6684074  52.9435062  99.2712212  44.7001934  53.3261681
  99.5195103  44.2636442  52.5113010  98.3250904  44.5694447  53.3892727
  89.6475983 108.6071396  37.5087881  90.1684380 109.3256187  37.1499872
  88.7877178 108.9938736  37.6739430 100.8417225  55.8950233  53.8806057
 101.2075520  55.2389097  54.4738340 100.9045792  56.7179155  54.3655062
  96.6249084  90.6265354  56.7151785  97.4906540  90.4763222  56.3354874
  96.5862560  91.5724373  56.8566179   9.1918558  55.0904465  55.6107664
   8.7896758  55.9590197  55.6026363  10.1320529  55.2613258  55.5554295
   6.6018265  67.3053741  60.2249384   7.3504347  67.6301956  60.7252455
   5.8820313  67.2870159  60.8556414 103.0250168  23.4724998  46.5581083
 102.4862766  22.8603148  47.0593357 102.8143406  23.2836890  45.6436682
  95.8159065  51.4227343  89.5590973  95.6847382  51.1765766  88.6434364
  94.9891090  51.8292856  89.8186302 102.4684811 109.8393822  68.2687950
 103.0196571 109.8544312  67.4863529 103.0601788 109.5758438  68.9735460
   3.2844993  75.5077553  31.1538219   3.0235523  74.5970488  31.0168839
   2.5893539  75.8767509  31.6986561  85.9871483  68.5345268  41.5010405
  86.7785835  68.4492588  42.0326376  86.2195778  68.1400299  40.6604576
 106.1011600  70.0820017  67.2570944 106.6324520  70.0996971  66.4610720
 106.7364693  69.9895048  67.9670715  12.5520885  62.6784754  82.7947521
  11.9827414  63.4458733  82.7384186  11.9555163  61.9325352  82.7322769
  92.4937153  48.6458158  66.6115761  93.1703758  49.0881729  67.1240902
  92.9459763  47.9065084  66.2052345 110.1882648  78.0790234  60.1367569
 109.3707657  77.5816202  60.1596928 110.4728794  78.1142855  61.0499811
  20.8721733  63.9179707  68.7557745  21.0858250  63.3511496  69.4969225
  21.2031770  63.4471273  67.9909372 115.1138687 100.4288960  43.9910460
 114.4995975 100.8536148  43.3922815 114.5752335 100.1583481  44.7346210
  66.8584633  66.0570955  59.1327429  67.3428440  66.8738604  59.0122986
  65.9451532  66.2943554  58.9720917  20.2604890  86.4302540  31.8174314
  21.0123801  86.6148853  32.3802853  20.6027627  86.5091515  30.9270072
  25.0123143  75.4985428  11.0762870  25.1359439  76.4180136  10.8406436
  25.8999467  75.1456261  11.1378372   2.9170358  81.7729759  61.5580797
   3.5236874  81.8646908  62.2927856   3.4454089  81.3905811  60.8574915
  20.6367493  67.1043205  81.7154408  21.5548992  67.1472788  81.4482498
  20.1557636  67.4884796  80.9824276  16.8317938  76.3220453  43.7565804
  16.9645834  75.5466509  43.2112741  16.0883677  76.0970068  44.3159628
  97.3154449  52.3258066  48.8232803  96.5530205  52.8796721  48.6554193
  97.9909420  52.6634789  48.2351398   2.4745262  71.1394548  22.8969479
   3.0742320  71.7621088  23.3079028   1.6810688  71.6473246  22.7274680
  83.4022427  62.0082712  47.8726101  83.2370090  62.7793217  47.3300219
  84.3336678  62.0612478  48.0867863   0.5839662  46.5040684  75.3799200
   1.2595001  45.8259201  75.3797626   0.0524685  46.3128710  74.6071434
   0.2530485 103.5451889  18.3374703  -0.0545331 102.9164124  18.9903665
   0.0475271 103.1370068  17.4964094  20.6919432 105.5618954  58.1432247
  21.0057092 105.8672523  57.2920275  20.1785803 106.2935638  58.4858036
  97.8049850  58.5602522  46.9965982  98.2420826  57.7257776  47.1664000
  96.8784237  58.3825493  47.1582365 100.2993107  56.9637156  73.4113836
  99.8439980  57.7653980  73.6687374  99.5986557  56.3547039  73.1780910
   1.7246690  81.7238903  30.7863784   2.2401461  82.3450279  31.3008714
   2.0168678  81.8589687  29.8849320 105.8421612  76.6968012  52.3231316
 105.5700779  76.2928534  51.4990997 106.6539192  76.2454605  52.5545645
  86.5967274  69.5413303  74.2159557  86.7326164  70.1994562  73.5343170
  87.0131779  69.9125814  74.9937582 105.9042835  83.8908291  94.6845818
 105.0517178  83.6034966  95.0113773 106.4888191  83.8117123  95.4384327
  13.5145068  81.6168022  30.1093578  13.6407280  80.7257557  30.4354692
  13.8531685  82.1775150  30.8073115  83.9105892  63.0639791  76.5287971
  83.8511753  63.5034943  75.6805420  84.7375965  63.3710766  76.9002628
 111.0636902  72.9383850  34.4661045 111.4947605  73.5857153  33.9080977
 111.7791653  72.4016047  34.8069787 107.4709606  67.6332378  64.5508289
 107.2401237  67.6079655  63.6222219 108.4073448  67.4357033  64.5703268
 115.5034161  78.4702110  67.8816891 114.7981548  79.1086197  67.7755213
 115.3073215  77.7877235  67.2398233   2.9929328  99.2983818  58.4224892
   2.8544283  99.2104149  57.4794579   3.0933756  98.3991241  58.7347317
  98.8553715  84.6662807  56.1466455  98.7078190  83.8182640  56.5653753
  98.2441616  85.2589798  56.5841007   2.3857175 106.4534283  80.8227730
   1.9173545 107.2632790  80.6202698   3.2935166 106.6344166  80.5790997
  84.4002533  91.0334969  55.4611826  85.1915073  90.4952335  55.4815578
  84.3256474  91.3833618  56.3490248  21.9293976  97.8656483  87.1507645
  22.6457596  97.2323513  87.1060848  21.6469002  97.8435993  88.0650616
  97.7696133  40.0537729  96.0317326  97.9178429  39.4802833  96.7836380
  98.5215664  39.8985147  95.4601669  20.2628779  17.1021819  23.9631581
  20.1726723  18.0230618  24.2082572  21.1868620  16.9033945  24.1147184
  79.0651894  68.8569880  56.2010002  78.2679176  69.2501593  56.5559673
  79.2533922  69.3668795  55.4130745  92.0484924  83.1484509  36.1278009
  92.0356369  82.3775387  36.6950464  91.4274406  82.9421902  35.4292417
  27.4402308  37.6102281  84.9672604  26.6810083  37.0466924  85.1163960
  27.0930052  38.5003138  85.0256920 109.5960045  60.9031439  56.3485861
 109.8197556  61.3544464  57.1625233 108.6805916  61.1339712  56.1905813
  27.2035336  76.6744995  95.9094048  27.6644850  75.8722353  95.6641865
  27.8325129  77.1579361  96.4450359  21.2355232  86.4575195  69.9456453
  21.7252398  85.9019661  69.3392038  21.9055152  86.8490791  70.5060291
  14.2202413  65.7137775  64.5787954  13.3180940  65.4478979  64.7567654
  14.1848612  66.1148262  63.7103844 109.9082375  95.6929207  22.4074960
 109.5089626  95.5370140  21.5516329 110.5181789  96.4155579  22.2591710
 116.2546539  92.8032207  18.1879854 116.9648361  93.4401798  18.1095541
 116.6353035  91.9809055  17.8795469  91.9484711   2.1265559   8.5456133
  91.7129135   1.8299010   9.4246721  91.5856838   3.0103257   8.4858459
  16.6805005 102.2937679  25.2600765  16.2993133 103.0808544  24.8709607
  17.6208603 102.4706554  25.2858734  42.8550291  86.5302277   7.3767585
  42.8304005  86.6654682   6.4294803  43.6566734  86.9695473   7.6606566
  62.7796555   3.1021538  34.4596481  62.3785019   2.6676464  33.7069798
  63.2873249   3.8192031  34.0797234  13.9583385  86.8294144  43.0573559
  14.6973491  86.2735939  42.8100443  13.3255076  86.2267208  43.4478807
  50.8251381  15.9950113  49.2212582  50.1538706  15.3422213  49.4199944
  50.3476286  16.7082500  48.7975740  89.3177795  31.9113851  58.4669161
  89.5941830  31.0079455  58.6206341  88.3852386  31.8448901  58.2615137
  39.4696403  98.7941265  43.6932373  39.5246744  98.4590244  42.7983046
  38.9238787  98.1571484  44.1543627  30.4711199  89.3161678  15.4310346
  29.7410226  89.3395233  16.0496163  30.4350352  90.1627827  14.9858630
  65.7598448   9.1805542  67.3476315  65.5457926   9.3278730  66.4263773
  66.4775038   8.5474408  67.3285055 101.4876366  25.6616998  18.7993133
 102.3059654  26.0270500  18.4630251 101.6606903  25.5002713  19.7267962
  69.7908640  42.2438717  11.0759711  69.0737772  41.7269659  11.4431524
  69.4147921  42.6569843  10.2987063  64.1411209  31.7114019  23.9135766
  63.3044624  32.1337509  23.7190032  64.7113562  32.4273062  24.1938353
 118.1536484 107.3979759  53.6916256 118.5148430 106.6277695  53.2528305
 117.3663235 107.6116657  53.1909275  89.0694904   0.5452167  31.5705419
  89.7509670   0.1425400  31.0323310  88.2488346   0.2178624  31.2023163
  91.0464573   8.3180428  21.3086319  90.7445812   9.0567684  21.8371987
  91.3717747   7.6836425  21.9473290 109.8264217  21.2806058  51.2646437
 109.5703125  20.5530477  51.8314743 109.0577316  21.4395022  50.7168245
 100.4961872  52.8873634   6.1504948 100.0287628  52.8243208   5.3175682
 100.0254536  52.2931290   6.7348933  44.1785717 105.4201698  21.0112548
  44.5974874 104.6760178  20.5788565  44.8912764 105.8603191  21.4744568
  64.4405460   9.3095052  92.2526455  65.2419519   9.6149945  92.6776791
  63.7361145   9.7634357  92.7151966 113.2067871  13.1279004  35.8927393
 112.9541969  14.0320754  36.0795522 112.6377201  12.8648102  35.1694322
 108.6012745   3.8791093  52.7717304 107.6736832   3.7433422  52.9650450
 108.7894058   4.7565618  53.1047678 117.1086216   3.2435268  23.7792993
 116.2333679   3.0322480  24.1041422 117.2126198   4.1775101  23.9612126
 108.3452225  36.6346264  55.4708815 108.4432316  36.0362792  56.2115622
 109.1670704  37.1248341  55.4486179  52.7194786 103.9987087  24.3859863
  52.4427223 104.3940353  25.2126384  53.6671448 103.8971138  24.4745040
  77.6125431  18.0117059  20.7078695  78.3231115  17.9322827  21.3442802
  77.6233101  17.1812642  20.2319694  47.0398712   3.8919702  24.4415760
  46.8394947   4.7294375  24.8595834  47.2335482   3.3012569  25.1694369
  62.5442076  88.6219597  52.9613495  62.3365068  89.4772053  53.3377075
  63.0672646  88.8224792  52.1851826  85.5001640  31.2960005  67.8159380
  85.8089447  32.0645165  68.2957983  86.0812664  30.5890155  68.0965042
  81.4290905  13.1883883  36.5572047  81.8359470  13.5181212  35.7559705
  82.1303844  13.2099509  37.2083211  81.5733814  94.7307110  34.7380352
  81.8889904  94.8620224  35.6321144  81.8983364  93.8640118  34.4941878
  78.3695698 108.4974861  71.4300203  78.4978390 108.9756966  70.6108189
  77.5560522 108.0105972  71.2982750  93.0799294   1.4420015  36.8943262
  92.9602146   1.5605150  37.8365874  93.7198639   2.1099810  36.6483068
  94.1878223  14.9982309  42.6208210  95.0983334  14.8421824  42.3701477
  93.8955116  15.6986976  42.0376110  91.4648914   1.0793930  55.5727577
  91.3153934   2.0223598  55.6412697  90.8349037   0.7841500  54.9153519
  44.8847961  87.4481487  12.5211310  45.0318289  86.5082359  12.6268721
  45.6296635  87.7501011  12.0012999  32.8568101  97.0817375  66.7975855
  32.7233243  97.3644352  67.7022934  32.0951486  96.5358448  66.6023731
  87.7572918  15.1658869  16.1075294  87.4392128  15.1640999  17.0103359
  87.0246124  14.8245466  15.5947804  66.3339424  15.0657833  71.6435862
  66.0670090  14.1544557  71.5233421  67.2849417  15.0254679  71.7446041
  45.4827023  82.5399017  59.4779062  46.0707712  82.0950699  58.8675594
  45.4962873  81.9943047  60.2642727  81.0266781   4.9389514  71.5715218
  80.6837940   4.1603062  71.1329126  81.5666294   4.5948213  72.2830391
  33.2873821 105.3608894  18.2691038  34.1881227 105.0659657  18.4029734
  32.9713130 104.8383427  17.5320315  31.0238099  83.0366802  13.7756181
  30.1721406  83.4735584  13.7808573  31.2891507  83.0401993  12.8559363
  78.9164448  80.5803585  51.4612722  78.4076262  79.8426247  51.1250114
  78.6074162  80.6946278  52.3599815  75.1243734  29.4285941  49.8034859
  75.2613163  29.7961807  48.9303541  75.4258347  30.1126552  50.4013252
 103.0096722   7.3419094  37.7356076 103.6552715   6.6686201  37.9503775
 103.4915161   7.9744661  37.2027540  93.4733200  16.0158503  31.0174704
  94.1590023  15.3567159  30.9096742  92.7325821  15.6751108  30.5160356
  62.9151022 110.7527213  16.3519025  62.7227270 110.9881527  15.4442716
  62.2867071 110.0607743  16.5582013  59.0328598  97.4051857  65.8793020
  58.1744909  97.6258755  66.2408781  58.9390755  97.5453186  64.9370718
 109.8574352  16.7280257  53.0066109 109.6433926  16.2641764  53.8160944
 109.2903519  16.3306618  52.3457432   0.8824812 102.3522568  24.2326546
   0.9928595 102.0633984  25.1385283   0.5964362 101.5679741  23.7643409
 105.8074474  32.6518154  48.5385513 106.0362053  32.7111697  49.4661188
 105.2301311  33.3998990  48.3858967  67.9298830 100.9134865  57.0468330
  68.6031437 100.2934074  57.3269367  67.1895647 100.3635597  56.7904186
  69.8462963  18.5202527  41.7961884  69.7265816  17.8304362  42.4489164
  70.4058552  18.1236756  41.1284685  51.6641521  24.9631643  51.5959072
  51.6690159  24.1944885  52.1662998  50.7378531  25.1847267  51.5004492
  73.2050228  34.3316770  41.1861992  72.8989458  33.4473085  40.9851074
  72.5988483  34.9068642  40.7193518  26.3394260   8.8005668  19.8228741
  25.5004334   9.0904313  19.4646811  26.6078758   9.5092493  20.4076242
  28.8407159  22.9237795  68.9601183  28.8912320  23.0823588  69.9027348
  28.0337071  23.3599567  68.6867714  66.9088650   5.5265778  19.1070032
  67.1384144   4.8928002  18.4273982  67.3431683   6.3355827  18.8365924
 101.7572880   1.7014782  53.1922626 101.4903927   0.9992036  53.7854004
 100.9340858   2.0784667  52.8816891  93.5698986  34.0104079  43.3145380
  92.8580093  33.4239364  43.0586243  93.7761784  33.7581849  44.2145777
 102.2484684  41.5354061  26.1981058 103.1967163  41.4442205  26.1045957
 102.0708275  42.4455738  25.9608817   8.8148195  83.6364746  69.4247055
   8.2878643  83.2267380  70.1107550   8.3310169  83.4653091  68.6167002
  72.6204014  17.3577619  90.7580376  72.2513771  16.4748192  90.7796478
  72.7846432  17.5260687  89.8301792  43.6404753  95.6517982  40.2538347
  44.5232391  95.3210926  40.0877094  43.7613249  96.3378620  40.9102917
  29.3803525 105.6172466  62.2021103  30.0440907 104.9391937  62.0758963
  28.8254833 105.2811813  62.9059696  99.9752426   4.2696947  47.7396965
 100.2527142   4.4869867  48.6296558 100.7814312   4.0089175  47.2944021
  58.7066746 101.4164352  51.4058018  58.1765604 100.8707523  51.9866991
  59.0939140 102.0746803  51.9828558  10.6740057 108.7235451  58.4826756
  11.5814102 109.0185642  58.5588932  10.4919291 108.7491512  57.5433016
  89.0892410  19.3789697  55.5466080  88.3325577  18.9392328  55.1589251
  89.7566032  19.3566179  54.8607779  19.6935391  77.0186758  88.6458302
  19.0685952  76.3500595  88.3654213  19.5110667  77.1414232  89.5774269
  78.1272459  94.2463017  43.2526827  77.2735357  94.6776009  43.2900047
  78.7004614  94.8038483  43.7788010  67.0045376   2.6228923  50.5985117
  67.8579950   2.5082812  51.0164881  66.4040804   2.1041247  51.1338282
  99.2385769  18.6476612   9.7923249  99.4449043  17.8244150  10.2349591
  98.8158703  19.1817856  10.4648292  48.1965733 100.9893036  44.7429419
  48.7028599 101.0177422  45.5547905  47.9779434 101.9040298  44.5648527
  43.3612347  94.1274357  55.5594683  43.4985018  95.0059414  55.2050352
  42.5634146  93.8180637  55.1305056 108.2649326  17.8711963  13.2912219
 108.7912846  17.2262812  13.7637305 108.1820202  18.6051166  13.9000893
  31.4637113  80.3201771  56.6839409  31.4949250  79.3635416  56.6937780
  32.0574045  80.5719280  55.9765625  80.7925070   1.0257481  25.1714921
  80.5509413   1.9488857  25.2469587  80.0383556   0.5514381  25.5215240
  70.5787849   1.7807552  56.8430948  69.9235535   2.1278241  57.4484396
  70.0753593   1.2572527  56.2196016  44.3838120 109.4624901  40.6512070
  43.9842319 109.4002438  41.5187883  43.8435316 110.0995827  40.1838303
  81.4483261  19.9401081  85.5203342  80.8336353  19.3809795  85.9954834
  81.3781834  20.7925057  85.9501362  82.2938824   7.8150475  34.5347571
  82.3042393   7.2092551  33.7937164  82.2756767   8.6839294  34.1335773
  48.1165123 101.8708706   0.7407824  48.5209990 101.7474174  -0.1179264
  48.6957026 102.4847794   1.1923222  20.2789569  71.6494656  44.2737532
  20.1581550  70.8356905  43.7844610  21.2281108  71.7385674  44.3597841
  30.2636528 103.2636166  34.3639946  30.2763057 104.2092133  34.5120788
  30.4977322 103.1625175  33.4413791  76.2628222   9.7766072  59.3241549
  75.3780603  10.1345193  59.3971014  76.7085075  10.0763130  60.1164770
 113.5621166  32.3773313  64.7485352 113.0934429  33.0598044  64.2681122
 113.3218098  31.5639806  64.3047571 101.3390255  10.6080401  30.6814122
 101.5318394  10.2955770  31.5653920 102.0590687  10.2735126  30.1467562
  86.2596416  16.9381881  70.6023693  86.9732285  16.7209029  71.2022114
  85.4738522  16.9208956  71.1486959 102.3549175   3.3293918  28.6280632
 101.5010071   3.7611961  28.6526895 102.9872322   4.0477312  28.6481833
  79.0806341  17.8023708  65.6011534  78.3570480  17.5654495  66.1812592
  78.7037611  17.7682722  64.7219276  90.2667618  12.2551918  29.0089107
  91.1822224  11.9791102  28.9647245  89.7809792  11.5407491  28.5968232
  88.3517075  10.0417364  83.0406761  88.7232399  10.2983141  82.1966553
  88.8560677  10.5381238  83.6852264 114.3626881  43.0009747  22.0704293
 114.2365837  43.0493116  23.0180550 113.7795448  43.6725521  21.7166424
  95.0788593  25.7409883  50.6135845  94.5278168  25.8207011  49.8349714
  94.6193027  26.2453485  51.2848997 107.3675251  25.5551457  47.3487997
 106.4739513  25.8697438  47.2117281 107.2934628  24.9303055  48.0701303
  47.3379993  30.3181934  22.7915144  47.0613718  31.2111497  22.9972768
  48.2295656  30.4147673  22.4568295  82.0812702  39.9399948  82.1674919
  81.1443615  40.1346588  82.1908760  82.2573948  39.7198606  81.2527466
  76.9442987  23.9303374  60.2299261  76.0651493  24.1645813  60.5273342
  77.2717285  24.7221732  59.8032856  42.0532799  98.0910683  61.8633652
  41.1645079  98.0520725  61.5101004  42.5564957  98.5561180  61.1949825
  37.9032302  97.7304840  47.6204300  37.5912261  98.5914707  47.3418856
  37.4725938  97.1159172  47.0262146 105.4070187  10.8806634  17.9915702
 104.5814228  11.2090766  18.3476126 105.6792259  10.1998210  18.6068642
  57.3089552 106.9956589  37.7420521  57.9417038 107.4218464  38.3201766
  57.8459406 106.5362263  37.0964527  88.4494495  20.4757833  60.8639002
  89.2831802  20.6512141  61.3001919  88.6950970  20.1888323  59.9843884
 106.3923168   3.3081546  40.8275890 105.5422688   3.4667096  41.2380886
 107.0305252   3.6081395  41.4748335 116.4549637 105.5569744  18.9124286
 117.2925949 105.1085758  18.7960839 115.9473038 105.3214264  18.1358743
  42.3403692  75.1279545  32.0215297  42.2570848  75.7251215  31.2781000
  43.1434345  74.6375322  31.8460083  26.9967937  93.1206608  36.2812185
  27.1376514  92.2120762  36.5474033  26.0522199  93.1852913  36.1403847
  73.1620979  21.3179493  59.7261381  73.2778597  20.9302568  58.8586569
  72.2531843  21.1244369  59.9556112  68.7032509   1.8911056  64.7986078
  69.6190453   2.1678756  64.8294783  68.7432432   0.9483923  64.6375990
 107.1738815  55.5113649   4.2608529 107.3917866  55.8246994   3.3830315
 107.7937031  55.9599781   4.8360121  78.8462353  19.7438157  43.4255457
  79.3290377  18.9302754  43.2796431  79.4334364  20.4307032  43.1099367
  71.8649197  10.9576714  62.1638918  71.0206795  11.1134672  61.7405558
  72.0069981  11.7327225  62.7073431  73.6335325   8.3812499  27.0052361
  73.8923407   8.3598322  27.9265356  73.3163786   9.2736185  26.8662286
   4.4877881 109.6766090  64.9768877   3.6297101 109.3793106  65.2794552
   4.2928246 110.2852821  64.2643309  83.6951542   4.0079546  23.4379363
  83.1131077   4.6968985  23.1172967  84.0624142   4.3623415  24.2477274
  89.2016983  15.6456411  48.4628963  88.7193489  14.8794508  48.1522179
  89.4517708  16.1110747  47.6647329  96.1553860  36.3688803  92.7741337
  97.0654678  36.1194181  92.6136684  96.2092113  37.2566628  93.1279373
 107.0944881   4.8975727  59.1043329 106.9765282   5.0925010  60.0340223
 107.9852104   4.5524848  59.0431023  83.8956165  19.9490798  46.4847565
  83.2542896  19.9034727  45.7756376  84.0177345  19.0393138  46.7561340
  94.0135670  20.1985407  41.6222000  93.4887218  19.7869515  40.9356451
  94.9159241  20.1221681  41.3120937  78.0319309   9.7770381  32.6116896
  78.8673687   9.3153745  32.5399566  77.8836584  10.1409328  31.7388630
 108.7451744  50.1314306  55.1519632 108.7573051  49.2287207  54.8338366
 109.2668533  50.6174660  54.5133305  53.8139105  26.7437458  60.8715439
  54.0488815  25.9276414  61.3131237  54.5413017  27.3364806  61.0607672
  76.5174866  24.3248534  67.4388933  76.2980556  23.4616351  67.0882654
  76.5439367  24.8956442  66.6709518   9.1193235  24.0334439  69.8174429
   8.9032537  23.5641193  69.0116596   9.4058496  24.8975849  69.5218134
 100.6491947  33.9563775  29.0614343 100.3993607  34.4497681  29.8427033
 101.5821266  33.7775230  29.1792679   0.5176341  29.8275542  41.3886929
  -0.2797521  29.2981720  41.4009762   0.7565104  29.8793530  40.4632282
  85.4513359  35.1475835  34.3613529  85.9462070  35.8382940  33.9206100
  84.6434593  35.5754900  34.6450210 105.1032352  37.0990944  38.1224942
 104.5728970  37.5285721  38.7937045 105.9160900  36.8671441  38.5716009
 112.4098587  21.7908502  24.5087266 111.7761135  22.5062895  24.4562674
 113.2533741  22.2040939  24.3245196  83.0261135  22.3056269  51.4207506
  82.3308849  22.5391769  50.8056545  83.8360882  22.5342083  50.9647703
  11.6553366   2.2783262  82.5086212  11.8029106   2.8352559  83.2730103
  12.5307095   2.1193512  82.1555233  97.3399258  14.9654210  22.5489378
  97.2133064  15.5001700  21.7652011  97.4388218  15.6001508  23.2585645
  75.9178257  24.4195604  28.9284825  75.1085520  24.0248752  29.2533374
  75.7680321  24.5352840  27.9901862  71.0535669   5.2256089  66.4683151
  71.4711237   4.8261678  67.2314167  70.2242708   5.5686474  66.8012190
  33.0278468  11.1201859  66.5733814  33.4156656  11.6630137  67.2597980
  33.4846210  10.2819860  66.6441727 105.8104992  17.4069393  87.0284176
 105.5084705  17.4214506  86.1202335 106.7498398  17.2339499  86.9657040
 110.5909157  17.9775155  43.2131052 110.6592941  18.7865663  43.7200499
 111.3385868  18.0050492  42.6160669  73.4582102 111.7870819  62.6937723
  73.9076864 110.9443772  62.7574396  72.6835215 111.6057353  62.1616030
 103.2389259  34.7635341  26.5547490 102.5822830  35.1453257  27.1372366
 103.5579681  35.5023861  26.0365343  79.4535542  24.1690326  51.4170599
  78.8301706  23.5563827  51.8072939  79.7027254  23.7613821  50.5876207
  75.7948637  24.6448660  57.3369884  75.1011610  24.4046950  57.9512548
  76.3281536  23.8540411  57.2568130 115.2038670  37.2740722  11.3764441
 115.2740574  38.0030131  11.9928455 115.2566624  36.4910579  11.9244707
  70.1265860  27.4355578  55.0791597  69.4360113  26.9176984  54.6654463
  70.1864433  28.2264876  54.5433617 108.0687332  22.8784752  42.9500341
 108.7389374  22.9616666  42.2716951 108.1974316  23.6446881  43.5091305
 103.2561874  19.2458940  15.3886354 102.8378296  19.6740878  16.1355352
 103.5850811  18.4185767  15.7402062 113.6207962  56.2862682  67.5443459
 114.5622540  56.1142921  67.5261307 113.5526466  57.2340870  67.6593351
 100.9983635  24.1633248  63.7127018 101.1955547  23.2266569  63.7123775
 101.5321064  24.5202065  64.4226217  27.0881772  98.1601143  95.6078911
  26.4258814  98.8383770  95.4753590  27.3655701  97.9202080  94.7237301
  18.5270119  24.5370078  52.6145697  18.1695879  25.3603482  52.2820187
  19.3574274  24.4315410  52.1503305  95.0463772  52.4966240  65.2578926
  94.5886135  53.1318760  65.8084679  94.3620872  51.8927145  64.9693346
 107.5803471  45.7644367  63.1807375 106.7346191  45.4025221  62.9161835
 108.1070518  45.7512379  62.3815870  57.0990133 107.4140072  44.2272615
  56.4874268 106.7395592  44.5227337  56.8815136 108.1823730  44.7550392
 103.1753063  51.5008259  31.3247180 103.7422466  51.7740250  32.0459414
 102.3203182  51.8751431  31.5371394  75.6827402   4.6922106  32.8017616
  74.7255468   4.6935600  32.8048062  75.9245920   5.5466533  33.1590652
  65.3437853  98.3117199  12.7907419  65.7502937  97.4760342  12.5613630
  65.5226469  98.4165668  13.7252188  99.1718769   2.3935036  52.1387625
  98.3617496   2.1708882  52.5974226  98.9493275   3.1675711  51.6215372
  86.2961674  25.1992011  31.4888239  86.5178680  26.0352707  31.0788584
  86.9785023  24.5978022  31.1905503  85.7326412  19.3208277  71.4035749
  85.4138088  18.5197091  70.9878969  86.5081310  19.5614052  70.8966494
 107.3764610  33.5907912  43.5903692 107.8423500  33.0326366  42.9677629
 107.1852589  33.0155826  44.3311882  75.1209259  34.4154406  16.5272748
  74.9962854  34.6241879  15.6014669  74.8557663  33.4989023  16.6039515
  98.2469940  11.4660859  31.8300009  98.7491512  11.4562690  31.0151553
  98.4722519  10.6411636  32.2601104 103.5401821  28.3393764  39.1409087
 104.3131256  28.7791872  38.7868547 103.0634499  28.0344725  38.3689046
 106.2595177   3.7250474  47.1430779 106.2671375   2.8021047  46.8894005
 107.1792793   3.9374635  47.3016357  89.7024727  34.6431708  29.3500328
  89.7711563  34.1561794  28.5288429  88.7797928  34.5715570  29.5945144
  60.5144072  21.5821004  79.0020657  61.4507151  21.5425372  79.1969728
  60.3130007  20.7278943  78.6199665 108.4291077  19.9760997  26.5123940
 108.3291149  19.9845338  27.4643207 107.8720856  19.2549038  26.2194324
 109.7351360  26.1352181  25.4237843 109.8617840  26.2991309  26.3583040
 108.7877464  26.1878324  25.2976274  95.6515312  55.4453468  68.5605001
  96.3666630  55.0565052  69.0640974  95.7612801  56.3889503  68.6779833
  39.6137118 103.2154369  42.1822548  39.8983598 103.5940647  43.0140305
  38.6747837 103.0675411  42.2952652  77.7097511  86.1178493  46.5141678
  78.2199860  85.7476616  47.2344828  78.3394432  86.6420078  46.0192251
  94.1557980  44.2644262  31.3249016  93.6661911  45.0864887  31.3518953
  93.4915352  43.5953426  31.1596489  10.3759730   8.7189567  41.1287022
   9.7850078   8.1278741  40.6622076  10.3034115   8.4553939  42.0460320
  73.5706902  19.8151553  47.4855614  74.4367170  20.1744080  47.6783276
  73.3520699  20.1670289  46.6226435  60.1526117 102.7720261  10.3465414
  60.9678078 103.1940269  10.6178463  59.9703884 102.1360302  11.0382986
  83.4773540 107.6476955  88.8730621  84.3110180 107.5357056  89.3299007
  83.3249950 108.5926533  88.8809109 105.0479412  61.7997885  22.9054904
 105.3073311  62.5697994  22.3994946 104.1280365  61.6630745  22.6789618
  93.6481285  18.8623607  57.4778366  93.4480858  19.7923636  57.5841904
  94.1251564  18.8131857  56.6494322  73.5390568  -0.0372955  37.7656507
  73.7449217  -0.3732508  36.8933058  74.1314697   0.7054651  37.8822136
  75.1618195   8.8397789  44.9535894  75.1901913   8.4227473  45.8147001
  74.5513916   9.5692497  45.0607395  96.1561489  23.4259725  16.9572532
  96.7180729  23.6410189  17.7017128  96.0394764  22.4774504  17.0113564
  93.9977455  21.2324595  62.8684807  93.7072277  20.6158113  63.5404730
  94.9394321  21.0783219  62.7929974 112.7665997  19.5802569  46.8660307
 113.2458305  20.1660442  46.2800121 112.9572964  18.7023556  46.5356445
 117.2001171  21.0745287  53.0415583 117.8284073  21.4106846  52.4024343
 116.3633633  21.0727096  52.5767374 114.6874523  49.4165421  76.2346411
 114.5850372  49.3798208  77.1856403 115.6289577  49.3204498  76.0912466
  92.8558636   9.2456073  61.7855787  92.2974396   9.0928453  61.0233068
  92.3773861   9.8894584  62.3078299  67.9186916 106.3713837  23.3179712
  68.2623625 107.1750736  23.7080979  68.5078382 105.6836605  23.6280870
 103.8875008  85.7852650  25.8662772 104.4115829  85.5418301  26.6293693
 103.1252193  85.2076340  25.9051037  53.2977772  81.6498756  26.6953444
  52.5400877  81.1991596  26.3225198  54.0474510  81.1162090  26.4318585
   3.4242794  27.0099163  13.6473536   2.7211326  27.1207309  13.0074024
   4.2279205  27.0437956  13.1284654  84.1969204  13.9449143  51.8158340
  83.7077522  13.3179939  52.3486710  85.0617790  13.5479558  51.7125034
  80.6120872   5.0113732  65.8101416  80.2957058   4.1734007  66.1476851
  79.8976994   5.6244600  65.9833670 104.8783875  58.9757967  12.1324027
 105.0696659  58.9258099  11.1958420 105.6425953  59.4112444  12.5100303
 107.7358913   6.0904241  38.3366251 107.8903198   5.1761848  38.5744286
 108.0456924   6.5900147  39.0920472  83.3205128  89.4986343  43.8811064
  83.6379814  89.0557766  44.6680737  82.8453541  88.8210297  43.4001541
 109.0899849  33.9884019  49.0696764 109.4909573  33.1307411  48.9287281
 108.6424446  33.9080477  49.9119854  96.5713882  26.9911051  28.1978607
  96.7131519  26.6229057  27.3257565  95.8816147  27.6429915  28.0733895
  29.1922855 107.1202660  67.9389191  29.4392300 106.2063122  68.0801582
  29.9438143 107.6227760  68.2534266  85.3310966  30.1293683  29.4013190
  86.1073494  30.4735231  28.9594817  84.9428463  30.8912253  29.8315167
 101.1822128  12.1339440  26.5930271 100.6281853  12.5419033  25.9275556
 100.8315372  11.2482142  26.6865063  99.0231800  23.3350062  27.3597312
  99.4669056  22.5090408  27.1670604  98.1596661  23.2425714  26.9572020
  83.5030842  15.0953150  41.3771152  82.6273537  14.7112703  41.3342714
  83.3552265  16.0379493  41.3008976  26.8634725  66.2523651  89.2614651
  27.1813464  67.1525764  89.3308544  25.9317517  66.3103867  89.4730377
  93.3806610   8.3973259  41.8939114  93.5922146   8.9175045  42.6690817
  93.8751698   8.8103640  41.1860323  84.5825958   2.5832763  67.2583437
  85.1415062   2.6404995  66.4833736  85.1344967   2.8957710  67.9752731
 102.7899647   4.4172314   3.6729845 103.2443523   5.2555031   3.5889077
 102.5032806   4.2099318   2.7835646 109.0827751  13.8483763  61.4885092
 110.0058270  14.0845776  61.5802383 109.0050507  13.0069184  61.9381094
  62.0446444  29.8153591  49.8022223  61.3441610  29.1643882  49.8444843
  62.3687172  29.7604632  48.9032269  97.9291821  33.4760332  46.8211365
  98.3060074  34.2391753  46.3831377  98.0207443  32.7658391  46.1859465
 102.9642677   7.2775728  54.2815399 102.6317692   7.3197597  53.3849335
 103.5605049   8.0231458  54.3512106   2.8531682  25.5918407  32.6050496
   2.9820579  26.0579753  33.4310889   2.7980351  24.6698713  32.8563786
  58.2588673  89.3065166  57.5882721  57.8440237  90.1604176  57.7107573
  57.6135492  88.7944317  57.1008682  90.8029270  34.7989130  45.8495569
  90.6353855  33.8733220  46.0268831  91.5924644  34.9999499  46.3520002
   9.8609942  20.4997015  25.2670741  10.3855646  20.4713678  24.4669151
   9.9858862  21.3868737  25.6040573  16.2275887  33.6447883  77.1297646
  16.5819836  34.5050359  76.9048023  16.7596233  33.3526587  77.8699207
  92.9944324  15.5400121  26.3708162  93.8086510  15.6298625  26.8660021
  92.5838184  16.4028752  26.4264345  23.0368352  34.8662972  50.3213167
  22.7441716  35.7698274  50.4405308  23.7477303  34.7594357  50.9533310
  84.6876049  18.3907151  55.1026011  85.4336548  17.8179181  54.9249887
  84.9269199  19.2267168  54.7025251 101.7907906  18.7768543  51.3468933
 102.0959282  19.6702862  51.5047026 102.3174572  18.4707916  50.6085348
  70.7507563 106.2983418  66.8080235  71.2942076 106.7940807  66.1955357
  70.9348345 106.6893387  67.6621151  95.6820679  29.6825147  78.1435728
  94.9285603  29.5190501  77.5763559  95.5355740  30.5632949  78.4885311
  81.9115829   3.2984808  50.4589558  82.6557732   3.4116694  49.8676825
  81.1552143   3.2136887  49.8784876  23.9013243  40.5314445  39.9685240
  23.6084795  40.6472683  40.8724356  24.1867018  39.6188498  39.9242783
   6.6159368  56.0716438  60.2461815   6.7644018  55.8834934  59.3194771
   7.4942064  56.1617994  60.6159782  82.6322842  24.7452116  80.4891872
  82.5796890  25.4874825  79.8871088  83.4599400  24.3172097  80.2700138
  99.0179253  20.4461956  21.6264868  98.0959797  20.4253292  21.3699484
  99.0309715  20.0646973  22.5042772  96.9416332  36.7061925  37.3175430
  96.7496681  35.9232879  37.8337193  96.1007881  37.1579552  37.2458887
  94.6233749  12.9389441  90.7789803  94.2343521  12.0651221  90.8154964
  95.0662327  12.9687119  89.9309063  96.5490627  30.3968954  40.0881529
  97.1052361  30.7010031  40.8053827  96.2816238  31.1973429  39.6364999
 109.5762348  25.9466815  64.4626522 109.2324162  25.3783512  65.1518726
 110.3675747  25.5023527  64.1583824  88.1955528  31.4705873  20.4449558
  88.9426136  30.9019423  20.2584434  88.0467606  31.9463110  19.6277797
  60.6797123  16.2384462  13.0117154  61.2564802  15.4754996  12.9732394
  61.2691927  16.9768405  13.1650734   4.2760155  29.2227292  51.2422705
   4.8996881  28.9625144  50.5643702   3.8680488  30.0180531  50.8998442
  97.1023560  49.6870565  49.0240097  97.1623230  50.6423044  49.0357733
  97.4585629  49.4351816  48.1720066  12.0010674  30.5656004  37.8134751
  11.8122399  31.4999461  37.9004979  12.8837395  30.5329680  37.4446154
  98.8210011  12.6349258  35.2415156  98.1965065  13.0797124  35.8145761
  98.7341595  13.0821598  34.3996882  66.3009310  23.8542914  44.4204521
  67.2437716  23.7210941  44.3228006  66.0264206  23.1782126  45.0399637
   5.3616506  23.9482737  46.3273907   4.5972487  23.6838245  45.8155441
   5.2056515  24.8702645  46.5319157 106.9631386  44.4697475  47.8297949
 106.7748260  44.4277525  48.7673473 107.4279404  45.2987146  47.7157497
  56.6623211   0.6710224  65.2147627  56.0418606   1.1152031  64.6368647
  57.2006893   1.3756940  65.5750799  64.7628212  19.4077253  25.3890085
  64.4839144  19.9496698  24.6509457  64.9537182  20.0339508  26.0873151
  71.5078306   1.5589041  48.6001444  72.1202517   0.9630650  49.0316010
  70.6914616   1.0625213  48.5420465  84.1643620  28.3403945  88.4572697
  84.5297241  27.4561715  88.4273911  83.3577442  28.2836914  87.9450321
  74.8910809  17.8849304  37.1505237  75.5710411  17.2176957  37.0573545
  75.1057434  18.5400152  36.4864326  11.0886025  17.4578404  54.2561293
  10.9707415  16.5673971  54.5869589  11.9402814  17.4403858  53.8195848
  78.0791426  12.0036876  54.7174454  77.2579241  11.6041124  55.0041008
  77.8798723  12.9373550  54.6482468 101.0628891  19.4793379  19.5644927
 101.2027073  19.7121930  18.6466360 100.5662727  20.2139473  19.9249840
  62.7666283  89.9852276  14.2662418  62.9085875  89.9672318  15.2126849
  62.6578188  90.9131432  14.0579736  99.3601704   9.0809929  32.8066874
 100.2244759   9.4916791  32.8301859  99.4424343   8.3169746  33.3774233
  19.8395920  26.6062117  43.6665440  19.0726507  27.0135784  43.2639456
  19.5384014  25.7366300  43.9298773  97.7575111  17.7405047  21.9611549
  97.9374027  17.5548601  22.8827882  98.6142445  17.6972198  21.5364552
  96.4295483 105.9525299  72.5429869  95.9203529 106.7629051  72.5270033
  96.9116020 105.9562111  71.7160416  87.5545406  29.7423768  11.4501345
  87.1688175  30.5599475  11.7648268  87.0541573  29.5290518  10.6625140
 107.0559311   7.2685903  32.8358865 106.8020916   6.3458258  32.8183913
 106.4478683   7.6725662  33.4550023  19.8291755  25.6974721  23.3669114
  20.7805896  25.7862043  23.3106303  19.4896173  26.4853358  22.9424071
 100.4915237  57.1724176  79.5808649 100.0722980  58.0263901  79.4749832
 101.1297131  57.3041821  80.2819920  69.8572731   4.9890041  25.2439499
  70.4498148   5.7192904  25.4222918  69.8443794   4.4865894  26.0585928
 116.8060017  38.1510091  57.6556206 116.8346786  37.8586555  58.5666275
 116.2093639  37.5380588  57.2260380  89.6188927  17.7927876  44.2080879
  89.1792679  18.6027694  44.4667196  89.3959236  17.6839173  43.2836056
  74.7884846 102.0589542  56.5228176  74.4019413 101.5981007  55.7782173
  74.1488457 101.9547749  57.2272587  71.9478846  90.9171391  58.8107967
  71.7674446  90.3271675  59.5426464  71.9437742  91.7911434  59.2010880
 101.0263062  21.3694239  70.3081656 101.0717583  20.4162335  70.2333736
 100.7221699  21.5252852  71.2022829  76.4158249   6.6192609  37.9196072
  76.4017677   6.0601920  37.1427679  75.9110165   6.1345845  38.5726690
   6.1084831  12.1821833  47.1645594   6.2826967  12.3345780  46.2357664
   6.9636697  11.9662035  47.5363684  38.7849164 108.3192158   6.7142957
  37.9030061 108.0838394   6.4260894  39.1642332 107.4958229   7.0215142
 100.2623177  12.5705266  47.1044874 100.5600643  13.0126333  46.3094234
  99.4652271  12.1117127  46.8392086  64.6951580  12.9443848  39.0198469
  65.4471016  12.4379539  39.3270016  64.2366648  13.2014930  39.8197937
  82.4331188  25.4457235  39.9465656  81.9642258  26.2225842  39.6418357
  81.9838428  25.1962042  40.7541037 111.1843777  28.3043003  40.4252625
 111.5494823  28.2098103  41.3050365 111.0167885  27.4067879  40.1378250
  79.4283295  17.1776772  78.4162283  79.1795349  17.7782381  77.7136183
  78.8197136  17.3763144  79.1278219  89.6275520  66.7830753  10.0997460
  89.7271538  66.8143034   9.1482550  89.3596745  65.8826017  10.2831018
  69.1974306  27.8750062  49.9337482  68.5453081  27.6581979  49.2674446
  70.0323057  27.6122689  49.5462084  98.3568192  12.3183513  70.0977421
  98.0985546  13.2400525  70.0963306  98.8569927  12.2110045  70.9067726
  87.8458309  31.9262552  45.4356050  88.5650826  32.2146773  45.9975004
  87.2706604  31.4304376  46.0183382  79.1942355 111.7193935  58.0732679
  79.6176376 110.8841956  58.2717800  78.4422080 111.4835448  57.5300741
   2.6183739  65.4290962  21.1947656   2.8284103  65.0896120  20.3247833
   3.4390992  65.3617287  21.6827226  86.3403893  27.3054314  26.5601945
  86.3906765  28.1767464  26.1671090  85.7221031  26.8283105  26.0067391
  80.7550526 110.7304573  22.6031208  81.4212704 110.2601433  23.1043124
  79.9971247 110.7661057  23.1866455  75.8858490  49.9848413  71.3689756
  76.1374235  49.0927410  71.6079330  76.3574123  50.1564837  70.5538702
 109.8402500   7.1874893  61.6470623 110.4380798   7.6878554  62.2024632
 110.3102779   7.0864666  60.8193541  85.7326317  45.8083487  66.4916182
  85.9649181  45.2990723  65.7151413  86.0503578  45.2833652  67.2262478
  86.7331886  19.6925914  43.2488537  86.6231823  19.0431130  43.9433336
  87.1266842  20.4472780  43.6868477  87.3920727  17.0580447  58.1727457
  87.5644493  17.5682211  57.3813915  87.4033642  16.1474657  57.8778696
  61.3115549 103.9857578  66.9450521  61.6833448 104.4707966  66.2083435
  61.7129469 103.1186676  66.8879366  55.0141001 108.1429768  67.6174927
  55.0801659 108.2970810  66.6750956  54.2420912 108.6400604  67.8879356
  81.1447334  24.9183226  32.5935817  80.6736946  24.0934658  32.7117610
  82.0499897  24.7127533  32.8269911 113.0125237  30.4389977  20.8239365
 112.4468899  30.5331206  21.5903783 113.8745499  30.7253480  21.1258245
 111.5351772  22.0225382  68.6324930 110.6464291  22.0895004  68.2833815
 111.4948940  22.4702001  69.4776011  52.6377439  95.0768948  79.7820759
  51.9697189  95.1296043  80.4655933  52.1990919  94.6407700  79.0515852
 115.2479076  26.7355633   9.0045708 114.3769360  27.1318579   9.0286249
 115.0978470  25.8468032   8.6823624  60.2961016  20.2600312  22.0896244
  60.1318359  19.5109558  22.6624537  59.4622850  20.4076314  21.6433072
  31.0464454  79.8437834  88.8023567  31.0454965  80.7957363  88.9024258
  31.1116695  79.7022963  87.8579235   1.2133638  58.0890846  91.5616035
   1.5556626  58.8228607  91.0510731   0.3797859  58.4068966  91.9085598
  20.3594804  28.9675951  72.8349161  20.0945902  28.4089613  73.5656643
  19.6368599  29.5869541  72.7327156 113.7454224  22.2435164  67.5151110
 114.3877983  22.2429633  68.2247448 112.8981209  22.2783136  67.9590702
  93.9725590  14.2840433  80.4546547  93.2117462  14.2323995  81.0332108
  94.1783714  13.3724356  80.2476692  81.0318375  98.9591599  26.5824103
  81.2674713  99.8867226  26.6007805  80.7009506  98.8136101  25.6960893
  94.1699219   6.0843664  20.2451754  94.4435883   6.9354862  20.5871296
  94.0794754   5.5320853  21.0217285  90.4783821  41.4177418  17.7705610
  90.9449577  40.8090687  18.3433223  89.7323132  40.9149599  17.4437273
  81.4165401   7.2329110  45.1553631  81.1250973   7.5997579  44.3206692
  81.7546654   6.3659912  44.9309540  82.6526260   3.2765618  57.8580189
  82.5445747   3.4187439  56.9176245  83.4757423   3.7150362  58.0735302
  19.8291183 100.3820229  37.4633121  19.3385196 101.0699940  37.0135975
  19.1787052  99.7035980  37.6448035   9.8879689 103.7268734  32.5351977
  10.5762577 103.5049438  31.9081092  10.3267562 104.2695045  33.1903648
  89.6300507  20.2039385  65.6095743  90.1028919  20.9086013  66.0524082
  90.3101540  19.7100508  65.1515722  60.8703661  85.0455189  14.0376997
  60.3537321  85.8513069  14.0427732  60.7806015  84.7090626  13.1460869
  84.9222088  14.0173113  32.4392486  85.7254410  14.3048549  32.8732538
  84.7899437  14.6521580  31.7351842 101.9467926  25.7846832  49.0931034
 102.5800228  25.9326792  48.3907175 101.8592167  26.6368723  49.5201159
  93.5073471  -0.0631791  53.8975096  92.6337910  -0.1591643  54.2768812
  93.3479786   0.2305241  53.0005312  57.3855972  28.1267858  64.0295744
  57.6461601  27.2231841  63.8511181  56.4513016  28.0714631  64.2302227
  79.4050026  22.1938109  17.5877440  79.2497921  21.6967893  18.3909309
  78.5736465  22.1511388  17.1152449  94.5379353  57.9953384  50.4617786
  94.5435810  58.3822918  49.5862961  95.4285526  57.6665688  50.5840778
  95.4868221  17.4058890  45.9838820  96.3414764  17.3228443  46.4068460
  95.6676865  17.8726912  45.1680326 103.0217457  24.7407937  52.4782658
 102.7592182  24.7750831  51.5584087 103.8445473  24.2516947  52.4744415
  77.5067902  16.5503442  33.9032745  77.0293093  16.1677122  33.1671786
  78.1316042  17.1510947  33.4971547 112.1577454  26.0888147  71.3350677
 113.0971050  25.9978104  71.4949417 111.7694759  25.3139496  71.7413378
  78.8099575  13.4331095  34.2692518  78.4178448  13.7648499  35.0769806
  78.9103746  12.4932325  34.4201779  60.8848429  15.1964009  29.1273451
  60.8732700  16.1515582  29.0659213  61.1816120  14.9045432  28.2653832
  55.8169556 111.2695217   5.8563626  54.9928713 110.8500862   5.6090128
  56.3393164 110.5643749   6.2386453 103.1110764   9.6115839  67.6058769
 102.6830006  10.0884092  68.3169460 102.9565048  10.1497436  66.8295240
  89.6804523  36.3978553  49.9549866  90.0003338  37.2960520  50.0395298
  88.8063049  36.4172649  50.3444958  60.7301378  90.3136539  48.3682251
  60.9671688  91.1632538  47.9964495  61.2752295  89.6847916  47.8953075
  99.3717766  35.7597375  30.8338332  98.8028336  36.2111878  30.2103472
  99.1558266  36.1496496  31.6809249  80.8761692   5.3849745  95.8864307
  81.2249470   5.7927442  95.0937748  80.1242447   5.9275937  96.1239529
  68.6988318 110.8144014  61.4689445  68.3921015 111.7165755  61.5596724
  68.5507548 110.4233461  62.3299789  85.9281635  14.0634799  40.7705688
  86.7208672  14.3679476  41.2123346  85.2321243  14.6231318  41.1148643
 103.8495159  48.3971071  24.9342799 104.3087006  47.7685499  24.3772364
 104.0580559  49.2506790  24.5545983 106.4750481  15.9442401  31.9171953
 107.2267437  15.6629574  31.3956046 106.6075897  15.5312347  32.7704787
 105.1533604  17.3553145  43.6575317 104.5163536  17.9536390  43.2670593
 105.9240055  17.8991044  43.8207197   6.1513138  63.2847643  82.7848148
   6.2526798  64.2321444  82.8766251   5.6076503  63.0287361  83.5298729
 113.2543945  54.1961622  11.8158686 112.8648567  55.0698566  11.7819405
 112.8635597  53.7895346  12.5892603  96.8818283  60.8844948  62.5699425
  97.6372337  60.3170252  62.7234507  96.2290573  60.3109360  62.1684980
   1.6761129  27.2659230  42.0489693   1.6231683  26.5841818  42.7187872
   1.1308692  27.9764414  42.3867655  93.4854126  14.7487056  51.4254427
  93.7934685  13.8798094  51.6830349  92.7281857  14.5780456  50.8653402
  87.0901108  32.9735637  93.0433178  86.5543652  32.8411841  92.2612190
  87.8888321  33.3895326  92.7189159  97.7018356  69.3647718  53.9498186
  97.9433060  69.4010305  54.8753500  96.9259071  69.9212599  53.8827467
 100.7895279  48.1780910  65.5505133 101.0319424  48.1610060  66.4763498
 101.2127399  48.9647579  65.2065897  16.3183415  20.5886865  55.3503180
  16.6159534  21.0221934  56.1501503  15.3720629  20.4998922  55.4639101
  12.9569733  49.0829563  73.7610054  12.8211975  49.8183298  74.3585205
  13.9071882  49.0299559  73.6584663  10.0976419  57.3496008  78.0469513
  10.8935034  56.9353580  77.7134228  10.3090441  57.5809956  78.9513826
 115.9471130  21.2136292  47.6431656 116.1066055  20.6313920  46.9003344
 116.1556625  20.6833005  48.4122515  93.1222916   1.8839732  61.1740494
  93.8284111   1.7245404  60.5477762  92.4460220   2.3299043  60.6641150
 114.9545860  22.9564500  10.5710769 115.8862209  23.0673838  10.7607508
 114.8236561  23.4116006   9.7392559 108.4801960  38.4431934  17.9364944
 108.6877632  38.7958288  17.0711660 108.4068298  39.2147350  18.4982526
 116.9909286  39.6072459   2.7275604 117.3301029  40.3970337   3.1487823
 117.2969532  39.6681666   1.8226457 105.1237965   5.7984233  38.3973408
 106.0408020   6.0688031  38.3501911 105.1583672   4.8437417  38.4574986
 108.6367416  24.2516327  66.3027430 108.8099003  23.6472154  67.0244980
 107.7991581  24.6576262  66.5260267 105.1172447  79.7559786  58.6120176
 105.7974911  79.0845490  58.5602474 104.6611595  79.5720434  59.4332218
  91.8171310  17.4061942  28.4932899  91.2315559  17.8360868  29.1166139
  91.6004753  16.4764583  28.5631752 110.9403896  36.3925695  46.6580248
 110.3741932  35.7285857  46.2646103 111.8189526  36.1719775  46.3486576
 112.5728703  63.8124609  38.4384608 112.5325775  63.0353260  37.8810811
 112.6890564  63.4667158  39.3234420  93.9931774  36.3972425  50.5383873
  93.2455063  36.6590905  50.0011253  93.8030434  35.4932427  50.7891178
  97.1274662  47.8240919  77.8940010  96.3589859  48.2378387  77.5009680
  96.7889309  47.3793125  78.6710405  99.9263382  30.0883436  48.1277466
 100.7975292  30.3402376  48.4340334 100.0246906  29.1782451  47.8479528
  97.4001312  11.7567062  47.1614408  97.4060917  11.0671496  47.8252983
  97.5745678  12.5611019  47.6500607  88.8309479  87.5204277  46.8948936
  89.2495918  87.6317692  47.7484560  89.4665813  87.8678799  46.2692165
  18.7950516  43.5431337  45.5674934  19.2446423  44.0370750  46.2531471
  18.5542023  44.2020941  44.9163437 116.1850548  37.7231860  60.5765390
 115.4345894  38.3008075  60.7158041 116.3317776  37.3115754  61.4281702
  11.0567713  11.5723288  21.2705374  11.8898225  11.1514533  21.0581207
  10.6695890  11.0114658  21.9426632  81.2790871  68.6501408  66.4079428
  81.2535095  69.5718670  66.6648388  80.6510925  68.2218456  66.9896793
   6.3306904   2.8307456  55.3931999   5.9015298   2.0491801  55.7413483
   6.8302906   2.5144479  54.6404791 112.9935551  45.9959888  37.8701401
 113.9131165  45.7686377  37.7324486 112.9865551  46.4737272  38.6995673
  94.0908718  45.5428648  59.1903353  94.7749996  45.3079081  59.8172331
  93.6078548  44.7290421  59.0467310   4.4766405  62.1396875  46.5368986
   3.8516477  61.6574621  47.0782614   3.9361665  62.7429533  46.0268116
  15.9789896  46.8787193  50.9157181  15.0745988  47.0118761  51.1995792
  16.3305473  47.7631092  50.8132792 102.4354553  48.0669260  40.7229424
 102.8807545  48.7012482  40.1611805 102.8649235  47.2334433  40.5303526
  79.4602299  17.2840559  42.2334528  78.7760782  16.9465649  41.6552925
  79.8822594  16.5012693  42.5875330  88.9345360  24.3436170  55.8428669
  88.5741043  24.8025846  56.6015959  89.7258091  24.8339677  55.6199789
  88.0371380   7.5747299  57.4971390  87.5203800   8.2876688  57.1217585
  88.9322758   7.7487659  57.2061539   0.0392806  13.6620772  77.5741291
   0.9724700  13.8343179  77.6995420  -0.3651632  13.9188802  78.4028101
  88.1949997  41.6371679  86.5626431  88.9798069  41.9977188  86.9753075
  87.6359749  42.3980951  86.4054108 101.9749069  56.5963554  70.9278631
 101.3790131  56.8426657  71.6352987 102.7696609  57.1022797  71.0970926
  95.6115532  33.3133268  48.3852530  95.6230640  32.9558778  49.2731333
  96.5353107  33.3975363  48.1489706  15.8672309  60.3888273  78.2033634
  16.4985001  60.7594967  78.8200808  16.2875295  60.4777098  77.3479795
   6.9212502  58.9299536  38.7621689   6.3518506  58.1659079  38.8529682
   7.2526479  58.8765192  37.8657579 117.6764297  26.4802837  53.7715292
 117.0086670  27.0764279  53.4324932 117.1803379  25.7471299  54.1356850
   6.0252762  33.6944723  56.6274309   5.5395371  33.9039969  57.4251699
   6.8135345  34.2351413  56.6779995  42.7237558 100.0222111  63.8549089
  42.2164965  99.3362141  63.4209538  42.4222708 100.8354759  63.4500074
  97.7185726  31.5540767  80.7086563  97.5523281  31.9030213  81.5843487
  98.5132122  32.0023394  80.4190922 111.5626812  45.2902079  50.2731800
 112.0645142  45.5616140  49.5045900 112.1435547  44.6879721  50.7380724
 114.2886257  39.4154072   0.7916167 115.0489426  39.5353532   1.3606229
 114.0475941  40.3022146   0.5238437   7.8475738  32.7897978  39.4643807
   8.6334199  32.5536370  38.9715242   7.1357590  32.7194166  38.8282990
   2.0202839  54.5206690  59.6712160   1.3164243  54.9247217  60.1787138
   2.8020081  55.0210142  59.9053001  75.8618164  35.2072978  18.9399636
  75.5923128  35.1641703  18.0224991  75.5845022  34.3695092  19.3106914
  85.8678913  26.3755083  37.4084020  85.7311058  26.4032602  38.3553696
  84.9951458  26.5029192  37.0364952  15.3775024  67.8853226  38.7749195
  14.7429466  67.1771193  38.6653018  15.3598070  68.3540487  37.9405260
  89.0300083   3.4024101  30.7997918  89.0242577   2.4489534  30.8841658
  88.3813286   3.5866553  30.1204515 105.1259804   7.4010670  73.2539034
 104.4564629   8.0633599  73.0825949 105.4595089   7.1679664  72.3874950
 102.3199749  31.6752768  49.5716000 102.6888275  31.9581175  48.7348318
 102.8673935  30.9363079  49.8371029   1.0272104  61.2051249  23.1534553
   1.3858709  61.3328505  24.0316820   0.1656713  60.8149767  23.3009934
  33.6122847  42.3362589  66.7457914  33.2695270  43.2073641  66.9456005
  34.4368529  42.2866011  67.2293711   1.2008962  63.6987019  34.2025113
   1.2552385  63.7249994  35.1578069   1.9872764  64.1563463  33.9051890
 106.6535568  66.5519047  13.6411595 107.0930767  66.0174322  12.9798007
 107.3668289  66.9467449  14.1427374  28.6056638  26.4479971  56.7557001
  28.7637782  25.5435467  56.4851427  28.6159372  26.4171052  57.7123499
  80.7895660  14.4675100  41.2019730  80.5190849  13.5645711  41.3686275
  80.6056976  14.9276495  42.0209312 111.2630939  60.4562378  16.6889024
 111.6646767  59.5908451  16.6111243 111.5172482  60.9112597  15.8860350
 102.0492268  38.4828281  60.7045031 101.6155338  38.2949209  61.5368652
 102.9817295  38.3719683  60.8899117  87.5662899  13.5202050   8.1736147
  87.0919800  13.2147479   7.4003386  87.6098728  12.7541971   8.7459469
 103.6864662  38.3071876   2.9846865 102.7864170  38.0904031   2.7414748
 103.5975170  38.8766360   3.7489170  78.6786509  28.4805560  54.3298626
  78.8493872  27.5448895  54.2221069  78.6826944  28.6172152  55.2772474
  79.4784737  26.4832234  95.1459026  78.7181044  27.0452094  95.2950382
  79.2418385  25.9579539  94.3814945 108.5367966  10.4457402  58.8530445
 108.2995319   9.9072677  59.6080208 107.7229023  10.8855033  58.6072493
 106.3903999  40.2842283  38.3961964 106.8565369  41.1143541  38.2969880
 106.2921524  40.1762819  39.3422008 108.1224155  43.7564278  31.7073488
 107.4699211  43.5638618  32.3807001 107.7477360  44.4848490  31.2121177
  19.8722553  91.7959309  68.2673836  20.0062680  91.4120865  67.4008226
  20.6287241  92.3682976  68.3954048  96.8435383  29.9282789  37.0007157
  96.8529892  29.0573525  37.3977423  97.7353287  30.2552247  37.1192288
  83.5400772  22.1430206  10.7298672  83.3331299  21.9081140   9.8253113
  83.7254715  21.3071990  11.1579585  14.1214538  49.3193245   6.4524609
  14.0547478  48.4525347   6.8530291  13.5699308  49.8789215   6.9991851
  88.3869553  24.9479032  47.0249748  87.8574181  24.2926836  46.5705299
  89.1135788  25.1249146  46.4275599  13.9411604  73.9918375  37.1037650
  13.9214909  73.0360651  37.0553827  13.1536663  74.2229795  37.5963688
  13.0793679 103.1124496  -0.0506973  12.7083528 102.9822922   0.8220213
  13.7367415 103.7979698   0.0683135   7.1759248  69.6131229  52.7081919
   7.0835727  69.8769712  53.6236620   6.3572609  69.8886633  52.2957611
 115.9318733  34.3528390  47.2221375 116.0539722  33.8274527  46.4313841
 115.0485039  34.1356516  47.5199747  96.2746048   4.9341175  38.6235547
  96.3325405   4.5273378  39.4880819  95.4570103   5.4313368  38.6471152
 108.0583572  67.5322676  42.9387760 107.7645206  66.6653156  43.2185745
 107.6805687  68.1322861  43.5818052  74.3031216  63.7297964  27.1621776
  74.9835539  63.9208031  27.8077507  74.7780895  63.3708620  26.4126396
 101.7460918  31.1334109  67.4418736 101.1846161  31.8290472  67.0997381
 101.1430359  30.4203248  67.6517820   3.7940776   8.4176320  28.0386782
   3.3633348   7.5734353  27.9044247   4.5805636   8.3744019  27.4948001
 113.3487511  44.1616917  54.8036814 112.7542782  43.5114479  55.1778746
 112.7782059  44.7541142  54.3140459  20.9964204  65.0916862  79.1914082
  20.7331371  64.4445181  79.8456907  21.7084265  64.6699429  78.7103605
 106.8594456  11.7133248  55.4696083 106.7743587  11.6144931  56.4178801
 106.0938072  12.2271526  55.2126884  24.0580773  36.6463232  36.6749048
  23.8177037  37.1231723  35.8805060  24.8786020  36.2069464  36.4514804
  86.9892979  33.7286615  13.6631763  87.2992039  33.1059599  14.3207693
  87.2044849  34.5876646  14.0265501 100.3485489  63.4568071  29.7210979
 101.0355282  62.8440332  29.4587851 100.7951450  64.3002605  29.7943473
   3.1469423  31.6578269  80.6558323   3.0970886  32.5256801  81.0565567
   3.6140531  31.1238050  81.2983704 104.8291302  36.2347794  84.0611839
 104.8035526  35.2787757  84.0207767 105.5195045  36.4293313  84.6950340
 103.5371685  50.6489515  54.1352987 102.6499748  50.4990959  54.4618797
 103.4608746  51.4270449  53.5830498  98.6128616  33.0492592  31.0932612
  98.9182186  32.7983880  30.2214503  98.9841366  33.9199448  31.2357235
  95.2601719  69.2461205  45.8375359  95.4008007  69.5278835  46.7414522
  95.9373951  68.5873270  45.6839037 116.2635422  38.6019588  47.9935265
 116.4915657  37.6800036  48.1128645 116.0729885  38.9178300  48.8767815
   3.4240109  33.6737895  52.3028183   2.5149518  33.4445119  52.4958849
   3.8415340  33.7413549  53.1615019 112.5071144  18.9047492  55.6526327
 112.7904034  18.2767320  56.3171387 111.5734005  18.7276876  55.5383444
 112.9998207  17.6748776   8.9294332 112.5018692  18.4888864   9.0046960
 113.8906765  17.9573309   8.7224710   5.4711521  60.6198502  89.2431355
   4.9642241  59.9349785  88.8070011   5.0421542  60.7319212  90.0914478
  95.9980679  37.5710130  48.3812380  95.4992199  38.3817148  48.2805014
  95.6880474  37.2001123  49.2074060 113.5095787  49.6394348  42.5124645
 113.7486076  50.2408504  43.2177305 113.1307316  50.2014351  41.8365479
  95.2461052  48.3113623  63.8577032  96.0259438  48.1099129  64.3749142
  95.5481243  48.9431858  63.2051563  96.7357254  37.9599714  69.8427963
  96.0720539  37.9146624  69.1545248  97.5305843  38.2430601  69.3908119
   6.0685164  88.1927586  66.7359829   6.9580102  87.8898811  66.5535021
   5.8542633  88.7645817  65.9988689  90.0571346  41.0606861  62.1282482
  89.2645741  40.7524014  61.6888905  89.8537159  40.9973717  63.0614376
  23.2554030  44.3091631  56.4520311  22.7087641  43.7716866  55.8788490
  24.0347958  44.4996977  55.9300423  94.0026569  31.5357637  47.1826553
  94.4019508  30.7019305  47.4306870  94.5870495  32.1995091  47.5489473
  95.6267643  49.9982738  61.8022394  96.0987091  49.5791674  61.0826206
  94.7363377  50.1127577  61.4701891  96.9055939  36.3056636  58.6168146
  96.0411263  35.8948708  58.6033058  97.0924282  36.4400363  59.5459366
 111.6709805  77.8257275  92.7380180 111.8104172  78.3383989  91.9418049
 112.2893047  78.1921625  93.3701801  97.4585152   9.6529126  18.2965410
  96.5759468   9.9095815  18.5638011  98.0034256   9.8365951  19.0617633
  90.0402164  69.9960423  87.4085426  89.5388889  69.9926615  88.2239437
  89.8139477  69.1680908  86.9848347 101.0504627  50.4501295  47.7212095
 100.9038448  51.3725758  47.9305506 101.8502903  50.4480600  47.1953678
   0.9306050   3.6825436  52.9394531   1.7431366   4.0865150  53.2441330
   0.7848623   2.9534745  53.5423183  95.9108448  34.0320849  41.8336630
  96.0478783  34.6894336  42.5158262  94.9725056  33.8457179  41.8656778
  76.5125227   1.0935574  59.8577404  77.3437262   1.4641845  60.1543331
  75.9250736   1.1929327  60.6069136 109.2771053  48.0952120  23.4272122
 109.0535641  48.9936018  23.1839848 109.4407845  48.1358433  24.3694401
 112.5701523   6.5597457  25.9703326 111.7433834   6.9815248  26.2043834
 112.8033352   6.0446823  26.7427087  25.4280138  28.6359358  52.4643183
  25.9629774  29.2277908  51.9354010  25.8435273  27.7799368  52.3601818
  10.9331381  19.5637512  56.0947609  10.1349497  20.0376821  55.8612680
  11.1622465  19.0760875  55.3036070  88.4866619   4.8746857  55.3176975
  88.3343697   5.6625485  55.8395338  89.0217876   5.1739854  54.5826530
  86.1775303  39.6058130  66.1287975  86.0376835  40.3162193  65.5027056
  85.4981232  38.9648581  65.9194565 111.7024040  45.5197001  25.9743118
 112.3584461  45.1846838  25.3630877 112.1603203  46.1999893  26.4680219
  95.9616375  35.5417037  46.6332245  95.9876537  36.3246846  47.1832228
  95.9850407  34.8127007  47.2530937   3.5422572  12.2145510  39.5241570
   2.6177296  12.4522030  39.5948839   3.9831457  13.0329466  39.2959499
  90.0533581  28.2267261  35.2710605  90.4850292  28.4876752  36.0845709
  90.3740692  27.3405933  35.1033068 103.8831234  39.6784568  44.0064430
 104.7871113  39.5193624  44.2779970 103.9100456  39.6405578  43.0503750
 104.4898319  40.4323101  34.5705485 104.0991306  41.1709785  35.0374031
 105.1462078  40.0867558  35.1755238   5.8758295  34.6959281  38.6976290
   6.1958152  34.8364210  37.8065038   5.3158528  33.9224076  38.6318707
   8.1841820  63.9362860  52.3057032   7.6604307  63.8248491  53.0991125
   7.5434089  63.9426279  51.5946484  92.2227573  27.1274376  33.5330248
  91.6255569  26.3867569  33.6377907  91.7017937  27.7935791  33.0845976
  17.6088834  47.9613304  57.7081776  18.2354331  47.6626110  58.3672905
  16.9709706  48.4777117  58.2007742  89.8272610  60.9603548  47.3762798
  89.4883347  61.3875914  48.1629419  89.1424274  61.0888815  46.7199945
  70.6634426  41.6655731  73.0368090  70.2838659  41.5469313  73.9074898
  71.4774370  42.1441841  73.1935787 107.3088646  41.7718840  10.1640248
 107.7483654  42.4683046  10.6519449 106.3859177  41.8578625  10.4027998
 116.0967445  14.6506596  53.5263872 115.4528999  15.3356671  53.3462286
 116.4925289  14.4640756  52.6750565  13.4648871  44.3175364  71.2057114
  13.2242572  44.9055910  70.4898024  13.3874321  44.8553467  71.9937420
 109.3574905  42.9071140  58.3625221 108.9635372  43.6422348  57.8928041
 110.1214886  43.2837105  58.7992287 101.7224598  38.2944536  45.8643723
 102.3301125  38.6695051  45.2269459 100.8791542  38.2802415  45.4117537
  82.0029926  67.8268623  52.5700188  82.3284340  68.3006382  51.8046045
  81.0904026  67.6293564  52.3592758 115.5445957  40.4188585  56.6481733
 116.0217953  39.6323252  56.9125271 115.9238529  40.6560135  55.8019161
   5.2601016  36.2437487  20.2111173   6.1362684  36.0689211  19.8676074
   5.1168990  37.1744990  20.0395656  12.2007418  31.9429398  35.0224996
  12.0141959  32.4832249  35.7903051  11.5086234  31.2817287  35.0210261
  81.7020512  15.0790536  65.4614210  81.2796497  14.8470438  66.2884521
  82.1062851  15.9302819  65.6294680  87.8580093   8.5041255  74.0703440
  88.3761120   8.4877813  73.2656479  88.4842396   8.7433869  74.7535896
 100.8238411  25.4755497  32.7229834 100.6673145  26.2397861  32.1682978
 100.3945160  25.6889439  33.5514617 112.8254795  13.6540639  18.8942862
 112.2577095  14.0313375  18.2223248 112.3175621  12.9284501  19.2572355
 103.1141067  42.3321059   0.9360952 103.4988762  43.0338672   1.4611883
 103.7095380  41.5917590   1.0526151  61.1772346 109.5555592  70.7974386
  61.6434240 109.9783325  70.0762129  61.5310192 108.6665058  70.8228350
  93.1220722  54.9315214  70.2581501  93.8810062  54.7673655  69.6984148
  92.7097034  55.7085323  69.8807430   8.2344806  23.1356788  23.7527275
   7.7869523  23.2675529  22.9169297   7.8172380  22.3602843  24.1281009
 114.6583366  30.4586411  31.3491654 115.2150536  30.3347611  32.1178961
 114.1993046  29.6246815  31.2489724  91.2882137  38.4616542  73.7781906
  91.6962910  37.7584434  74.2833567  90.7070923  38.8979983  74.4012022
  97.3959160  23.2366896  45.8173037  96.4404106  23.2936025  45.8146095
  97.6669788  23.7937498  46.5469885  75.9471607  19.7399557  64.5886660
  75.4569483  18.9223015  64.6744776  75.5558777  20.1754522  63.8313818
  98.7346649  28.9084983  66.4592743  97.9553127  29.1567492  65.9620714
  98.6596870  29.3944478  67.2805357   2.7505627  23.6399746  68.6243153
   3.4392977  22.9818201  68.7176228   3.1533086  24.3362021  68.1053782
  67.6441240 111.0022545  53.3766794  68.2804489 110.9006405  54.0844870
  67.1657085 111.8013477  53.5975981  94.3899441  37.9419208  67.6940823
  94.0589714  37.0463181  67.7617598  94.8421001  37.9670811  66.8507814
 112.4588203   3.2638505  52.4226522 112.6484108   2.7816021  53.2274628
 113.2623959   3.1948829  51.9071627  93.2248020  36.2892437  79.6285915
  92.5451279  35.7256556  79.9982452  94.0021896  35.7322097  79.5884800
  88.2860565  29.5636940  62.3929262  89.1466045  29.8340058  62.7132893
  87.8351021  30.3846979  62.1958971  36.2875795  60.2861547  31.0147882
  36.5123868  60.3288031  30.0853395  35.3446865  60.1216507  31.0258412
 115.9193897  13.7708879  26.2081933 116.4153290  13.4766865  25.4441714
 116.4603233  13.5186410  26.9565201  82.1220970  15.1937819  50.4157639
  82.9018116  15.0537133  50.9530306  81.3909817  15.1070881  51.0274792
   3.1284341  20.0746584  59.7267771   3.0209744  20.0771642  58.7756348
   3.8301590  20.7048249  59.8901939 103.6461830  20.8154225  19.8941946
 103.0068970  20.1032209  19.9121988 103.2393169  21.4887428  19.3489087
  59.7832775 107.5801754  58.2493353  60.3210306 106.9980431  58.7861490
  59.6151972 108.3367538  58.8110924 115.8154869  19.5645988  45.2683878
 115.0255680  19.8104048  44.7868967 116.3625145  19.1205966  44.6204281
   2.9723296  14.6208358  75.2504158   2.4717678  14.5634365  74.4365501
   3.1154305  13.7102091  75.5083179 113.4000874  27.1024442  14.8832583
 113.2925034  26.4889264  14.1564476 112.8168011  27.8308630  14.6701586
 116.5793419  43.7877274   5.1460040 115.6832218  43.5460234   4.9119502
 116.4895821  44.2772865   5.9636259 104.4703674  53.6723661  50.7478285
 103.6698818  53.4019375  51.1976337 104.4058704  53.2702351  49.8815918
 112.4018574  48.0952120  61.6964197 112.4176502  49.0410423  61.5501785
 113.1881046  47.7716970  61.2566710 113.1419659  52.3859072  63.6570168
 113.4174156  53.3016062  63.6139584 112.5087738  52.3597431  64.3743896
  19.0873897  33.9301443  75.3761673  19.8008966  33.2950664  75.4379511
  18.3420491  33.4225273  75.0551939  10.4411268  64.5459175  82.6405144
   9.7317398  64.5513058  81.9978905  10.0021291  64.4136286  83.4807587
  16.9989026  51.5783310  53.9029217  16.3915312  50.8399343  53.8570738
  17.2794247  51.6012669  54.8178053 106.8036938  26.9941950  24.9953127
 106.1546898  26.6463757  24.3837190 106.7370987  27.9443550  24.9004769
 105.4732513  63.7835979  34.8139358 104.9537373  63.6679888  35.6095362
 105.5421066  64.7324944  34.7086263 111.5865612  78.8164377  64.9479628
 111.0677910  78.7175655  64.1496277 110.9559441  78.7026072  65.6590128
  83.8727188  49.9667311  13.4548306  84.6891975  49.6408415  13.8334954
  84.1242599  50.2993488  12.5932515 104.8366547  89.2674637   9.5304388
 105.4690075  89.3959427   8.8234329 104.5176601  88.3734703   9.4069457
   0.5060088  81.2215805  49.9779129   0.7356917  80.4055214  49.5334911
   0.8054911  81.9101238  49.3842316 117.5536251  44.3611813  21.2005591
 117.1774483  43.6987638  21.7801476 118.4937286  44.3283367  21.3776350
 102.9909706  24.0425706  14.0250683 103.2010365  23.4854746  13.2755685
 102.7899742  24.8957467  13.6404610 103.7394619  87.0282555  57.0672512
 103.7885284  87.4466133  57.9267836 103.0248260  86.3966656  57.1487331
   6.4034075  81.0228062  14.8079610   6.9875807  80.8244419  14.0760946
   6.1567336  80.1661205  15.1565075   8.5029000 106.5525723  71.7703295
   8.2800949 106.5082836  72.7001858   9.2696637 107.1244431  71.7347383
  11.0377562  39.7545624  56.6163588  11.5966678  39.5174980  57.3563957
  10.6666529  38.9232945  56.3205481 104.8918915  16.6488183  51.3185406
 105.1963997  15.8769596  50.8413172 104.6280193  16.3122749  52.1748972
   8.8925713  37.1142006  38.0533338   9.3060696  36.6606879  37.3187757
   8.1390917  37.5598383  37.6661563  35.8599114  80.3639412  92.1639633
  36.6752386  80.0944519  92.5868702  36.1410570  80.8250237  91.3736534
  13.3908653  46.6899157  51.1029959  12.6339149  46.7306042  50.5185318
  13.1000566  46.1445570  51.8339157 106.9404316  33.2842016  23.1464219
 106.9267273  34.2185354  23.3539414 107.6949215  33.1786013  22.5669169
  27.7309012  66.3852692  21.7120004  28.4041071  67.0593023  21.8053102
  28.0817389  65.7859230  21.0532665  32.4022484  45.0395823   4.4786224
  32.1695781  44.1370678   4.6967185  33.2610464  44.9713898   4.0614328
   0.4315459  64.3210888  54.0119123  -0.2525152  63.7395144  54.3436766
   0.0717722  65.2012491  54.1219807   5.7230133  59.7723818  85.9524918
   6.5761864  59.8786879  86.3732433   5.1916498  59.3113136  86.6015720
   5.6320006  41.2781477  30.0548959   6.2598902  40.9519768  29.4102263
   6.1494190  41.4054251  30.8500743  15.4600322  58.8013506  51.1195850
  15.4117441  59.7507524  51.0076427  16.1503112  58.5239601  50.5172539
 107.3274612  47.0513582  47.0247936 107.8894138  47.8083849  46.8594027
 106.8051624  46.9620657  46.2276363 102.8389263  96.7505074  81.7215633
 103.2755375  97.1393299  80.9636593 102.8641796  95.8082199  81.5551853
  26.5790296  20.4381466  69.0068483  27.4989748  20.2609658  69.2031574
  26.3623261  21.2009358  69.5429707  96.5478420  83.8436127  43.1547546
  97.0105934  83.0185986  43.3012152  96.3454056  84.1639900  44.0337324
 111.8182087  71.8364668  54.0465975 111.6782475  72.3515749  53.2520533
 112.6986980  71.4748478  53.9455986  70.8883333  21.3951612  44.8660421
  70.1529264  20.7828999  44.8892498  71.6200256  20.8779883  44.5292997
  10.9955108  65.4853058  59.2994452  10.6770909  64.5844078  59.3562651
  10.3090525  65.9523726  58.8231564 116.4526844  70.0255680  44.0640068
 115.9413433  69.4986010  43.4499454 116.0813808  69.8209000  44.9221897
  96.1562157  39.7240472  36.0251355  95.5702972  38.9757276  36.1389303
  95.6371117  40.3625011  35.5361199 100.3558540  16.2352800  35.6946993
  99.8381710  16.6162860  34.9854279  99.8971367  16.4966297  36.4931393
   2.5330222  36.3588572  40.3803349   2.1106586  37.2148848  40.3092289
   1.9904934  35.8750868  41.0031223  14.4433546  21.5581608  34.7188497
  14.5457518  21.8134785  35.6356716  15.2873099  21.1739016  34.4815397
  16.9569838  28.6814523  70.7134104  16.2943280  29.3375683  70.4974651
  17.1929049  28.8693023  71.6218615  22.6688933  59.2116833  56.4294672
  23.5948896  59.4521666  56.3989878  22.2093320  59.9870872  56.1073208
  19.1929805  81.2187481  17.8868032  19.0061057  80.2837372  17.9709041
  19.2727792  81.3631821  16.9439340 101.2997055  31.5369439  32.8553081
 100.3865814  31.4483213  33.1283998 101.4839268  32.4728203  32.9354906
 103.9677334  62.8352880  41.6977978 104.0088940  63.6562586  42.1882534
 103.0635738  62.5389528  41.8022680  97.0750523  32.8351021  55.4628468
  97.7610397  33.2017159  54.9049520  97.3890686  32.9803276  56.3553381
  25.5731940  61.9633245  17.8558481  25.6673861  61.2877178  17.1843445
  25.7103014  62.7869654  17.3878229 115.2090549  48.8050604   9.1252476
 115.2300167  47.9524469   9.5598090 114.6629810  49.3495512   9.6923161
 102.9144669  75.5521107  58.2974386 103.2547665  76.1807871  57.6608992
 103.4722519  74.7810936  58.1943178 111.5186119  25.1173615  31.8946958
 112.0510483  25.5875468  31.2530780 111.7897892  24.2035389  31.8073797
  13.2116640  61.6837549  71.2713718  12.3216271  61.4184666  71.0396624
  13.1841540  61.8121004  72.2195292  26.8217826  56.4919186  45.5727577
  27.1351361  56.3901043  46.4714622  27.5844502  56.8065214  45.0873756
 106.5788269  52.7297831  26.0981917 106.1152554  53.3178520  25.5019426
 106.2369251  52.9491901  26.9649100 114.3453026  87.6529408  64.4476986
 113.7988281  88.3201981  64.0325308 115.2391148  87.8840923  64.1949081
   3.7163138  62.5055265  27.9038692   3.9365783  61.5740204  27.9013753
   2.9168475  62.5640059  27.3807383  19.0541923  65.1176786  43.0535316
  19.2403698  64.8234844  42.1618938  18.7132525  66.0056734  42.9464722
 109.3381119  47.2380161  61.1876059 110.0948715  46.7033863  60.9473610
 109.3938351  48.0030251  60.6149912   7.8111941  69.5818377  33.0423379
   7.5633734  69.7790003  32.1390414   8.0934769  70.4226875  33.4022307
  92.9398918  61.0505009  16.7162192  93.1077290  61.3468695  17.6107728
  92.4938488  60.2102137  16.8220139  92.1714211  29.4245958  43.1467676
  92.3130894  29.9794316  43.9137840  91.4111710  28.8897419  43.3751774
 112.2488117  41.5334654  62.5822449 111.9852543  40.7529545  63.0696535
 111.6744900  41.5429735  61.8165445  88.3004570  67.9677677  47.4420929
  88.8595581  67.4415064  46.8705177  87.6113796  68.2976675  46.8654108
  87.5773716  34.4456744  58.0747795  88.1700039  34.0603185  58.7201643
  86.9083691  33.7757492  57.9338598   4.3528414  75.5901861  83.0408192
   4.5467374  76.5270996  83.0697155   4.8218918  75.2252769  83.7911987
   4.2517617  96.3259792  37.3627663   3.3075523  96.4773273  37.4051046
   4.6367961  97.2012806  37.4055910  88.3489037  59.3885374  17.6033878
  87.8682423  60.2162695  17.6106966  87.9572868  58.8904810  16.8858898
  10.7518649  61.2376070  34.3950033  10.8735752  61.4079332  35.3290296
  11.5730214  60.8321953  34.1164756 110.3412437  56.8781614  46.9262934
 109.4140339  57.1133804  46.8919373 110.4403210  56.1968803  46.2612581
 113.2639599  56.0202694  79.0868092 113.4900856  56.9048357  79.3742800
 113.3606434  56.0457468  78.1348467  85.0178432  38.4897208  74.1331339
  85.7152748  38.5991406  73.4867191  84.6245766  37.6434088  73.9202356
  71.9259024  42.3583078  85.7855415  71.8889904  43.0725050  86.4217758
  71.2323093  41.7579412  86.0588932  98.6769295  92.0474434  34.0139055
  98.6203003  91.0940456  34.0775728  98.1044579  92.2729397  33.2806540
 112.8452110  54.3936539  42.1822500 113.7654209  54.5859766  42.3624086
 112.4274254  55.2530432  42.1262693 107.0471668  80.9282398  36.7082691
 106.5134144  81.4996529  37.2603822 106.8953896  80.0493908  37.0558643
   1.4776067  45.9622288  47.9164839   2.3044573  45.8471060  47.4481916
   1.4600909  46.8911505  48.1467628 103.8031578  71.1996222  57.4604940
 104.3898773  70.6554079  57.9856777 104.0648842  72.0979309  57.6624250
  94.9124908  24.2818689  43.3138609  94.5182514  25.1472664  43.4229279
  94.9880123  23.9391208  44.2043972   9.5209861  59.4130707  15.9613287
   8.8654375  59.9579287  16.3967812   9.0717071  58.5842943  15.7954812
  48.0581331 104.6508980  87.9461384  48.1846094 104.8748684  88.8681412
  48.2820749 103.7218189  87.8924561  95.6015205  71.2167311  53.6097336
  96.1331463  72.0045471  53.4959459  94.9547958  71.4579248  54.2729139
 106.7426395  62.2739124  51.6581821 106.3703442  62.5121593  50.8091450
 106.0410881  62.4497795  52.2851801  32.7703857  49.7842693  47.5392151
  33.5550094  50.3026438  47.7177811  32.1712017  50.3962040  47.1117210
 107.3581409  56.6837549  26.3140130 106.7750168  56.2110376  25.7201004
 108.2386112  56.4737701  26.0026884   5.4964751  50.9272575  46.5857887
   4.5618588  51.0716724  46.7336750   5.8914506  51.7933989  46.6859388
 106.7477131  60.9870863  55.8069897 106.7270756  60.2125216  55.2449703
 106.1569309  60.7745600  56.5295076 108.7562084  24.8454595   8.4301114
 109.6497726  25.1065874   8.2074559 108.4766579  25.4836965   9.0864193
 106.2918377  56.2287474  84.2626953 106.9560051  55.7354784  84.7441578
 106.3319874  57.1100569  84.6340656 112.9559612  49.9291229  57.7877283
 113.5204983  50.6867456  57.6342869 113.0070877  49.4240665  56.9762230
  25.1041389  28.6185789  39.8392630  25.5148530  27.7725363  39.6610689
  25.8188725  29.2513680  39.7688127 104.1771793  53.2501602  36.7186999
 104.7152710  53.7066698  36.0719514 104.7592354  52.5866652  37.0891261
  29.0405583  39.1236591  14.8397243  28.0991983  39.2910480  14.8850465
  29.4060802  39.6094847  15.5790472   2.9215640  17.5709689  43.0198526
   3.7198156  18.0898595  43.1187391   2.5373933  17.5530934  43.8963938
   8.4118199  65.9749174  25.2401543   9.1285998  65.7000875  25.8119321
   7.6427126  65.5216408  25.5854797 115.7765388  49.2854166  54.4494820
 116.3294601  49.1908407  55.2250862 116.2357903  49.9243307  53.9044046
   0.8544194  54.1110706  57.2348499   1.4669418  53.5715103  56.7349243
   1.0904907  53.9564991  58.1495142  -0.0851750  54.3897247   2.2073431
   0.3189499  53.5678673   1.9290286   0.5643775  54.7930622   2.7832192
 107.9901218  24.9091649  23.2037163 108.2978153  24.5709515  22.3627830
 107.0731544  24.6384454  23.2497096  20.3661275  60.7825708  48.5655260
  20.3164387  59.8704338  48.8514853  21.1524773  60.8203793  48.0210447
  95.1723099  34.1326070  58.5818148  95.9998131  33.8062334  58.9353037
  94.5196247  33.4960628  58.8734436   2.6860532  56.2146091  34.1637850
   3.3986250  56.3348627  34.7914886   1.8890834  56.2964773  34.6875882
  13.8294470  54.0397215  33.1854463  14.4185126  53.2919455  33.0851173
  14.3018639  54.6412420  33.7609673   0.5369746  80.9772205  52.8626299
  -0.2744878  81.4494705  53.0490160   0.6465422  81.0541058  51.9148350
   5.3324652  70.3073454  36.9383240   5.8270717  71.0320902  37.3208666
   5.6139433  70.2816248  36.0238075   7.8717107   7.5145769  93.3275127
   7.0288920   7.0762157  93.2103443   8.4635842   7.0597637  92.7283001
  96.5884399  63.0026054  39.6269274  97.4629211  63.2458448  39.3230462
  96.0804939  62.8836107  38.8243937  78.9551830  70.7144547  45.3776169
  78.1934118  70.9834957  44.8642445  78.5866928  70.3763008  46.1937666
 114.5604134  61.5148163  22.6971555 114.9889183  61.8653870  21.9163108
 114.6482277  60.5654001  22.6126957 105.1244926  53.3522463  45.4041862
 104.8710346  52.5505257  44.9467659 104.3818855  53.9434385  45.2806950
  22.9608703  59.4654417  60.4028320  23.3037639  60.0260782  59.7068834
  23.5767579  58.7340021  60.4464769  95.7671547  21.5139866  24.0301800
  95.2923775  22.2317028  24.4493461  96.6905975  21.7377019  24.1461349
 114.1885185  75.2557278  36.4447236 113.3052540  75.6060266  36.3291383
 114.3744469  74.7993040  35.6241488  13.3656108  56.5458870  31.6551638
  12.6762903  56.5920830  30.9926438  13.1287587  55.7918024  32.1950603
  18.9351809   1.0054592  59.2627048  18.6513293   0.5769069  58.4552336
  19.7213793   1.4908400  59.0126419   1.2567687  59.5720768  34.9562597
   0.4721244  59.2596102  34.5057797   1.1431658  59.2848778  35.8622646
  79.0214682  71.6813183  23.0493331  78.9255238  70.9403419  23.6476469
  79.6636629  72.2502613  23.4737396  91.0139847  63.1512785  36.8307638
  91.2423229  63.1631851  37.7602530  91.8415165  63.3157682  36.3787055
  21.2723541  47.9247618  41.1157513  22.1967459  47.9293776  40.8673286
  21.0050058  48.8422251  41.0608435 113.9476299  43.1399965   7.3975122
 114.5807457  43.8499689   7.5039995 113.1491375  43.5741663   7.0972753
  87.2139359  71.5931511  18.0693913  86.5064335  70.9492254  18.1014681
  87.1234417  72.0891523  18.8830423  92.7494907  71.1491966  45.0845480
  93.4121227  70.7580709  44.5151806  92.4022579  70.4132891  45.5886221
 109.2992687  44.9683237   8.0889869 108.9152431  44.1261673   7.8450114
 108.6794567  45.6188107   7.7589440  92.8159618  79.0423632  46.5633106
  92.9490757  78.8172150  45.6425381  93.4496593  79.7392797  46.7334986
 107.9147434  59.6826172  88.0875587 108.2712364  60.4885530  88.4612083
 108.2164860  59.6858358  87.1791649  99.1605473  27.3652172  47.4340343
  99.1628456  26.4604211  47.1216726  98.7096024  27.3262787  48.2774591
  20.9780598  80.0779343  15.0599086  20.3526258  80.7462597  14.7799194
  21.4994621  79.8953533  14.2782199   4.1797593  42.7145958  57.3648834
   3.3418274  42.6102448  56.9140911   4.2251307  43.6477757  57.5731039
  11.3273871  53.8431978  82.7297211  11.5772700  53.8072968  81.8064117
  10.4650176  54.2585897  82.7284813 117.0523357  70.2038765  49.6537066
 117.4708176  69.3740988  49.4244337 117.4267864  70.4340744  50.5040121
  16.8998992  64.5751429  45.3399801  16.6507697  64.0536833  44.5769310
  16.3116252  65.3298807  45.3167200 116.8861008  50.5189896  40.2221584
 116.0595512  50.0851870  40.0103378 116.6637325  51.1268282  40.9273624
   8.5505599  96.4535332  34.3083549   8.3389401  96.6679764  35.2169037
   9.0362525  97.2142696  33.9895868  64.4192087  27.4012378  -0.2318602
  63.8037550  27.5235465   0.4909677  64.9387514  26.6385654   0.0223894
  93.1095791   4.2060345  67.3451424  93.3976078   5.1180208  67.3845673
  92.4739742   4.1246504  68.0562115  86.0484123   2.0815843  29.1931129
  85.1711178   2.2647573  29.5292950  86.3125706   1.2768154  29.6389842
  51.8230724  98.3921146  22.3539019  50.9227943  98.2875252  22.0460320
  52.3423147  97.8425217  21.7669034  97.2823143  24.2511296  34.5659089
  96.9173050  24.5200753  33.7228990  97.9608059  24.9003935  34.7512293
  87.0022583 100.7459545  30.7682729  87.3072720 100.0149918  30.2307796
  87.7976418 101.2328148  30.9840631 107.9436302  15.7600856  47.2529316
 108.4277821  15.3305149  46.5477467 107.1225262  16.0364664  46.8459368
  47.3090410  97.2373962  21.7902756  46.3573456  97.2759819  21.6953230
  47.6372099  97.1814537  20.8928299  33.1470323  55.8481884  92.9197598
  33.9681673  56.2475538  92.6325703  33.3979368  54.9750471  93.2212639
 109.8636150  21.8914247  33.4541774 110.5672264  21.8118811  32.8100920
 110.2999973  21.7871213  34.2997098   9.1109639  22.2509646  14.6493793
   9.9946529  22.4562120  14.3440950   8.9929295  21.3252711  14.4363260
  22.6979494   4.0026084  20.9690571  22.6713920   4.8549095  20.5341911
  22.8518939   4.2088234  21.8910170  96.9928741 108.7631702  23.2356000
  96.2796783 108.5970592  23.8520384  97.6237869 109.2828941  23.7336707
  98.3523273  55.3795910  17.5493824  97.8677273  55.7112885  18.3052742
  99.1412067  54.9875784  17.9238498  93.1059265  20.3639221  22.2448039
  93.9476013  20.0088334  22.5306821  92.4857235  20.0802159  22.9164386
   5.1240289  46.9382811  49.9294710   4.1949147  46.8957567  50.1556778
   5.5691081  47.0634508  50.7676029 106.8620682  23.6345196  40.0160789
 106.2145805  23.3508515  40.6614685 106.4284039  24.3398428  39.5357847
 107.3134232  15.9068334  37.2141361 107.8315258  16.6015422  37.6205635
 106.4053249  16.1867726  37.3291588  70.5785275 107.9608822  12.8720176
  71.3559866 107.6119137  13.3079255  70.4049873 107.3435402  12.1613801
  57.7841187 100.6980228  46.6778898  57.2056150 101.1218548  47.3118734
  58.6423969 100.6947041  47.1016598  59.4083500 101.3498402  31.1531901
  59.7676325 100.8434391  31.8816876  58.5227537 101.0059452  31.0362029
 104.1531372  46.0228157  42.0048761 104.3440247  46.4582777  42.8356409
 103.9562035  45.1182747  42.2482967   7.3851860  39.0794230  36.7390895
   7.4783462  38.9464474  35.7957602   6.7308623  39.7733951  36.8196797
  13.2649457   8.5667419  80.4019833  12.8401709   7.8821111  79.8851824
  12.5413632   9.0442997  80.8076859  96.5274143  32.6751733  50.8787632
  96.3249683  32.3136044  51.7416191  97.2079659  33.3271933  51.0459566
  44.3652821  91.0085869  37.6842332  45.1506615  91.5465641  37.7841663
  43.8357115  91.4756012  37.0379448  79.5208454  93.1903362  40.8853960
  78.6453199  92.8871727  40.6450319  79.3743181  93.7891769  41.6176271
 112.7406693   9.9008358  27.9038286 111.9368839   9.7988796  28.4134936
 112.9733753  10.8237207  28.0056214  25.2740812  58.4341669  88.9214993
  26.2202215  58.5764313  88.8930035  25.1586199  57.5312614  88.6254215
  93.9461994  37.5851917  27.2928047  92.9907417  37.5527620  27.2451019
  94.1472530  38.5087323  27.4440789  82.3748302 100.7501888  38.5726929
  82.9860020 100.9039783  37.8522444  82.8824520 100.9392071  39.3618870
 105.6348896   5.1273286  52.3602772 106.2112713   5.6202298  52.9442835
 105.4602051   4.3111938  52.8289366  80.4844189  12.3940730   2.0668261
  80.8069420  12.1600771   2.9371458  79.9167776  11.6647351   1.8176723
  12.0649648  18.6757290  37.9526043  11.8231881  17.8825748  38.4308100
  11.9228053  18.4533679  37.0325065  20.6618619  15.4470110  33.1017303
  20.4055285  14.5388031  33.2619882  21.6047001  15.4623556  33.2661939
  99.2008781  13.7526369  41.9665480  99.5972633  13.8756669  42.8290939
  99.3192101  12.8214383  41.7791986  98.9686775  32.3386955  19.2310321
  99.1357613  31.7530346  19.9694896  98.4242344  33.0358982  19.5966983
  67.5398207   9.8418725  14.2026603  67.1731281   9.6723974  13.3348775
  66.9682789   9.3620074  14.8020792  79.3758011  26.6082597  42.3522329
  78.5819054  27.1332049  42.2502708  79.5437956  26.2558341  41.4782763
  99.5244122   6.7971069  34.6122837 100.2400684   6.1622739  34.6447706
  98.7877083   6.3490188  35.0278783 103.7406731   5.1908076  26.3245606
 102.8194332   5.3929478  26.4879274 103.7547874   4.2463753  26.1693811
 106.0842228  10.7970393  28.6377025 106.8528461  10.3243506  28.3183193
 106.4096928  11.3128150  29.3754530  70.8492613  15.8470023  22.3425770
  70.1522112  16.2609029  22.8515387  71.2182570  16.5583169  21.8190265
  20.8348703  64.6639681  82.4967098  20.3549314  64.5858669  83.3212090
  20.7278538  65.5807590  82.2432041  95.5977631  19.2383313  51.8389225
  96.3296604  19.0233743  51.2606955  95.5764389  20.1951933  51.8527126
  97.1173477  56.1596680  50.7764053  96.8546009  55.8626270  51.6475916
  97.9756069  55.7598591  50.6357813  17.1429145  16.5653837  12.7726018
  16.8341231  17.2436678  12.1719277  17.8892958  16.9637012  13.2203615
 113.8747406   8.0889136  48.7328434 114.3142319   8.6895984  48.1309652
 114.1432762   7.2178912  48.4405422  77.7339268  24.4802833  38.4954500
  77.3562002  23.6324930  38.2613420  76.9830751  25.0127268  38.7580514
  33.3995485  86.9486713  96.6072273  33.2211995  87.8412056  96.3109112
  32.5535369  86.5043449  96.5517998   3.5759419  24.0523982  53.7877560
   3.2941896  23.7318230  52.9309702   3.9427385  24.9186039  53.6106157
  85.9175682  59.6664810  14.2187667  85.9752941  58.8250637  13.7660921
  86.8142605  59.8496246  14.4991636 112.5393963  40.1177168  21.7728734
 113.0210018  40.0098038  22.5930190 111.8815041  40.7851982  21.9674945
   2.0525320  37.5837398  18.8932562   2.2743979  38.3187461  18.3216166
   1.7998865  37.9920840  19.7213006   9.2089576  55.1504660  46.1677217
   9.7083718  54.9217415  45.3838205   9.7399241  54.8233843  46.8938923
  88.1691170   9.7061884  32.7831864  88.3502960   8.9352643  32.2455239
  87.2435856   9.8944736  32.6277304  85.2664852  28.7456083  53.6851215
  84.4847202  28.5242891  54.1911793  85.8799362  29.0939283  54.3320990
 106.2904453   2.3389634   3.0646417 106.7638302   1.5084481   3.0158725
 106.7531490   2.8392765   3.7368211  98.2820415  49.2139292  25.1966500
  97.9273605  49.6776104  24.4380832  99.1138268  48.8533211  24.8895288
   4.7924849  23.9681768  38.3736181   4.4027472  24.4933939  39.0725350
   5.7236439  23.9315891  38.5923338   0.8029874  22.7473164  51.6226387
   1.7585945  22.7726412  51.5735865   0.5241580  22.5053883  50.7394838
  31.5886927  92.3699856  38.4779739  30.8228993  92.0770741  38.9719343
  31.5132999  91.9256783  37.6334977  75.6231403 108.1146908  67.4989176
  75.2508926 107.4019241  68.0181742  76.5029097 107.8125000  67.2732735
  96.0860538  24.2531657  29.1695976  95.3523445  24.1504240  28.5635090
  96.1724854  25.1997137  29.2827797 101.6233730   1.9863059  10.3852320
 101.7564297   1.4366825   9.6129364 102.4992561   2.0948963  10.7557189
  24.4924092 111.2701225  14.0404034  24.8942924 110.4175854  13.8733780
  23.6967325 111.0675621  14.5324397 104.2695713  42.8059864  55.9600782
 105.0976181  42.4444342  56.2760592 103.8145542  43.0906582  56.7526436
   4.1855273  30.9358716  53.5273504   3.7304652  30.7266760  52.7116394
   3.7384760  31.7150116  53.8579893  90.9428310   7.2584349  30.8080387
  90.0728798   7.4910802  31.1325264  91.5453529   7.6177353  31.4592671
  99.6939564  28.9270401  61.8614101  99.8939800  28.1374645  61.3586187
  99.6382904  28.6258221  62.7682734 100.9756660  17.2803926  31.1147881
 100.9710121  18.1109798  31.5905356 101.8315125  16.8980944  31.3086987
 109.7933960  16.6586256  24.7838306 109.5815849  17.5299621  24.4489598
 109.5494175  16.6916966  25.7088256 100.7891560  23.4116340  50.3199291
 100.9763336  24.2524338  49.9024916 100.1672363  22.9848361  49.7306108
 116.2310410   9.2199963  51.4096498 115.3901768   8.7826347  51.5433741
 116.0050488  10.1426315  51.2917423 106.8992233  39.5112348  28.9978170
 106.8767071  40.4175138  28.6906004 106.3874722  39.0261197  28.3505106
  93.0326843  19.8144436  66.4154196  92.6113605  19.1890323  65.8258629
  92.7241325  20.6700516  66.1171532  99.8871422  38.9819074   8.9879394
  99.1607285  38.5694504   9.4553119 100.4891396  38.2623458   8.7980497
 115.2604961  15.1794934  49.2731571 115.1688576  15.6850576  50.0807714
 115.1843452  15.8289218  48.5741043  96.3883781  28.2037377  41.5517330
  96.4600849  28.9854670  41.0040188  96.3361263  28.5416627  42.4457741
  82.1909046   4.5132524   2.8374177  82.1276379   5.4554278   2.9940528
  81.9372463   4.1145024   3.6698160  89.2151833  39.8335552  28.3206868
  89.1035175  39.9923396  27.3833776  88.8704491  38.9510322  28.4568501
  69.7570992 101.5025139  12.4556792  69.1187239 100.9145927  12.0518720
  70.2147961 101.9031239  11.7165899  26.5102148 109.5023727  21.6130376
  26.9324446 108.6859226  21.8801689  27.0929408 110.1899815  21.9353199
  17.2986865  10.3007495  73.1259680  18.1750977  10.3444564  72.7435732
  16.8588638   9.6046251  72.6379108 112.0509624  21.5266848  36.3592815
 112.0928383  22.2539163  35.7383013 112.7166080  21.7333412  37.0153689
  19.2043781  34.0058804  53.1703854  20.1007533  33.9432406  52.8405094
  18.6700547  34.1410661  52.3877907  77.6580524   3.0889204  64.9781895
  77.0665169   3.3597121  65.6803274  77.7988863   3.8837638  64.4637775
  90.3122044   5.6741476  51.0140276  89.4437504   6.0695058  50.9384680
  90.5037022   5.6941044  51.9516659   7.1642053  20.4966450  21.0801387
   7.6336187  20.8018422  20.3037763   6.7895049  21.2908196  21.4610839
  80.0651169   0.4768950  29.3833590  79.5104790  -0.2997150  29.4573998
  79.7952795   1.0343937  30.1131630 103.5331154  55.9733534  41.3381767
 104.4141865  56.1499166  41.6679811 103.0377865  55.7026529  42.1112299
  90.8554363  34.1045570  49.6479130  91.7091942  34.3801141  49.9816895
  90.3115559  34.8902583  49.7035694 115.1447105  81.5207672  46.1442232
 115.2989960  82.4586868  46.2570524 114.2626762  81.3800240  46.4883804
  94.1904926  36.9986129  12.9203689  94.9099255  36.6935587  12.3675680
  94.5660400  37.7192855  13.4261596 117.8287697   0.8508606  29.0224171
 117.8308582   1.7863537  28.8197351 116.9732761   0.6943230  29.4222260
  16.2073720  13.8159728   8.6270183  16.6171861  14.4258964   9.2404330
  15.8355927  13.1309950   9.1827327  97.7133274  22.4021363  79.3885994
  97.3596096  22.0416307  80.2017117  97.0224285  22.2577024  78.7420464
  90.2344322  24.3560052  42.0242357  90.2132034  24.1803122  41.0835361
  89.7174931  25.1545787  42.1304655  79.9351263 106.6292763  40.0076485
  79.8820972 106.0032940  40.7298422  79.0440464 106.9670486  39.9175453
   1.0165887  17.8583467  61.0938168   0.3362626  18.5285366  61.0287476
   0.7950833  17.3682845  61.8856525  79.0027905  35.0672436   5.2382028
  78.6964512  34.5068979   5.9512252  79.4511509  35.7900119   5.6773049
  41.7768812  17.0760131  81.1472416  42.1305084  17.7790284  81.6921711
  42.4503946  16.9252002  80.4840183  96.6525173  33.8314342  16.3644350
  96.4977837  33.5540867  15.4614580  97.1880817  33.1331658  16.7410278
  89.6044827  19.4905424  19.9480677  90.0720692  18.8009644  19.4768155
  88.8557243  19.0446830  20.3440404  93.9114571  31.7732215  16.6511238
  94.3207645  31.9386864  15.8018160  92.9801846  31.6746092  16.4530456
 114.8899460  50.8153582  20.2079701 114.0326691  51.2148619  20.3553176
 115.1265144  50.4368305  21.0547185  85.2410030  43.5991812  28.1964779
  84.5003796  43.1422520  27.7978325  85.7455826  42.9083872  28.6259389
  92.5556374  14.7961342  14.7417819  93.1877708  15.4497790  15.0407672
  92.5725651  14.1194522  15.4185736  66.1647987 103.0587482  64.0034580
  65.5124235 102.3607922  64.0624905  67.0045948 102.6001263  63.9780903
 104.9282455  17.1911573  38.0201149 104.3753624  17.6163173  37.3645282
 104.6379471  17.5604534  38.8541293  17.5927114  18.5297501  16.8660188
  16.7485249  18.9313877  17.0716119  17.4663901  17.5990188  17.0504463
 103.9454269  22.6778889  30.8419609 104.5129681  22.8780937  31.5863013
 104.0650368  23.4159064  30.2442503  99.0323162  58.2779360  36.8467259
  98.6713314  58.2980776  37.7330208  99.7356224  57.6300240  36.8892264
 112.2394562  51.7209196  41.0268354 112.2647285  52.6279211  41.3316965
 111.4652634  51.6783857  40.4655504  22.3639297  19.5481098  58.6593485
  21.9746876  20.2701092  59.1527414  21.6508675  19.2208827  58.1109905
   7.5728810   8.6513644  45.4206800   8.0062228   9.4390786  45.0921154
   6.7007947   8.6758065  45.0268507  64.9332428 110.8935547  73.0483294
  64.5785332 110.2427387  72.4426365  64.2624378 110.9811878  73.7255096
   7.1792883  21.0678124  24.9921012   7.9779726  20.6258917  25.2802682
   6.8392521  20.5138540  24.2894387  65.0903273   6.6828972  35.6086540
  65.4437351   7.5170135  35.2994895  65.3815794   6.6218430  36.5184188
  94.0976334  34.3434167  17.9463375  94.8368168  34.3802857  17.3393130
  93.7260437  33.4705973  17.8185189 107.3822117  44.6976662  26.0614157
 107.1694279  45.6030989  25.8352661 107.8809834  44.7650337  26.8756104
 115.7334709  29.4624758  59.8550272 115.6711674  30.1877761  59.2335081
 115.4594421  28.6939526  59.3545198  70.2561569  46.7892027  11.1292171
  69.9524546  47.6499653  11.4174628  69.4618940  46.3388252  10.8419228
   8.5440522  13.2169223  34.6688294   7.9759282  13.9433968  34.4125032
   7.9431194  12.4917996  34.8400235  18.8464785  18.5042238  79.6218157
  18.7480545  18.7534225  78.7028790  18.6023366  17.5790131  79.6465492
  53.2997704  79.2834187   4.9980369  52.7754831  80.0199699   5.3124321
  53.2193613  78.6216974   5.6849813  66.1296320  91.8534184  92.4615574
  65.3961849  92.2747612  92.9096222  66.6657114  91.4919090  93.1673622
  96.2690544  27.1485090  18.3294427  95.8670521  27.0668101  17.4646008
  97.1961403  27.3038983  18.1489146  84.5040607  21.7418027  34.9766183
  84.0091228  21.9590807  34.1866446  84.0695858  22.2327423  35.6740713
  95.5577469  38.9079714  31.6462064  95.9537220  39.7793889  31.6545010
  94.9960136  38.9075160  30.8711696  95.0928593   9.1099000  54.4278908
  95.6157875   8.4984988  53.9092779  95.6820488   9.3971276  55.1254416
   2.0004450  12.6701570  18.8453674   1.6562423  13.4847021  18.4789371
   2.6353246  12.9530442  19.5034969  12.2562039  32.8929782  28.3538246
  12.7123356  33.6860919  28.6351562  12.5055563  32.2315621  28.9992571
  93.1001759  95.6599808  43.8696337  92.3439980  96.1129093  43.4964228
  92.7230072  95.0306892  44.4844198  95.2619076  29.2887092  34.7340178
  94.4407463  29.7803187  34.7182584  95.7756329  29.7026896  35.4275179
 113.1878090  35.5384469  50.0967455 113.6739063  36.1331034  49.5254993
 112.2862530  35.8583903  50.0639725  77.0122051   9.2795336  29.8866320
  77.5967312   8.6001164  29.5505476  77.3142481  10.0847363  29.4663334
  85.5981541  24.9623370  24.7648311  86.0965157  25.6522512  24.3267846
  84.6825600  25.1821828  24.5927978  59.3937922  78.9007664   9.0941119
  58.5117006  78.9031267   8.7224483  59.7158051  78.0124426   8.9410686
 115.3637695  27.3538160  50.1371765 114.4950104  27.6297021  50.4293871
 115.9679794  27.9313111  50.6037188 101.9329548  34.2214918  33.0509233
 102.5292492  34.2957067  32.3058319 101.8957233  35.1052022  33.4168458
  93.4934711  37.0333791  75.3881216  93.9486408  37.2742796  76.1949825
  94.1845226  36.9895267  74.7272396  93.2960510  40.4965019  27.1753049
  92.5589657  40.8602428  27.6658392  93.3545113  41.0422421  26.3910961
  11.9039655  41.7412758  42.5160360  12.7191067  41.2776995  42.3240137
  11.3339102  41.0746813  42.8993368 115.6940937  16.9880068  21.5205026
 115.5531693  16.0525632  21.3744926 115.1559544  17.4179077  20.8558011
  74.8321438 102.9487228  42.7070570  74.0100908 102.8637218  43.1900024
  75.0511837 102.0537567  42.4476576 105.8219528  12.1596336  39.6233201
 106.0312557  12.5696194  38.7840724 106.3001060  11.3305104  39.6106982
  98.9129257  19.8398054  24.3138218  98.2613850  19.3721783  24.8363566
  99.4331741  20.3227496  24.9559617 100.9983921  28.4673214  45.4429770
 100.6025410  27.9231119  46.1236906 100.9110546  27.9503822  44.6421194
  26.7648697  46.0668468  95.9747696  26.2835145  45.5531549  96.6233444
  26.3745975  45.8201790  95.1362801 117.4292278  24.5993114  42.9584789
 117.6938725  24.2637491  42.1019793 116.9001865  23.8974690  43.3376503
  35.1326239 110.8845516  54.7241259  34.4527399 110.4854660  54.1812468
  34.7295534 111.6835066  55.0638866  19.7487485  37.6690125  53.1793308
  19.3239272  37.2236395  53.9124107  20.0938749  38.4776163  53.5578537
  80.0094128 106.3228416  36.1950159  80.6990337 105.6688499  36.3088989
  79.3242025 105.8659172  35.7072282 108.9143562  45.6063795  58.4988308
 108.9211655  45.5664015  57.5424910 109.8354626  45.7016516  58.7411356
 107.6968193  53.3386087  20.5044866 106.8610287  52.8757191  20.5630612
 107.4714565  54.2584133  20.6437707   6.9064969  13.7873900  25.1502824
   7.7038974  13.5113811  24.6983933   7.0872444  13.6245203  26.0760450
  97.7264309  37.6285434  29.5102048  96.8152905  37.3355889  29.4945097
  97.8407574  38.0997467  28.6849022 100.6629848  43.6485243  35.8688641
 100.3351307  43.8811970  36.7375445  99.9303627  43.8294172  35.2799892
  97.5896549  77.4434423  15.3679144  97.1847916  78.3090830  15.4225075
  97.2877979  77.0901966  14.5310545 111.5817833   7.8742552  10.9662557
 110.7926083   7.3325676  10.9701252 111.2565899   8.7717521  11.0368550
 108.4174538  36.9365048  36.6883254 108.0042362  36.4378524  37.3931885
 107.7488804  37.5649333  36.4157104   4.5143902  76.3911009  28.0306673
   4.4568390  77.2555113  28.4377408   4.0508354  75.8107042  28.6343980
 109.5953560  26.1498857  18.5419893 109.5790768  25.3620744  17.9985571
 110.5260468  26.3337874  18.6693776   8.6221272  12.7434409  38.9356470
   9.0676063  12.4142635  38.1549931   9.0242225  12.2648716  39.6605778
  26.2950611  35.4929042  20.5071855  25.7897735  35.4208589  21.3169551
  25.7283926  35.9865808  19.9143946  16.9711959   2.2993490  46.5726566
  16.9620597   1.3517812  46.4375114  16.6043472   2.4199179  47.4485064
 106.4538670  22.2848582  56.7004490 105.9598827  22.9128504  56.1733484
 106.4083958  21.4675593  56.2042761 103.5061741  71.2454081  21.9850397
 103.2186890  72.1316624  22.2044301 103.1877613  71.1041403  21.0934758
   1.2616698  51.1435938   8.4863913   0.4898947  50.5789852   8.5289967
   1.8553287  50.7880640   9.1477549 104.6963215  41.9025850  52.9780006
 105.1193142  41.0544300  53.1119442 104.7694111  42.3430538  53.8246870
   8.5746276  40.4854059   5.9410042   8.2846320  39.6811700   6.3715190
   8.2858807  41.1870050   6.5246224  82.0737362  19.4547093  31.0952950
  81.8630219  19.8489010  30.2488661  81.4056969  18.7803257  31.2183952
 104.2133236  37.3148441  63.8639212 103.2699394  37.4601698  63.9356804
 104.4071007  37.4529886  62.9367733 101.1128426  67.5560045  60.6648111
 100.5605984  67.3491049  61.4187717 101.4134693  66.7045259  60.3472710
  90.6776810   7.8493494  41.4439774  91.3828659   7.8186566  42.0905113
  90.5550098   8.7821001  41.2674570  97.7682877  31.9009995  42.4101210
  97.2813511  32.7050471  42.2294903  98.5360146  32.1914315  42.9025459
  20.3884411  28.1872582  28.8559508  21.3358879  28.1341267  28.7304401
  20.2703762  28.1543732  29.8052716 110.7070255  19.3839908  37.3670578
 111.3666630  18.7819159  37.7114654 111.2069130  20.1479506  37.0794725
  25.2282476  13.2694542  53.5059452  24.4532895  12.7570641  53.2754564
  25.9226918  12.9169154  52.9494429   5.6405294  18.5550809  68.1896687
   5.7618821  18.2081664  69.0734959   5.4613161  17.7836442  67.6520777
  83.4215355  87.4197769  33.5151553  83.5524654  87.6414299  34.4370866
  84.2670631  87.0736790  33.2296062 112.6741982  40.6659365  52.6108217
 113.0311108  40.0706482  53.2699728 112.0987415  40.1166296  52.0785189
 109.4062614  45.7880163  41.2633419 109.6568966  46.7089844  41.1909866
 109.0819740  45.5589104  40.3923750  19.5351577  56.7443705  55.4719543
  20.3444743  56.6227198  54.9755287  19.8206866  57.1076584  56.3102436
  23.9638710  42.8480387  45.8816671  23.6887336  43.7465239  46.0640383
  24.9141049  42.9042864  45.7810450 111.5165043  27.0107412  60.0395060
 111.3892078  26.2202454  60.5640507 112.3449135  26.8643379  59.5828438
  85.3653812 104.8037529  64.9774361  85.7447529 104.4847393  64.1585732
  84.7352314 105.4709911  64.7055197 112.5312233  34.1278458  36.1446571
 112.3255634  33.2393456  35.8539653 112.3173809  34.6811581  35.3934264
  98.4628963  61.9925213  41.6463709  98.1797123  62.6702499  42.2601461
  97.9436588  62.1512032  40.8580542  41.2429857  98.1867409  94.4799900
  40.2944231  98.3138466  94.4973946  41.4730072  98.2267380  93.5517025
  97.5428867  24.6490335  57.3592091  97.4899292  25.5855203  57.5500441
  97.7436352  24.6060896  56.4242840  63.8909960  28.8776064  23.3011937
  63.8959503  29.8110390  23.5131240  63.5350561  28.4562659  24.0835047
 105.5377960  45.5284405  39.8016214 104.9974632  45.7396507  40.5629730
 104.9160480  45.2082491  39.1480637 114.8714542  40.9988117  42.6315069
 114.1313934  41.4550257  43.0320120 115.1628876  40.3806591  43.3017206
  87.4818134  26.9625425  23.1051040  88.1936073  27.4902916  23.4671307
  87.0179176  27.5577521  22.5162411 114.7645283  67.7622414  16.9218612
 114.4088078  68.3158398  16.2267196 114.0024662  67.3051310  17.2775936
 117.3683929  14.4838548  51.0354900 118.0985928  15.0963223  51.1244965
 116.9754601  14.7008610  50.1900673 107.5599670  32.7595830  13.8731492
 108.4075928  33.2024813  13.8330531 107.4897003  32.4584389  14.7790229
   9.3162113  50.5858564  41.2131023   8.4484863  50.9461880  41.3959885
   9.8292464  51.3367033  40.9143400 113.0509663  47.7564192  28.4238291
 112.5268459  47.0148182  28.7264180 113.9573383  47.4634266  28.5180187
  10.5403268  18.7195146  35.6262159  11.0209882  19.4146943  35.1768589
  10.2371979  18.1449175  34.9232364 117.1849346  24.4220901  20.8462119
 116.9683075  24.4172311  21.7785621 116.5380096  25.0078702  20.4530525
 106.3426971  15.1714492  34.7822237 106.4999866  14.2400432  34.6273851
 106.8300152  15.3668380  35.5825806 115.6419277  23.6494732  29.0965748
 115.2105713  22.9408836  29.5741367 115.0187778  23.8903713  28.4110928
 117.1613305  42.6233482  24.6946621 116.8840818  43.2597256  25.3537464
 118.1141413  42.5899172  24.7799039  71.0262966  29.7922277  74.7810698
  71.8609190  29.7848892  74.3124771  71.2420177  30.1328540  75.6492138
 110.3092575  22.9247069  45.4515696 111.1207676  23.4079552  45.6069756
 109.6296787  23.5984540  45.4299307  10.9269595  49.1158199  86.3334942
  11.3570225  49.9668789  86.4170170  10.8405280  48.8017845  87.2335720
 117.9554653  31.4512753   2.8846565 118.2286930  32.3218250   2.5953174
 117.0549202  31.3664889   2.5715086  34.3138790  62.8768063  88.7187290
  34.0799260  62.7924109  87.7944088  34.3569112  61.9755077  89.0381622
   8.7148154  40.5173588  31.0098457   7.8658473  40.5482769  31.4509010
   9.0814710  39.6679330  31.2553477   9.6307123  66.8616247  23.1712079
   9.1004318  66.3147974  23.7508774   9.1230363  67.6668787  23.0709171
  40.8092451  59.0783691  37.8326106  40.4130983  58.3243942  37.3957801
  41.6484928  58.7528896  38.1581235  11.9280851  31.2464213  45.5724192
  11.1250186  30.7546067  45.4008579  12.1307051  31.0618019  46.4895296
   3.0229631  31.3694310  50.4209661   2.2274157  30.8493948  50.3073978
   2.7202058  32.2773170  50.4032183  35.6232786  86.8946838  30.4127359
  34.6907234  87.0843029  30.3096867  35.6657839  85.9424973  30.5008054
  36.1404514  53.1666470  91.2425137  36.4561200  52.9390240  90.3679943
  35.9039259  54.0919495  91.1784554  89.0370750  26.6120982  77.2126007
  89.8957825  26.9969797  77.3878908  88.6438465  26.4996195  78.0780172
  20.7232738  79.5294619   2.0396370  21.4818096  79.6782160   1.4750789
  20.4747629  80.4029942   2.3419936  33.8448668 105.5940151  39.5424294
  33.1549072 105.9009171  38.9542127  34.2654371 104.8785114  39.0655565
  19.9471843  80.4447269  93.3407879  20.7708526  80.6228447  92.8868294
  20.1539612  79.7269726  93.9393711  19.5381451  50.2055168  80.8444881
  19.7733033  49.5049429  80.2361012  19.1286099  49.7542667  81.5826511
  62.2637129  85.0674915  40.1441050  63.2145071  85.0618839  40.0336647
  61.9191599  84.9405575  39.2601323  84.1590595  25.8870339   6.2193692
  84.4799042  26.6211796   5.6956124  84.9441242  25.5244541   6.6297859
  86.1770535  21.3875389  16.5851974  86.8964291  21.1554027  15.9979677
  86.4686775  21.0947680  17.4486017  33.5389161  97.4647808  12.0143235
  33.0137658  96.9636154  11.3904011  33.6843562  98.3068180  11.5829885
  24.8036671  52.8499222  79.8210573  25.1826167  52.5800323  80.6575966
  24.2627978  52.1072721  79.5524168  65.9536076  51.3450861  92.4732494
  66.7882919  51.8127680  92.5016689  65.3960228  51.8122101  93.0954552
  26.4007640 108.6884499  18.7677908  25.5800891 108.9022923  18.3239484
  26.7157364 109.5267487  19.1058409  60.2329731  95.9360600  14.3267596
  60.8481169  96.4977455  14.7982848  59.9514198  96.4636612  13.5793686
 100.2733612 107.4163342  93.3504963  99.3221760 107.3238373  93.4046841
 100.6021976 106.5174198  93.3575249  37.6006603  57.0309210   5.8409852
  37.5098729  57.1259356   4.8928496  38.4525537  57.4193096   6.0401374
  20.4234338  98.0558491  11.6061437  20.8254075  98.8640308  11.2875772
  20.6071258  97.4113941  10.9226465  84.8095703  78.1195784   5.2635807
  85.6642914  77.7006388   5.3644866  84.5392323  77.9005003   4.3718678
  78.9488268   2.1249874  49.3236160  78.9950037   1.2718137  49.7551155
  78.1289530   2.5074553  49.6362734   3.9463246  60.2320576  75.2117348
   3.5836804  59.6344852  75.8656693   4.8908868  60.2104950  75.3652573
   9.6678829  27.9318929   1.8915652  10.0195611  28.7753558   1.6067374
   9.8012328  27.3514390   1.1422180 101.0317993   2.9459727   1.2142503
 101.1838150   2.7728033   0.2851991 100.3554726   2.3177207   1.4674594
 100.2573681   9.0026629   1.2728462 100.7436275   9.5826375   1.8588680
 100.0774860   9.5386380   0.5004444  26.6606021  99.1661549   7.4279141
  27.0501375  99.8618603   7.9575312  27.3346782  98.9495659   6.7837542
  83.3283710   5.0440043  28.7316346  82.4465466   4.7343040  28.9382911
  83.4408951   5.8252311  29.2731643  78.1628132   9.9159515  14.1393113
  78.3757019   9.1619653  13.5893893  78.4090519  10.6750464  13.6107540
 116.1346817  29.7603512  89.5763302 116.9865322  29.9387217  89.1778660
 115.5916500  30.5075526  89.3252563  43.7397814  87.3942375  15.0192440
  43.6118841  86.4885998  15.3015339  44.2851877  87.3260975  14.2355883
  30.2800202  94.0503979  93.5774612  30.8443093  94.8229218  93.6092091
  30.8740544  93.3281136  93.3733559   1.6959506  13.8396621  87.0076752
   1.9139308  14.5030534  86.3529778   2.4229574  13.8689971  87.6296425
   9.5735461  67.2716570  57.9309464   8.9313287  67.8575087  58.3316565
   9.2181575  67.0851183  57.0619631  33.6105967  99.4235039  39.3724489
  34.1261721  99.9369907  39.9943304  32.7494168  99.8413563  39.3727326
  15.6578279  51.0637712  89.8158932  15.1421690  50.8584690  90.5957508
  15.2363741  50.5691957  89.1130447  72.5150347   3.0995658  19.9011874
  72.7541876   2.6434243  20.7080173  71.5694189   2.9720029  19.8252106
  22.7730227  46.7511654  81.1394119  23.0197787  46.1706400  80.4194546
  23.6059809  47.0753527  81.4819241  55.6412792  98.4761047  54.3441772
  56.3384295  97.8466702  54.5286322  55.5027723  98.9304543  55.1752090
  70.6707668   4.5511290   1.5975268  71.0899115   4.5582291   0.7370040
  70.3561401   5.4470682   1.7180920  80.2313232  17.0780814   4.3091145
  79.6095991  17.6033258   4.8129144  79.7171545  16.3343346   3.9949417
  65.5504370  36.7209911   5.8311707  66.2044144  37.0027971   5.1915365
  65.6924438  35.7785201   5.9195608  41.5141487 100.4674244   1.2028226
  41.9811821 101.2286663   1.5472275  40.6004000 100.6170368   1.4455470
  75.2082491  99.6340752   7.6434261  74.5492363  99.9325371   7.0166445
  76.0430336  99.7644329   7.1935642   7.6250976  68.8908005  88.9845276
   8.4655404  68.6285305  89.3601704   7.6697809  68.6024427  88.0728912
  21.6960835  76.1126566  72.2112656  22.3482847  75.4748774  72.5012779
  20.9222436  75.9218264  72.7413511  62.8890038 103.7073898  11.5210390
  63.7105560 104.1639423  11.3398170  63.0485439 103.2446671  12.3436415
  76.1153936  23.1335735   6.0524011  76.7848921  23.2073474   6.7325217
  76.2738180  22.2786498   5.6520998  81.7103386  96.7993546  33.0130172
  81.5893364  96.0707188  33.6218476  82.5565815  96.6281509  32.5997448
  18.8934875  28.3253884  81.7661381  18.3736503  27.6426315  82.1902180
  19.6504402  27.8620934  81.4075089   0.9393107  60.4716921  82.6602459
   0.3036963  59.7571898  82.7016830   1.0811793  60.7193518  83.5739040
  57.2812653  92.1657467  28.8655138  57.6950407  91.3924980  29.2490554
  57.7575731  92.9047966  29.2438984  81.6368008  12.2421992  22.4838734
  80.9235001  11.9731104  21.9050598  81.1972904  12.5962210  23.2570052
  80.5109024  21.2134266   4.5210013  79.6767521  20.7450914   4.4881156
  81.0954857  20.6279469   5.0023639 101.6149998   1.1958293  18.3814573
 102.4008656   1.0779990  18.9150941 101.7132854   0.5654240  17.6679015
 114.9899769  55.9499550  87.8487968 115.2049065  55.0357723  88.0340195
 115.5721474  56.4529848  88.4182358  11.1080706  89.1554737  82.6675034
  11.2962210  88.3556747  83.1585789  10.1652694  89.2841434  82.7714348
  22.1048570  82.1038437  82.2401333  23.0564833  82.0579624  82.1477509
  21.8159890  81.1921978  82.1988678  83.7858868  10.1961279  15.1870430
  83.2754993   9.4611514  15.5269611  83.9166546   9.9892700  14.2616546
  83.1176567  17.1301675  28.5190010  83.5790443  17.2284579  27.6861215
  82.6298618  17.9474711  28.6204910  83.8273335   2.9059035  27.1501732
  83.6060810   3.3981892  27.9407024  83.8783932   3.5688573  26.4616132
 115.6381798  65.5243969  86.3220119 115.9210205  65.2754831  87.2019386
 116.2149620  66.2493277  86.0811329  37.8136206  37.3941517  68.7953138
  36.9948053  37.1445322  69.2236376  38.4084511  37.5991988  69.5166779
  46.4290237  79.0250969   3.8557023  47.1437025  79.3360043   3.3000031
  45.6351423  79.2288399   3.3612588  94.0686035   5.3661382   7.4558008
  94.0820217   6.0432285   8.1322628  94.9699593   5.0460315   7.4194151
  62.7462959  35.3651237   2.7011874  62.3621273  36.1883402   3.0027902
  62.6802826  34.7794867   3.4554440 100.5470753  50.2756548  22.4246311
 100.1163864  50.9841108  21.9462729 101.4814568  50.4177380  22.2730470
  33.1513500  83.4855652  31.0323405  34.0412855  83.2125187  30.8094239
  33.1539655  83.5542965  31.9870663 110.5680466  17.8661096  65.7961273
 110.6070805  17.7076161  66.7393064 110.9942150  17.1023977  65.4070807
  55.1633024 109.9152184  29.9351358  54.4914341 109.4142246  29.4727135
  55.4164219 109.3556786  30.6693530  78.2425165  31.8750405  33.8743615
  78.2579136  32.4117589  33.0819440  78.3591986  30.9788632  33.5589504
 100.4393578   9.4596130  26.6021609 100.1609612   8.8247240  25.9421277
 100.9703922   8.9508784  27.2148776  10.0980902  50.8662033  94.5138168
  10.4707146  50.0568581  94.8635960   9.4321507  51.1191797  95.1531696
 114.6244431  87.4633312  39.4293523 114.9588394  88.3517551  39.5522904
 113.6898041  87.5300121  39.6249056   9.7569990  27.6170444  84.7675133
  10.2877378  26.8669939  84.4992352   9.0789199  27.6833773  84.0951729
 116.9562149  88.1957531  84.4278622 116.3930988  88.1400681  83.6558247
 117.8065586  87.8747177  84.1277409  87.2589493 109.9200249  37.8763795
  87.1908951 110.8682823  37.9877877  86.5315628 109.5659351  38.3879995
 100.6071281 106.2403774  41.9553614 100.2325535 106.2008190  42.8353405
  99.9114227 105.9150219  41.3840675   2.4998528   8.1580389   8.5344654
   2.7536309   7.3111349   8.9013195   1.7310399   7.9658175   7.9976141
  83.7112999 110.0208092  23.7679410  84.1316128 110.8332443  24.0499306
  84.3958473 109.3565941  23.8482428  16.2167406   5.6231582  42.7315140
  16.5970981   5.7015747  43.6063910  15.7357776   4.7958392  42.7527189
  68.9347506  14.0353060  15.0253177  69.6452904  13.8932359  14.3998706
  68.3534241  13.2849324  14.9019039   1.1622509  47.8382587  95.2158928
   0.9661479  48.7751055  95.2252197   0.3235292  47.4161291  95.4018593
 111.8943000  31.5306134  96.2541372 111.9759989  32.2126240  95.5874848
 111.7962313  30.7192082  95.7559171   2.4678759  60.7458973  87.9873848
   1.9201578  60.4685783  87.2529984   2.6624161  61.6656303  87.8071690
  77.2850227  32.3906016  17.8266370  77.0997429  32.2391963  16.8998253
  78.1689501  32.0459509  17.9535997 107.3227406   7.8430414  26.6320920
 107.2798061   6.9033861  26.4547873 106.5939903   8.0073965  27.2305512
  79.3808746  24.9622560  25.9318757  78.9245272  25.8035278  25.9473610
  79.4387341  24.7382212  25.0030637  93.7213039  11.4692593  48.3345985
  93.8920307  12.1911347  47.7296352  92.8208733  11.2056625  48.1449127
  82.4659729  57.3111963  77.4209356  82.3707008  57.2563744  76.4700651
  83.2669449  56.8223810  77.6099682  11.2197840   0.7174432  40.3407907
  10.6513727   0.0436231  39.9678206  11.5295291   0.3405450  41.1643410
  59.9937010 105.1021576  17.8344929  59.6667814 104.8510456  16.9706070
  59.8549128 106.0482693  17.8773856  14.2782378  89.7380924  83.1844807
  13.7076950  89.0312195  82.8827381  14.0976894  90.4634094  82.5865173
  41.6353321  92.5382614  16.3020444  40.9844065  93.2057190  16.0851586
  41.7211676  92.5878525  17.2540975  81.6312599  90.8432293   8.3995020
  81.9134140  90.3750229   7.6137483  81.4978790  90.1563454   9.0526712
 111.2370300  28.4888649  75.7457924 112.1599960  28.5959792  75.9757614
 111.2295818  28.4671736  74.7888660 114.6894550  37.5136018  90.3814411
 114.5262241  38.4056973  90.6876373 115.3723240  37.1815276  90.9642315
  69.2034483  20.2436519  29.5293903  69.8612928  20.1705360  30.2208567
  69.0700436  21.1856723  29.4243598  79.0277719  12.4755347  12.6708078
  79.8666954  12.1978188  12.3029637  79.0630293  13.4319091  12.6524198
  56.5192318  98.1131840  22.5649285  55.8360529  97.7793980  21.9834781
  56.9819450  97.3307228  22.8647327  20.6814551  31.8363929  78.3315182
  20.8082271  31.5174222  79.2250633  21.4961314  31.6150665  77.8803539
 102.1413422  76.5310240  13.0994654 101.7708588  76.0907841  13.8644230
 101.4151096  76.5832806  12.4781048  61.5058804 107.0325279   3.2351986
  62.1879101 106.3971329   3.0176228  60.9847879 106.6019440   3.9129099
  79.9097967   1.9994430  36.8112445  79.9283743   2.5743163  37.5763631
  80.5927944   1.3509813  36.9822431   8.9249080  76.0829687  79.7627115
   8.1877214  76.3315582  80.3203773   9.6974188  76.3962746  80.2331352
  52.8863668   8.5920191  69.1863298  53.7701941   8.9467818  69.2823458
  52.5420046   8.5621083  70.0789404  91.2586212  66.7435408  15.8506131
  91.7845821  66.0552120  16.2577939  91.8822002  67.2390413  15.3197134
  29.7176194  87.0031834  87.0192719  29.3842721  87.0502281  86.1232281
  30.4812026  86.4289284  86.9609165  14.2824316  93.8414288  91.5701866
  13.4840882  93.5025406  91.1651707  14.6940482  93.0738258  91.9671535
  97.2887325  40.8462143   7.4280697  97.2085381  40.1133585   6.8175626
  96.4070415  40.9599209   7.7829182  53.6554861  96.4437866   6.2006766
  54.5034599  96.8777275   6.1065179  53.7861061  95.5768585   5.8164793
  52.3502970 104.1994095  15.0448394  52.5143623 103.2606125  15.1341975
  51.4453030 104.2562771  14.7382748 112.3230076  30.5889678   9.9158216
 113.0946064  30.8182931   9.3978673 112.6511288  29.9803948  10.5777979
  24.8516703  55.0620079  83.7567520  25.4207540  55.0237083  82.9880524
  25.4505348  55.0041246  84.5012283  21.3396549  58.1062508  82.0830441
  21.2527800  58.0416822  83.0341053  22.2719097  57.9656744  81.9176006
   0.0467815  14.2700410  33.2726312   0.5419981  14.8780322  32.7236867
   0.7156421  13.7448430  33.7119746   0.9202949  99.7881508  76.6154480
   1.8164143  99.4520569  76.5998936   0.5134599  99.3509293  77.3634815
 111.0126400  41.3701439  17.1790969 111.5820885  41.8151808  17.8067124
 111.1832047  40.4387808  17.3194623 104.5630074  35.2745175  48.5401773
 104.9405193  36.1121488  48.8086653 103.9606285  35.4995704  47.8311491
  82.0387554  85.4190254   0.7477781  81.9657135  85.8841419   1.5811846
  82.6916504  84.7380924   0.9099351  33.1712866  83.2309628  92.1448708
  33.7787724  83.0210876  91.4355469  33.6615467  83.0398941  92.9444790
  64.0162230  97.8005028  48.1525183  64.1473007  98.6603546  47.7528858
  64.8179007  97.6435566  48.6514330  21.9172454  46.7627048  92.8684139
  21.2426424  47.2048664  93.3838081  21.6784549  46.9403267  91.9586563
  86.6025066  24.7433209  10.3827453  87.0874596  25.5650640  10.4588187
  86.1256123  24.6692443  11.2093759  21.4918923  82.8102970  88.5592937
  21.9424772  81.9695091  88.4800529  21.4915466  82.9942513  89.4986439
  23.5217333   2.3733595  41.4007807  22.5785613   2.5360930  41.3875675
  23.9127469   3.2398677  41.5126038  38.7799335  56.7070246  95.2099323
  39.4989824  56.7728186  94.5815468  38.8663888  55.8292580  95.5817986
  95.8108139  32.7344823  34.3160558  95.1495934  32.4168873  34.9309921
  95.5686378  33.6461949  34.1536975 105.9473324  22.9432154  22.4960542
 106.6085052  22.3075986  22.7700377 105.1118183  22.5197697  22.6931787
   3.7910506  33.3703613   2.5365421   4.2680028  32.7354574   2.0020851
   3.1164446  33.7164879   1.9523031  15.9613264  25.3116179   4.4529325
  15.9104943  24.5780897   5.0657821  15.0916982  25.3519583   4.0549982
  39.5245743  99.9817276  29.5753908  39.3487191  99.9885559  30.5162716
  39.4295645 100.8957005  29.3073368  55.1744270 103.4066010  46.2896442
  54.9655676 102.8247929  45.5588198  56.1295557 103.3840179  46.3483620
 111.6589832  30.1278162  26.3820624 111.6402817  29.4954848  25.6637025
 110.7378006  30.3252816  26.5513682   2.7173066  92.5794411  94.1476822
   2.4226204  93.4698486  93.9564610   3.4516722  92.6945210  94.7507572
  34.0820431  72.9521665  96.3634115  34.3076729  72.1705195  95.8590793
  34.0808129  72.6575085  97.2741290  90.9132290  90.4483318  21.9457245
  90.9698963  91.0415268  21.1966348  90.2017117  90.8029938  22.4788165
  75.4723454  45.5381775  14.1743135  74.9423742  45.0032473  14.7652531
  75.7018232  46.3104343  14.6912181  35.8587170  71.2565804   2.2306953
  35.8597946  71.0747337   3.1704628  34.9320245  71.3260460   2.0012449
  99.5237827  28.8449526  15.1040828  98.8680267  29.5369220  15.1900756
  99.7706985  28.6356783  16.0048997 104.9490166  35.6646037   1.8599276
 104.8123074  36.5407276   2.2204173 105.8247662  35.4173946   2.1568713
  89.4278717  22.9783988  23.9344025  89.5412064  23.7741709  23.4146571
  88.4815979  22.9068422  24.0595984  24.2628646 100.8811665  73.7765551
  23.8300037 100.9984589  74.6221972  24.2247057  99.9381828  73.6167145
  73.3377171  86.3369656  25.2963638  74.0334368  86.8075657  24.8372889
  73.1242514  86.8949509  26.0442424  50.2211714 102.8876781  10.4619157
  49.7527409 103.6993217  10.6569600  50.4668045 102.9684448   9.5403016
 117.2413540  73.3296537  81.6015911 117.9806423  73.9375496  81.6140652
 116.4709282  73.8872337  81.7101383 103.8052976   1.0006760  20.3273988
 103.1364286   1.0028122  21.0121226 104.4144047   0.3104637  20.5897331
  24.5729589   5.3220135  17.8127110  25.4143691   5.6548440  18.1249309
  24.5536089   5.5532491  16.8840623  40.7187712   1.2050679   0.1084489
  40.1925099   1.4558604   0.8676500  40.6291449   0.2533677   0.0587339
  36.3318753  85.4061317  85.2377892  37.1233821  85.7956696  84.8662949
  35.6137323  85.9030247  84.8458672  30.8762622  59.4524956  93.2265472
  30.2401042  60.0464201  93.6250305  30.3475833  58.7363768  92.8745556
  32.8233266 102.0604134  83.3716488  33.3391857 101.9441700  84.1695309
  32.6908422 101.1721230  83.0405521  44.1317272 108.3912659  17.1972728
  44.4023085 108.2954788  16.2841237  43.8859940 109.3127823  17.2788596
  97.1507931  10.1538444  25.7315779  96.3634586  10.6604660  25.9307742
  97.1355343   9.4309777  26.3588428 103.0058479  11.1508524  35.0224066
 103.1345844  11.6868472  35.8049464 102.7643776  11.7772627  34.3401027
   9.4587648   8.5895211  95.5601692   9.4099969   7.9054558  94.8924065
   8.7352401   9.1803175  95.3511238 110.0949478  18.3355486  11.0140967
 109.4868851  18.3729422  11.7524064 110.8890438  17.9435968  11.3774300
  48.0093861 105.1969433  67.9773998  47.6240110 104.3456459  67.7700043
  48.6652327 105.0059891  68.6479473   3.8019833  22.3483801   2.2114865
   4.1665843  21.5575671   2.6088688   3.5672897  22.0832157   1.3221958
 101.4100552  14.0118790  38.5506558 101.5297031  13.8178563  37.6209950
 101.7344761  14.9066734  38.6522698  61.1792850  97.2049809   2.1063988
  60.9419060  97.3329926   3.0248183  60.6473446  97.8427029   1.6303939
 102.5268745  30.9964275  15.6068003 101.7288494  31.1593533  15.1039732
 102.2206783  30.8533764  16.5023518  74.2162752  14.9122703  25.9644842
  74.6320724  14.1582763  26.3826180  73.9558792  14.5934951  25.1003027
  14.0074146  18.6092496  41.4935780  13.1916845  18.8094521  41.9526386
  14.6761596  19.1046274  41.9664574  97.4849415  54.3576765   5.6214023
  98.1147099  54.8032236   6.1880738  97.9400349  54.2642879   4.7845000
  45.0269878  78.4141204  95.9641552  45.9836269  78.4075472  95.9962659
  44.7956390  77.5842878  95.5469195  37.5232983 102.3585796  91.2859726
  37.5720549 103.2962990  91.1001205  38.3719993 102.0147133  91.0072327
  93.3644485  26.4560866  10.5710483  93.0631256  26.1422253   9.7184461
  94.2788506  26.6997433  10.4270875  18.1654322  22.4157524  25.3418255
  17.7922237  22.0257759  26.1323094  17.7324343  23.2661223  25.2668929
  50.9179401 103.8948822   8.0469656  50.3545952 103.8116264   7.2775888
  50.6415176 104.7135735   8.4587556  64.2222786  87.7698421  37.1020603
  63.4855700  88.0330563  37.6536131  64.8801851  88.4512997  37.2399640
  14.5713925  46.7356396  32.0529795  14.8091233  46.8331289  31.1309099
  15.2354884  46.1462545  32.4105215  80.3564930  33.2220578  19.3024135
  80.1338005  33.4080434  18.3902454  80.7750130  34.0241146  19.6151066
  10.4989898  88.7221813  10.1454639  10.2982509  87.8060341   9.9541229
  10.0381041  88.9022732  10.9648418  14.7291887  76.2664366  95.7003021
  14.3295944  77.0141077  95.2558422  14.0842903  76.0061169  96.3580036
  65.4823017 104.0071392  20.5500770  66.1334562 103.6970711  19.9207234
  65.1387405 104.8120308  20.1623321  62.3531437  20.3455496   3.6324376
  63.2482147  20.1268339   3.8917530  62.0423126  19.5693159   3.1665197
  77.2601700  43.3866310   7.4611712  76.9831800  43.5066700   6.5528214
  77.3813486  44.2758369   7.7941203  22.9639578 104.4070244  88.1089401
  23.2501888 103.5975933  88.5321617  22.0083117 104.3525028  88.1092644
   6.9069481  64.9244356  72.0201969   6.1056662  64.9070168  72.5435257
   6.6752058  65.4348040  71.2442780  91.0022545  31.3114810  16.2711048
  90.5008602  32.1237469  16.3422656  90.4058075  30.6332827  16.5881634
 111.2999344  15.8191192   7.8543931 111.1064243  15.1163554   8.4748042
 111.8432999  16.4324868   8.3491272  58.6093760  95.2920914  88.5082722
  57.8239489  95.5678082  88.9808369  59.3259954  95.7512379  88.9463043
 111.5135193  29.1837668  14.5957243 110.6503868  29.2454743  14.1865301
 111.5991783  29.9943662  15.0975430  12.9218936  85.9934044  92.4196625
  12.9904163  86.8644905  92.8104973  12.1472943  86.0424900  91.8594646
  -0.0188936   8.1606680  21.3187432   0.9264266   8.1690192  21.4688158
  -0.3559507   8.8628471  21.8751359  91.7310810  25.9830451   1.0042379
  92.0526314  26.0347128   1.9043295  92.5202274  26.0325098   0.4647690
  19.5187163  41.0494184  94.3399143  20.0584841  40.3006840  94.5934391
  18.6420631  40.8306265  94.6558857   9.2778295  16.7631996  22.8546667
   8.9931756  15.8497548  22.8259945   8.7276226  17.2059262  22.2085261
   8.4744614  11.2627769   5.5845129   8.2653064  11.8387580   6.3198572
   9.0214527  10.5761838   5.9661174  35.8761239  45.2163935  89.9181271
  35.4074359  44.6687174  89.2883587  36.7893291  45.1808167  89.6334839
 103.3456230  26.8045831  21.3294220 103.3441162  26.9806886  20.3885627
 104.1939163  26.3931084  21.4947200 101.0306931  11.4254618  96.1456299
 101.1016273  10.6495798  95.5895615 101.7551136  11.9861519  95.8679962
  93.9082432  47.4154472  27.4761462  93.8727379  46.5128279  27.7927637
  94.8390961  47.6379871  27.4908638   5.7461512  56.1484098  88.7652302
   6.5770137  56.0645962  89.2330742   5.1302153  55.6218481  89.2747307
 116.4607811  29.2921209  54.0183926 116.0644817  30.1208568  54.2874241
 115.7195950  28.6961675  53.9102077 116.2692165  30.2193522  39.5532084
 115.3575134  29.9858356  39.3785357 116.3852882  31.0678244  39.1255975
  98.7349606  32.4986672  11.9393981  97.9678917  31.9800949  11.6966510
  98.7933922  33.1717443  11.2613249  79.0365124  14.6131349  37.1483040
  79.9057150  14.2630923  36.9528747  79.1508484  15.0945067  37.9677200
  24.2441750  67.8767347  94.0616894  24.8425722  68.3380079  94.6493816
  23.5831356  67.4985170  94.6415329 105.4116821  25.7920265  44.4655085
 105.3452301  25.8514166  43.5124683 105.8493614  24.9555230  44.6234226
  71.5024376   9.1736680  84.7485542  72.3773623   8.9027971  85.0267029
  71.5854979   9.3208784  83.8064003   3.2570651   5.5330843   9.5094663
   3.4844425   6.1409533  10.2130473   2.9844064   4.7346458   9.9615556
 117.9683876  56.8609810  75.7087088 117.1809387  56.7118883  75.1853180
 118.3945942  56.0048723  75.7493687 117.9276371   9.8090011  23.3028340
 117.3044682   9.6525824  24.0123582 118.5854244  10.3896451  23.6854529
  73.4527922 101.7514706  17.3383355  74.3900299 101.6127872  17.2020388
  73.0943584 101.8492413  16.4561796   9.5270860  30.6996560  72.9496527
   9.7358584  31.5099931  72.4848938   9.5595622  30.0214219  72.2749853
  43.1848049 106.4480305  48.1217766  42.8802919 105.5596924  48.3071232
  43.3212423 106.8393612  48.9846087   8.6581457  16.3957810  26.8489075
   8.0313224  16.4932454  27.5657248   8.2673579  16.8799520  26.1215186
  52.7181911  78.4466553  90.3934193  52.9317141  77.8552389  91.1151314
  53.2226467  78.1117535  89.6520710  58.9123964 105.8779526  25.7046390
  59.6604300 105.5275536  26.1882734  59.1149569 105.6976414  24.7866607
 110.8867455  84.2707348  84.0863514 110.2543640  84.9245358  84.3844795
 110.3615665  83.4879398  83.9200592  94.3997192 103.2222557  10.4952693
  94.4530869 104.1700840  10.6177270  94.8226261 102.8562069  11.2720513
  20.6229138  86.5226719  96.8586994  20.3667855  85.8160207  96.2660155
  21.1801838  87.0910284  96.3270491  98.1361961   1.1692686  23.5290241
  98.7909698   0.4984578  23.3353400  98.2554340   1.3587131  24.4596815
  65.3828955 105.2130795  10.9879720  66.2429428 104.9206638  10.6862533
  65.5658388 105.9899902  11.5163422   7.9922795  68.2019472  86.3379765
   7.9443395  67.2500134  86.2499142   8.4451413  68.4931898  85.5465698
  46.5387487   8.4804046  53.1926203  45.9206247   8.8476229  53.8245296
  47.0231295   7.8196508  53.6876106  35.6968760  25.0265718   7.6145506
  35.3905988  24.8656821   8.5070419  36.2771606  24.2895699   7.4239492
 111.1590195  39.1797280  39.8081946 110.7040215  38.3423924  39.7182965
 111.9236374  38.9800572  40.3483105  99.5297146   9.7847074  47.6474714
  99.0437698   8.9891815  47.4301577 100.1932812   9.8550272  46.9612026
  27.8564906  22.0594740  42.9439497  28.4560347  22.3181105  43.6438656
  28.4125471  21.6141486  42.3046398  92.3323441  35.0334573  30.2211475
  91.4029121  35.0479507  29.9927282  92.7105713  34.3702817  29.6437597
  64.9552917  79.5627642  92.5034618  65.0098896  79.0190554  93.2893562
  64.0581846  79.4436264  92.1916389  60.2828276 110.9859206  19.6905708
  60.9318220 111.6662048  19.5109844  60.2922213 110.4335901  18.9088583
 105.9570694  19.4101477  20.7296300 105.4647446  20.2267504  20.8133340
 105.5013752  18.7956846  21.3049603 109.2880630  32.6981187  31.9077897
 110.0383663  32.6979017  31.3134122 108.7895203  33.4779906  31.6638899
  94.6000767 100.8877945  43.9153242  94.1047859 100.5629635  44.6672583
  94.9336624 100.0983047  43.4891033  99.2916870  61.1605835  80.8420467
  99.6068954  61.9392443  81.3009071  99.0160751  60.5663967  81.5400505
  10.4801500  67.9415560  52.3006010  10.8704245  67.9179525  53.1743050
  10.5498445  68.8575983  52.0318174  70.8362925 111.7350033  14.5954561
  71.7381537 111.6652264  14.9085224  70.3722250 111.0269654  15.0421774
  26.6827846  33.4967113  90.4202366  27.3566270  33.8811731  89.8595524
  26.2718296  32.8257322  89.8751354  91.5864182  15.7561469  12.4399114
  91.8590832  15.7065165  13.3561110  90.6300354  15.7741523  12.4752772
  93.1183624  20.2967739  17.8131723  93.9186668  20.5922079  18.2472992
  93.2521725  20.5139709  16.8905926 110.7733059   0.3233176  51.7711449
 110.2733898   0.8887072  51.1823797 111.4231300  -0.0954067  51.2066698
 101.6961479  17.8046596  26.3123965 101.3164997  16.9260812  26.2982988
 101.7426491  18.0306029  27.2413850  10.3494585  38.6182761  10.0473356
  10.6606293  37.9998589  10.7083678  10.8865786  39.3996167  10.1786423
 106.2253571  48.6275482  29.8674202 105.2830219  48.7014341  30.0183773
 106.5291691  49.5328999  29.8021102  17.4950933  98.1259823  79.5117092
  17.2436607  97.7242470  80.3433514  18.4470356  98.2109070  79.5648623
  36.2237477   8.2436609  33.2622457  36.7493033   8.2411468  34.0622544
  35.5489945   7.5825769  33.4168673  97.8212738  11.7576718  21.9534564
  97.9839611  12.6975417  22.0335245  98.3416367  11.4881504  21.1966085
  25.0091267  87.7188301  82.1146774  25.5218506  88.0902195  81.3967514
  25.4778504  87.9840851  82.9059887  20.7145691  66.9013691  88.1734085
  20.2132130  67.5104952  87.6313400  20.9425664  67.4069262  88.9535713
   7.0604634  73.7990713  70.7988501   7.3420304  73.0373287  71.3055086
   6.4440745  73.4456015  70.1574755 112.7392864  69.4616127  76.3125658
 113.0986595  68.5766172  76.2503958 112.6312447  69.6108055  77.2518730
   8.6451125  78.5945463  86.5719032   9.1973418  78.0501175  86.0107708
   8.6686540  78.1605291  87.4247265  84.2041016  46.8785763  90.6228828
  84.3813515  46.5507555  91.5045643  84.9869442  46.6515112  90.1210594
  70.0793934  96.3738441  15.9588587  70.4050207  95.4738426  15.9450042
  69.1447020  96.2933254  15.7688665  82.9470825  12.4959946  31.6522002
  83.0940819  12.2938240  30.7282138  83.6347389  13.1244528  31.8722081
  15.5248189  45.5148029   4.5318025  16.3038373  45.5638170   3.9777619
  14.8359299  45.1958609   3.9487597  32.1665502  39.2210674  33.4478402
  32.2839332  38.5552073  32.7702856  31.6386127  39.8999572  33.0275726
   2.4525914  96.4544868  34.0829206   1.8248713  95.7772541  34.3350434
   2.2923207  97.1704388  34.6976948  53.3541298  91.1224079  17.6760268
  54.2874956  91.3200092  17.5984681  53.3003139  90.5016136  18.4026289
  13.3814824  57.9920578  93.9867306  13.3365953  58.5542440  93.2133198
  13.7572622  57.1723890  93.6655331  85.8754349  46.0147381  24.1643310
  85.4291725  46.6266727  23.5789990  85.7520294  46.3857889  25.0380135
 100.1937008   7.4234545   9.2135912 100.9362316   6.8246734   9.1339564
  99.8405170   7.4863857   8.3261603  96.0644817  10.0044680   5.6567872
  95.5732441  10.8140528   5.7963765  95.4039001   9.3130720   5.6996071
  66.3267887  82.0154807  95.9175252  66.0409439  81.1073658  96.0167857
  65.9174288  82.4768040  96.6495349  79.6810818  94.3907356   5.4917359
  79.8893881  94.7380924   4.6244508  79.7998524  93.4448338   5.4057592
  14.8807358  91.9370958  95.5478042  15.0397610  92.2651312  96.4328674
  14.7862076  92.7256438  95.0134932  47.9045820 108.8308525   7.0171487
  48.7754726 109.1975212   6.8643808  47.8374910 108.7617302   7.9694897
  83.8711548  16.6199040  17.1721089  83.3398533  16.7901886  17.9499006
  83.9798164  15.6689715  17.1597660  94.3591404  33.5776186   2.9182649
  93.9242077  33.0032134   3.5484421  93.6767197  33.7978387   2.2842008
  90.7298756  34.0757895   6.3650090  91.0201645  34.4285393   7.2061592
  89.8295879  34.3874764   6.2724340   7.4804002 106.5453911  76.9834948
   7.6069027 107.3528862  77.4816704   6.6773492 106.1666489  77.3411226
 111.7899132  36.3912439  19.4213271 112.3941231  35.7533669  19.0414894
 110.9215069  36.0180521  19.2702377   4.9244580  25.6995869  41.0062551
   5.0350606  24.8309112  41.3927794   5.5946028  26.2368298  41.4287567
 117.9714298  59.0902376  54.6323586 117.7617073  59.3551683  53.7367821
 117.6859379  58.1781483  54.6853924  43.2820082 108.0541039  75.8281326
  43.0627728 107.8316402  76.7329407  42.8003979 107.4163818  75.3012609
 112.0696831  53.4742117  14.1804218 111.1689377  53.3848906  14.4917333
 112.3925972  52.5751305  14.1203308   3.6008611  35.2568364  18.2756770
   3.0072758  36.0038185  18.1988132   4.4311976  35.6389832  18.5598195
  55.2646542  20.8292150  95.4539871  55.9592676  20.2822018  95.8207607
  54.7191429  20.2211285  94.9551105  89.4140053  14.5627534   4.8620579
  88.9433002  15.3938913   4.9243242  90.3213978  14.7851992   5.0703704
  84.7962952   5.0196165  25.6190586  85.1547241   5.7017380  25.0511885
  85.1867867   5.1916456  26.4758849  64.0763474 109.4199657  31.4639783
  63.7334919 108.8043118  30.8161712  63.4258795 109.4157028  32.1661901
 107.8936672  76.5731382   2.2751562 107.1573448  77.1326542   2.0281796
 107.4878883  75.7516384   2.5521278   1.7947556  15.9552968  32.0269847
   2.0492423  16.6007090  31.3675070   2.3056045  15.1757586  31.8088460
   7.9029649  14.9338377  13.0139518   7.9382873  13.9989340  12.8116179
   7.1952766  15.2711809  12.4647629  87.2105408  15.2942038  84.2658138
  87.8740120  14.9888098  84.8845005  86.9974327  16.1795306  84.5607853
 112.1173859  14.1574025  44.8588848 112.9197979  13.7930810  45.2325630
 111.9976330  13.6805594  44.0375948  19.7256017   7.4709409  69.6504021
  19.8515403   7.3302263  70.5887890  19.3230474   6.6604203  69.3385744
  19.8236978  67.3897934  52.7295589  19.1364026  67.9045010  52.3065519
  19.5900857  66.4802027  52.5443459 108.3343506  37.4124169  84.2737675
 109.0143776  37.3599315  84.9453545 107.8963184  38.2468867  84.4411469
  22.0514059  28.6937356  16.6981447  22.7910352  29.2581940  16.4732659
  22.4195695  27.8102636  16.7109585 108.2652092  52.0344114  46.1437750
 107.8169155  52.8764009  46.2232256 108.5242081  51.9868612  45.2235079
  86.3813019   1.6376682  19.9012971  85.5451870   1.5200970  20.3522182
  86.7306137   0.7512281  19.8094499 118.1446266  79.7120333  82.7966595
 117.5475407  80.4139042  83.0556965 117.8349113  79.4408464  81.9324970
 115.2220440  24.2715049  33.0560255 115.8152390  25.0195336  32.9867506
 114.6056747  24.3868279  32.3328209  16.9340348  20.3636050  34.2283249
  16.9282269  19.5509458  33.7225747  17.6037133  20.9027886  33.8075614
  11.3230884  65.2031946  34.5855927  11.0065842  65.9699774  34.1079926
  11.9863868  64.8203516  34.0113997 117.1631908  97.6722908  94.7031403
 117.5972843  98.4226322  94.2971992 117.4397087  96.9220734  94.1768932
   9.0210694  55.2805233  37.0823503   8.5639995  54.8777056  36.3440704
   9.9259585  54.9805021  36.9963646  15.8716285  17.8847587  30.5487275
  16.4869022  17.7530086  31.2700534  15.1268804  17.3231304  30.7635665
  93.2736301  31.6243744  31.2479687  93.2480240  30.8923221  30.6317902
  93.9697170  32.1918845  30.9168768  80.4346466  20.1112151  82.5041199
  80.7354832  19.3098986  82.0756054  80.5800056  19.9530780  83.4369087
  53.7030554   3.5576707  93.4385586  52.9156208   3.4514758  92.9047966
  53.6268759   4.4385800  93.8051987  72.2592926  95.9914303  82.7954006
  71.7294931  95.1943111  82.7838993  71.7845869  96.5861797  83.3760643
  72.8762770   6.0917485  23.1510043  73.6288881   6.1524701  23.7393260
  72.3398781   6.8540192  23.3688354 100.8192635  40.2158260  16.6732335
 100.1625156  39.5435047  16.4918602 100.8495235  40.7426977  15.8746576
  14.8592186  28.3572316  39.8654938  15.1403868  28.6903191  39.0133047
  14.3557942  27.5693488  39.6604681  21.9547105  42.9071665  21.3417721
  21.0586762  42.9767370  21.0123563  22.4618888  42.5952530  20.5922961
   6.0926825  10.7202649  11.3007557   5.8188170  10.3110540  10.4799175
   5.8599889  10.0825632  11.9756055 109.8439884  42.7191114  35.4955482
 109.1713905  43.3818960  35.6522918 110.4826641  42.8558636  36.1952734
  15.1380873  17.9406846  22.6826572  14.4048774  17.4202538  22.3543477
  14.7583365  18.7997007  22.8673553  23.7411809  33.6079049  67.6390934
  23.8431931  33.4920645  66.6944170  24.4713426  33.1203651  68.0204105
   3.2610160  77.5493193  42.7500534   3.4142947  76.9102716  42.0540953
   2.3545286  77.8291893  42.6228380  91.5174770  89.7009277  72.3497772
  92.3530960  89.8884392  71.9222069  91.0512447  90.5368614  72.3414087
 102.4287701  20.1534176  10.9853160 101.7280388  20.6597590  10.5744338
 101.9730282  19.5166862  11.5358639   6.7958057   4.8375872  18.3985078
   7.2601348   4.3167952  19.0537989   6.0007322   5.1298046  18.8442636
  16.1118996  72.9137754  91.4470005  15.9643209  73.8384295  91.6456699
  15.2635920  72.5971270  91.1366177  88.6017609  22.4639344  15.5403209
  89.4514465  22.6297045  15.9487104  88.7736416  21.7711663  14.9025416
  39.6321392  58.5229540  16.8768990  39.5657778  57.9654741  16.1016273
  40.3479671  58.1418324  17.3853970  32.6795840  94.5801735  96.4726543
  32.6156855  94.2285252  95.5846882  33.5932136  94.8529053  96.5570927
  21.7426968  58.8162613  27.6633263  22.1654534  59.6126890  27.9845929
  22.4330902  58.1535721  27.6840377  29.7616744  20.6580949  40.8747292
  29.9436903  19.7190166  40.8396244  28.9738107  20.7694149  40.3426456
  22.7682114  23.2933950  19.1866636  23.0619812  22.3880315  19.2878914
  23.5631728  23.8162398  19.2910564   7.6822633  31.0759902   5.5743927
   6.8092662  31.3109946   5.8888465   7.5627828  30.2275229   5.1477081
  94.7461510  18.7102544   6.8840134  94.9949551  18.5314620   7.7908558
  95.5202675  19.1219640   6.4999878  29.6001625  32.8978348  33.5420799
  29.9663329  33.7618542  33.3533382  29.3074918  32.9552126  34.4516325
  30.6991768  39.8845792   6.7898798  30.1817632  40.0872469   6.0104954
  30.1032925  39.3876171   7.3504019 117.8941631  18.1768668  22.8318071
 118.5526562  17.4927866  22.7107668 117.1343803  17.8679574  22.3383117
  62.3264694  95.2582741  94.0642548  62.7741146  94.5270920  94.4899464
  61.7315340  95.5970573  94.7332191 103.7543774  47.9295921   8.3344936
 103.5529804  47.7503204   7.4160534 104.2434597  47.1605110   8.6269820
  23.7236071  98.2638550  89.9421978  24.0389967  97.7407074  90.6791401
  22.9569530  98.7230301  90.2851677  55.8715487  98.0998039  78.5423422
  55.5786943  97.3477268  79.0569782  56.2034798  97.7190208  77.7292871
  92.9360390  53.6408281  10.3316629  92.2802639  53.5444212   9.6410871
  93.1234264  54.5792246  10.3547025 112.2014332  27.0098853   9.3861860
 111.4122009  27.1852779   9.8986179 112.1157169  26.0944104   9.1201222
 113.9668655   7.0202029  16.7832291 114.8697758   6.9634783  16.4705479
 113.6818218   7.8992897  16.5338540  18.8754630  21.7065477  32.7955747
  19.7742212  21.8858552  33.0718279  18.9157736  21.6992760  31.8392515
  11.5475297  32.4491549   9.6101385  10.7140923  32.7573419   9.9659973
  12.2069681  32.9969740  10.0358951  11.7622411  46.0376740  11.2570691
  12.1480370  45.5817270  12.0050704  12.1891010  46.8944120  11.2526405
   1.3050923  25.7420588  19.7072995   0.4998177  25.3496647  20.0446272
   1.8688458  25.8300781  20.4758477  23.2590985  53.8252115  14.7262800
  23.8806701  53.4482431  15.3489971  23.1610703  53.1548071  14.0501308
  50.9944153 100.3951931  96.2693214  50.3066730 100.4295826  96.9341946
  51.1985731  99.4639301  96.1838531 115.1828003  38.9707780  13.5380244
 115.0702286  39.9141312  13.6548233 114.3928242  38.5864234  13.9180732
 108.2034588  14.1430020   4.1307661 108.2276535  13.1875610   4.1834837
 108.2250977  14.4338059   5.0424659  56.4033747  78.4500551  93.5971546
  56.0669088  78.0031347  92.8204346  56.4681005  79.3685961  93.3357525
  27.2316623 103.2784557  88.1720352  26.8335223 103.9692783  88.7016582
  27.2276926 103.6275864  87.2807884  11.8113291  83.4613895  91.3954163
  12.3075569  84.2791843  91.4299488  11.6039097  83.3460617  90.4681015
  17.0957124  27.4799919  14.6344066  17.9651713  27.1790743  14.3703556
  16.4909649  26.9515467  14.1135824   9.6598762  58.9360809   8.8624877
  10.1374304  59.4074059   9.5451498   9.6780956  59.5244503   8.1076872
  31.6180825  99.7229862  91.5219212  30.8002377  99.8437214  92.0043945
  31.8083334 100.5856609  91.1533642   1.2179886  42.5501490   1.1159621
   1.1234192  41.7380333   0.6182113   1.5381248  43.1868362   0.4769246
   6.6797757  30.4311872  36.0643911   6.2051696  29.6071386  36.1735797
   6.2088585  30.8882952  35.3675961  20.2245641   6.5770435  31.6791177
  19.6686852   5.8349544  31.9168854  20.8321881   6.2228030  31.0298562
 107.5757980  45.0675344  20.4490876 107.2558880  44.2265654  20.1224923
 108.5212517  44.9464464  20.5367589 108.2188034  34.6405363   2.9934978
 108.9674568  34.0531564   2.8898996 107.9939365  34.5804858   3.9219713
 104.0831375  56.6398001  17.7047384 103.4344006  56.5356636  17.0086575
 103.6617088  57.2183084  18.3403134  14.8034382  36.4509678  49.5912647
  15.2894151  35.6595016  49.3596649  14.3689919  36.7115307  48.7791109
 115.6691456  34.5198226  53.1821251 116.5291309  34.9166250  53.3206844
 115.4944897  34.6462345  52.2495222  10.6937766  36.9464827  16.6609168
  11.3891757  36.8377161  16.0122085  10.0617766  36.2585592  16.4521790
  93.4689903  26.7942572  43.4963799  93.5008621  27.7490330  43.4361935
  92.6229191  26.5583992  43.1158972   7.3781878  56.8060541  33.8004947
   6.4442360  56.7534113  33.5975313   7.6277757  57.6957655  33.5507917
  50.0230408   1.2550867  80.5292416  49.9426889   2.1993777  80.6637383
  50.6156588   1.1690908  79.7824860  14.3312883  73.2951498  73.7122917
  13.8965118  74.1472530  73.7457609  14.4473374  73.0492592  74.6300650
  83.6302185  61.6375828  21.8910027  82.7963448  61.3468647  21.5217161
  84.0560341  60.8320904  22.1844125  21.5441751  36.7247152  11.2070584
  21.8910050  37.5987768  11.0282886  22.2887969  36.2397075  11.5627801
  25.1784325  91.9084263  81.9409657  24.5270729  91.6731548  82.6017284
  24.7702408  91.6729832  81.1077881 112.2512531  50.7103014  14.2561173
 111.3643169  50.6555462  13.9003444 112.1336079  51.0573196  15.1404071
  11.1406219  50.3202724  27.7785659  10.3340912  50.0508642  28.2180643
  11.5658760  50.9114981  28.3997297 116.2028790  29.1146660   7.9791212
 115.8757401  28.2232523   8.0999142 116.9452572  29.0185714   7.3825783
  47.2822618  97.7520943  11.1252415  48.0944395  98.1782627  10.8514249
  47.3042583  97.7866554  12.0815647  46.5951347   5.1298904  86.1773300
  47.5102568   4.9347430  86.3790703  46.4051533   5.9263468  86.6731071
   2.0219268  11.2294662  22.1796465   2.0503478  10.3895330  21.7214561
   2.9132873  11.5711081  22.1090150  12.1337163  78.6050463  94.6835041
  11.3369703  78.6117506  94.1530514  12.8370953  78.7913036  94.0615749
 117.0134068   5.1901257  33.4192204 117.6673889   5.4295349  34.0758920
 116.4668465   5.9708357  33.3297873  77.7682924  43.5965586  14.5794785
  77.3308182  43.3467960  13.7655568  77.7264404  44.5527840  14.5902121
  83.5214901  30.7824302   5.1571739  83.1877422  31.5386868   5.6397957
  83.2857800  30.9567595   4.2459747  85.9351921  62.9975891   8.8958532
  85.2937603  63.7049484   8.8292915  86.7746544  63.4448147   9.0032673
   7.0954770  36.4863372  24.6462393   6.2849361  36.4208746  24.1412950
   7.7425504  36.0134363  24.1228938 104.6855640  66.7217875  35.1169872
 104.1136265  67.4725866  34.9575615 105.5554008  67.1038532  35.2337980
  47.7017546  94.4473362  74.7886753  48.1848717  93.9025593  74.1673470
  46.8972778  93.9581203  74.9610710   6.3521594  27.9563403  19.1484666
   7.2305012  28.2021618  19.4388437   6.3693804  26.9998264  19.1165912
  32.0463419  35.6963205  54.2921400  32.8539729  36.1910295  54.1534805
  31.4929295  36.2813735  54.8095179  93.4938240  41.8649578  15.4629469
  92.6748085  42.3317957  15.6287861  93.9127827  41.8039179  16.3214219
 110.2838802  33.4855604  14.5822620 110.6301975  33.9392972  13.8138795
 111.0424519  33.0399704  14.9594104 109.8198223  61.1162996   6.9662935
 110.5620384  60.5363798   6.7959100 109.0910053  60.5242491   7.1521461
  11.4446819  14.5820379  21.5973115  11.4938223  13.6303723  21.6875982
  10.5270386  14.7920108  21.7707324  86.9898701  76.6121960   5.5253100
  87.1044731  76.2218046   6.3917345  87.0526314  75.8736563   4.9196309
  94.6428108  37.5219417  36.0739875  93.8244247  37.1288896  36.3772678
  95.1393604  36.7895913  35.7088327   2.8984267  47.3455095  26.8097758
   3.5242015  48.0377436  27.0229673   3.2965919  46.5473843  27.1571875
 109.4028854  41.4431524  31.7815375 108.9286041  42.2742510  31.8053198
 109.1395950  40.9940577  32.5847936  28.8533568  96.2355232  86.8858528
  28.9513159  97.1204376  87.2373676  29.7046876  96.0371304  86.4958477
 113.4040928  25.6474400  17.0711279 113.0543613  26.0512424  16.2768602
 113.8596249  24.8646927  16.7612445 104.9835491  36.3559723  10.8488393
 105.5884075  35.7017779  11.1987007 105.4347420  37.1907640  10.9744525
  34.8348880  75.4088211  91.5228748  34.5264244  76.2190199  91.1170959
  35.7800484  75.5306625  91.6126442  22.5634122 104.2285538  75.4671717
  22.8542376 103.3744144  75.7866907  21.6098571 104.2018700  75.5462360
 113.8643551  31.9016719   8.0191976 114.7342205  32.0781994   7.6608628
 113.3199596  32.6167345   7.6897299 111.9261265   8.0613232  21.9446683
 111.9579029   9.0139431  21.8567038 112.4870205   7.7368909  21.2401319
 115.3976631  83.5225964  96.2149239 115.4755592  83.5834599  97.1670055
 114.6366215  82.9598045  96.0723591  32.1111798  13.4893763  33.9856982
  32.9784656  13.2215440  33.6818647  32.2722125  14.2764306  34.5061278
  74.2646074 108.4100342  11.5401268  74.8643684 108.1566238  12.2417676
  74.1831589 107.6244926  10.9992802   4.6360061  54.7495413   7.5016451
   5.0333095  54.1473293   6.8725777   5.3245926  54.9106932   8.1467098
  67.0158100  61.8703699   8.4094495  66.4178085  62.0412779   7.6818395
  67.7688885  61.4400816   8.0045342  58.9787340  77.2231197  94.5699215
  58.2351780  77.6988459  94.1997337  59.0688133  77.5720406  95.4566956
   4.2952007  36.8025351   0.9481077   5.0159866  37.0096254   0.3532862
   4.2808476  35.8460832   0.9831465  73.9235258   1.5768112  81.9456577
  74.1038656   2.4145758  82.3721027  73.3995295   1.0915357  82.5829697
  37.6285338 104.7395325  70.0987625  36.7849660 105.1918888  70.0975609
  37.8997469 104.7409344  71.0167360  19.8202813  32.0262051   9.8237252
  19.5136380  32.7940369   9.3414015  19.0344787  31.4952183   9.9533325
  26.4906120  59.3903542  93.4285641  25.9897637  59.7541142  92.6984501
  26.5175438  58.4493542  93.2552624  23.0148077  94.8068714  89.9419785
  22.9696059  95.4366493  89.2225552  23.6048675  95.2115536  90.5778217
  27.5930119  24.1935754  20.4789639  28.4298372  24.6491480  20.5706501
  27.5019264  23.6943197  21.2905550  10.4995358   4.2773843  23.4689522
  11.4324927   4.2683870  23.2550812  10.4699671   4.1506028  24.4172597
  78.4489012  62.1439314   1.9434547  77.6074553  61.9728518   2.3664573
  78.6874056  63.0248308   2.2321835  10.8921623  56.9898844  30.0364280
  10.4469693  56.8194818  29.2063689  11.0442472  57.9349232  30.0370526
   4.3301994  14.9489105  43.3257294   4.1810313  14.4862878  42.5011301
   3.8722250  15.7826209  43.2188654 106.1111069  40.2878618  41.2321806
 106.8199158  40.9190083  41.1077356 106.5328598  39.5312977  41.6395760
  19.2582405  94.0223980  71.0477304  19.5237708  94.6324253  70.3595495
  18.3359671  93.8423634  70.8654356  82.7284336  34.0577602  13.9444757
  82.7953339  33.1085134  13.8410950  82.7115440  34.1949344  14.8916447
 108.7094212 110.4638195  82.3221016 109.4473839 111.0632515  82.4331188
 109.0923309 109.6845913  81.9190979  23.7226605  71.5887880  11.4893079
  23.2178330  71.2113523  10.7689452  24.3395352  72.1840143  11.0633910
  18.2782137  54.3311739   5.1336735  19.0079653  54.8081112   4.7384205
  17.9554248  53.7640333   4.4333968 106.7290115   0.2020369  36.6568232
 107.1418190  -0.6320422  36.4329004 107.4549770   0.8243495  36.7009330
  26.9815993  71.6998291  94.5356655  27.3494387  72.4589586  94.9880409
  26.2118506  72.0417929  94.0809345  43.4130526  74.4534492  20.8891892
  42.4901915  74.2649889  20.7187724  43.8679457  73.6401272  20.6705332
  82.7361107  71.2457228   6.9038445  82.5339890  71.7107153   7.7157295
  82.1193886  71.6015768   6.2641162  59.3184710   0.1739676  94.6819687
  59.5784903  -0.0207601  93.7815857  60.1447916   0.3067112  95.1465130
 110.0126839  69.3124485  27.5389123 110.9665871  69.3899965  27.5223207
 109.8148441  68.9766836  28.4131861  98.5919571  21.8956780  96.1685276
  97.8030300  22.2561860  96.5733147  99.2982864  22.4670982  96.4698792
  12.6391041  79.5642424  48.8704443  13.5646379  79.5880508  48.6274385
  12.6248860  79.1153765  49.7157574 114.0663910  28.5137081  22.9800701
 114.5975971  27.7443147  22.7749133 114.6834850  29.2449450  22.9530263
  10.8246338  20.4929042  19.0183163  11.7357266  20.5630636  18.7333262
  10.8062184  19.7120774  19.5716727  25.4152346  41.7309141  19.5525968
  25.9222889  40.9221172  19.6231472  26.0643339  42.4289417  19.6401036
  67.8827667  13.3342683  55.0559711  67.5289488  12.7415729  54.3928289
  68.5077858  13.8808465  54.5797014   7.1891826  21.8429470  11.0235131
   7.3329002  21.0633826  10.4869914   6.3776147  22.2206998  10.6845546
   9.5160228  10.6202137  30.8527946   9.0612948  10.9820104  31.6134238
   9.8087144   9.7546613  31.1380696  13.1940603  32.3179364  43.4115887
  12.7495730  32.0289874  44.2085648  12.5471342  32.1919322  42.7174377
  42.8033733  98.8131618  53.2137442  43.2629251  98.9544296  52.3860455
  41.8840456  98.7191963  52.9642630  33.3746147  75.5069256  34.9831462
  33.1884527  75.5351686  35.9216428  33.3935380  76.4255953  34.7149658
  13.6884654  14.3949008  15.1088190  14.1054773  15.0744021  15.6385469
  13.4398568  13.7187362  15.7390785  94.1071510  57.4681616  25.2394295
  93.5360622  57.5947380  24.4817591  93.6320686  56.8521929  25.7972002
  79.8006248   1.3210747  91.3773537  79.9576092   2.1568274  90.9379101
  79.2560577   1.5457389  92.1318054 115.8896542  53.9893532  27.6386690
 115.3376198  53.2173538  27.7631903 116.5924931  53.6906624  27.0615768
  25.9391809  54.7796535  22.1188617  25.4679322  55.5929852  21.9381762
  26.8278432  55.0610113  22.3364639  95.6776428 111.7771530  74.5101738
  96.4030647 111.1528015  74.4961357  94.9773312 111.3201904  74.9759769
 102.7162862  18.3213523   0.0780076 102.9794980  17.6337102   0.6896467
 103.4508634  18.3938888  -0.5313902 109.5950985  67.9270172   1.4725885
 109.8861504  68.6523914   2.0251760 108.6889458  67.7716112   1.7389864
 107.7879143  70.1267195   3.3907142 107.6049232  70.3812981   4.2951107
 108.7431526  70.0917864   3.3403325   2.8283998  47.5840712   8.0671608
   3.2023638  47.7932119   8.9231056   3.4795976  47.0176697   7.6532012
  35.6903243 100.1531506  90.6353188  35.0106597 100.1948166  91.3080406
  36.3266850 100.8188915  90.8962154  57.5440073 110.3184986  73.7331438
  57.4002028 110.4118633  72.7914238  57.4931574 109.3757534  73.8908863
  12.1692181  46.8545437  16.7149794  11.7215776  47.6672029  16.4795351
  12.6689947  47.0754242  17.5008988  12.7017987  35.9536004  19.0173042
  12.7263892  35.1340270  19.5111918  11.7932808  36.2471628  19.0854871
  19.4431841  36.6258812   4.0983880  19.5755982  35.7055831   3.8709030
  18.5009778  36.7022276   4.2488921  59.1300106  96.8788910  12.1199942
  59.4504166  97.5597763  11.5284157  58.1765509  96.9411659  12.0628166
  16.8525577  43.7204885  20.1738930  16.4430368  42.8688288  20.0215578
  16.8862355  43.8030148  21.1269355  95.1758862  84.6747303  11.3881230
  94.5801067  83.9264297  11.4244401  95.9378815  84.3511105  10.9076512
 116.6349888  31.3933039  82.5283623 117.1712017  31.5490365  81.7508984
 117.1576595  30.7967329  83.0642319   9.5590037  48.1896019  12.8239644
   9.5991838  47.4807882  12.1819341  10.0346053  48.9117908  12.4135065
  27.8070831  91.4418411  20.8514476  27.3620582  91.3803577  20.0062227
  28.0763435  92.3582458  20.9142566  74.2528963 107.4291992  88.4749699
  73.5008860 107.8281403  88.9126396  74.8301601 108.1652927  88.2720566
  52.0098543  95.5114555  92.6301575  52.5700808  94.7878075  92.9106998
  51.1526442  95.1097488  92.4885654  67.3536921 100.3915691  27.0822024
  66.6110611 100.0808811  27.6000881  68.0180264 100.6233311  27.7311873
   8.9194566  57.5868273  42.9743195   8.6366534  58.4658241  43.2265520
   8.4503579  57.0038033  43.5711956 109.9164295  92.8169155  25.9100318
 109.5654869  92.9869556  25.0358677 109.8574734  93.6597443  26.3599086
 114.4628906  45.8964109  12.5119758 114.7856903  46.7258215  12.8642702
 115.1982594  45.2917242  12.6110268  22.4949503  59.3144178  34.9138880
  23.0848408  59.1631269  35.6523824  22.7823353  60.1496172  34.5449901
  30.4297137  61.6826868   3.8076609  30.4621148  60.7528639   4.0326232
  31.3476920  61.9495106   3.7591699 105.9963226  54.5513868  35.1906610
 106.9285583  54.4092894  35.0264215 105.8694839  55.4902887  35.0542545
  10.7135570  80.7693386   7.7811652  11.3172936  80.1297665   7.4034178
  10.2296698  80.2786541   8.4454811 113.6799431  43.0565071  18.4079683
 114.5004845  42.6626778  18.7043703 113.3687878  43.5576868  19.1617811
  66.1237097  12.7275085  87.9707050  66.1570263  13.6104131  88.3389473
  65.4187441  12.7640712  87.3242378  14.2748964  47.9418135  18.1225789
  14.5832407  48.8441467  18.0392373  15.0675797  47.4324322  18.2911563
  69.3692446 103.5243607  75.5164051  68.7352276 104.1499138  75.8670330
  69.8478603 103.2124710  76.2844467   9.2996526  44.8200846  11.1919439
  10.2214026  45.0697279  11.2574053   8.8711053  45.5848265  10.8075643
  18.7772155  41.7924547  30.3744841  18.3134854  41.0491323  30.7600451
  18.6590445  42.5021076  31.0058784  27.1374893  80.1541901  23.4152651
  27.4282026  81.0600376  23.5209322  26.2287998  80.2267838  23.1232977
  32.4640870  58.5590982  23.9676857  32.2247219  57.7554083  23.5061455
  32.4381351  59.2388296  23.2942438  94.3502140  49.3506527  25.6577373
  94.4942951  49.8063183  26.4871001  93.6756611  48.7009525  25.8554459
  80.6031227  45.3775549   5.5328161  80.9904289  45.7878828   6.3060284
  80.8276653  44.4507599   5.6156635  31.1828589  38.1551623  17.9487038
  30.5106354  37.5428176  18.2476723  31.9910359  37.6422453  17.9484820
  24.0730739  34.9524832   6.2879157  23.8922572  34.6211982   7.1675682
  24.8912668  35.4407763   6.3793671  10.3320599  64.6205425   4.8271334
  10.6062686  64.0055943   5.5074835   9.4634837  64.9123573   5.1039940
  47.7622366  91.4046574  89.7583103  46.8872929  91.7469692  89.9414062
  47.9968500  91.7869091  88.9126873 100.0905704  24.5892453  90.4260349
 100.6949520  25.2777362  90.7033920 100.0350189  24.0014863  91.1794853
  59.3540812 105.2124500  84.3416691  58.8698578 105.4066277  83.5391426
  58.8593960 105.6532478  85.0324821  35.5422759  87.8447533  92.8413773
  35.1208615  87.3178959  93.5203934  36.0113430  87.2086906  92.3013306
  31.1495733  83.5022259  19.0480614  32.0702124  83.5726166  18.7956715
  31.0250115  82.5734043  19.2430222 117.4385738  52.5305891  50.1620770
 116.7234516  52.8079939  49.5894623 118.1571388  53.1278992  49.9544334
 117.9903030  48.5265160  10.7432246 118.4874535  49.2707443  11.0826385
 117.3260212  48.3574963  11.4113545   3.6351481  44.7701883  28.4419322
   4.5431048  44.4672251  28.4495115   3.1488010  44.0589476  28.0249977
  15.0482321  25.4471493  19.8715913  15.2394426  25.6581736  18.9577305
  15.9073448  25.3974271  20.2907372   4.2268685  40.7125282   2.9033566
   3.5546935  40.7102919   3.5848314   4.9247614  40.1588249   3.2534879
  31.7456293  49.1365576   4.9261972  31.7401409  48.1794262   4.9360722
  31.4800406  49.3684292   4.0362924 101.2084103  29.0748286  23.8803649
 101.2864971  29.3206334  24.8021626 100.3113079  28.7524891  23.7936044
   5.4870313   4.5151475  26.9692302   6.1516815   4.8270202  26.3550568
   5.1575851   3.7071660  26.5757036  30.1840544  33.5033512  36.2529540
  30.4871321  32.7621531  36.7773604  30.7844210  34.2150998  36.4747834
  23.4355950  49.9565077  31.1281180  24.2728114  50.2232075  31.5078163
  22.8295612  49.9446249  31.8689394   2.6731813  33.1513762  38.2078576
   2.4241099  33.2751369  39.1237617   1.9464797  33.5251379  37.7094221
  84.7044373  29.6556807  61.5143633  84.5100307  29.4758511  62.4342012
  84.3152809  30.5147791  61.3508320  15.4582179  92.6015377  82.6983738
  14.9861038  92.0722198  82.0555878  15.8007729  91.9659615  83.3268166
  11.2460256  46.5586615  49.5155478  11.4201593  45.7487440  49.0360308
  11.0603142  47.2050571  48.8344383  13.9625299  82.8443146  39.3659139
  13.4271896  83.4315300  38.8322330  14.7359312  83.3621120  39.5894408
  86.5459156   2.3847379  65.4996824  86.7733955   2.6190054  64.5999002
  86.8911171   1.4989343  65.6111193   3.4061560  64.2582655  18.8487124
   4.1902235  63.9143515  19.2767215   3.6211616  64.2542601  17.9159808
  43.1550074  84.4867229  89.7609138  43.7262726  84.0318298  89.1420746
  43.6277771  85.2904797  89.9769974  38.4707355  87.6359463  89.9431705
  38.2712889  87.6071548  89.0074253  37.7839279  87.1083355  90.3507996
  28.1471062  30.9755754   7.9854560  28.8124967  30.3428817   7.7149278
  28.3851504  31.7830658   7.5299007   6.7700827  32.5864863  29.5912814
   6.4563757  33.3986354  29.1935015   7.6745987  32.5054169  29.2887735
  30.5841517  64.8002148  48.6191607  30.3568745  65.7289648  48.6638355
  31.4042664  64.7777796  48.1260681 116.1466217  12.7474844  23.3858967
 115.4361153  13.3376276  23.1346178 115.7122803  12.0371628  23.8581538
  32.5511098  64.4016123  30.6750870  32.5658989  65.2962875  30.3351307
  31.6376543  64.1283369  30.5905390  36.1689663  93.0994511  95.3682327
  35.9589720  93.6669540  96.1099052  36.9658399  92.6413059  95.6352997
  76.1944294   0.2529184  92.1580505  76.3005781   1.1218280  91.7708015
  75.2592897   0.0662626  92.0749187   2.4157640  37.7731490  24.4055939
   3.0650389  37.4620318  25.0363708   1.5764144  37.6653218  24.8529172
  65.7308626  37.2631955   9.0056390  66.1508512  37.9893041   8.5445458
  65.2357101  36.8033528   8.3277011  14.9470818  72.2152424  32.6416659
  15.3787386  72.3793077  31.8032241  14.1701210  71.7041397  32.4150896
  12.8374910  91.7866325   1.7150335  11.9493091  91.4353561   1.7780377
  12.7217090  92.7364826   1.7398700  44.3634844  95.5847454  73.4795904
  44.9943399  96.1560631  73.0415821  43.7712908  96.1848450  73.9328241
   9.4549948  38.5868001  13.2596147   8.7579370  39.1161489  13.6470842
   9.2654836  37.6936889  13.5471380   5.0455976  44.1290140  19.0239108
   4.8402360  44.9183846  19.5248652   4.4399643  44.1512203  18.2830012
  96.5519524 104.4808292   7.5850344  96.7305851 104.6583462   8.5085100
  97.2090435 103.8314533   7.3344982  14.4413173  25.5357337  14.8976672
  14.8871136  25.4594040  15.7412732  13.8654208  26.2935901  14.9988043
   1.8647942  31.4978361  17.2055721   2.4569070  31.7895150  17.8987944
   1.0184371  31.8805599  17.4367332 115.0706863  70.8289194  19.9611604
 115.3585052  70.1461029  20.5670905 114.1716576  70.5877018  19.7380114
 103.8428688  45.2544260  70.7886839 103.1284046  45.0701094  71.3984394
 104.4937038  45.7182264  71.3154984  41.4482641  58.2838297  50.4216099
  40.7335949  57.7872086  50.8201647  42.2347641  57.7783060  50.6267929
  53.8268852 104.6862698  91.3711643  53.0730343 104.9804020  91.8824577
  54.3986320 105.4525566  91.3249207  11.4028502  59.0032339  95.6747723
  11.9630313  58.4936190  95.0893497  10.7600152  58.3729506  95.9999371
   6.4371777  31.9134235  88.8487339   6.0975397  31.9491768  87.9545307
   5.8680367  31.2873006  89.2962551 116.8165493  55.0905418  85.4478168
 115.9538651  55.2445412  85.8329105 117.3187637  54.6699238  86.1457348
  66.9767427  74.4156504   3.3747286  66.4709902  74.3794250   2.5628573
  67.8665924  74.1788244   3.1133553  13.0917370  34.7502661  80.5882168
  12.3926950  35.3464413  80.8568192  13.5503542  35.2179384  79.8902273
  43.7622929  90.0012970  18.8116682  42.8717947  89.8109055  18.5167241
  44.2892599  89.2829418  18.4616554  58.4887838  76.1243057   1.9350016
  59.2585278  76.5355730   2.3281713  58.4838676  76.4399385   1.0313508
 102.8936386   0.5612894  13.8695717 103.4263611   0.0090545  13.2973170
 103.4780502   0.7918657  14.5917368 112.3493004  28.7924647  65.1192045
 112.3747826  29.5419526  64.5243549 111.4393425  28.4966445  65.0929165
  84.0500641  74.0872526  11.7529428  84.1227245  74.7152424  11.0342097
  83.7459755  73.2807970  11.3365388 115.6702137  57.9982138  69.6989250
 115.4377842  58.3808231  70.5449867 116.0138702  58.7326288  69.1902351
  13.6943674  46.5986300  93.4451103  14.2233515  46.2195921  94.1470623
  14.0038264  46.1637974  92.6505089   0.6007945  51.4670706  80.8596992
   0.1211440  51.1894989  80.0792408  -0.0597013  51.8887711  81.4093876
  45.1142168  98.2300091   9.7473216  45.9601212  98.1608009  10.1899123
  45.2810383  98.8048840   9.0003806  56.7586040  63.8929796   8.8799983
  57.0488882  64.3861055   8.1126684  56.3473463  63.1078100   8.5186064
  21.3240170  57.7118111  70.6397390  21.6149759  58.4802389  71.1307478
  20.3701639  57.7887011  70.6177235  16.8010795 105.6390953  10.2265227
  17.2436821 104.9160290  10.6709385  17.0494854 105.5431175   9.3071121
  40.6775713  73.5342741   0.4602800  40.2050066  74.3639421   0.5278328
  40.0458336  72.9298449   0.0706601  69.4823456  81.6857815  16.5722215
  70.3345490  81.9955444  16.8788576  68.9433193  82.4753666  16.5249860
  61.3362408  95.8540821   8.6340046  61.9254255  95.4298592   8.0102056
  61.5004158  96.7901802   8.5199827  14.7208917  34.1603637  92.4426079
  15.3234243  34.3974638  93.1475735  14.2481017  34.9698734  92.2492313
  30.5836582  23.0012655  62.4649096  29.6847177  23.3192801  62.3812199
  31.1084509  23.7936831  62.5784731 106.1625576  20.4081225  54.6828270
 105.3298855  20.5113578  54.2221260 106.7981625  20.8684945  54.1348314
  15.9914911  22.3492527  81.2209034  16.5963101  21.6073442  81.2202358
  16.5510201  23.1142879  81.3546276 104.2655659  16.5085626   1.7937191
 103.5959530  16.4615071   2.4760973 105.0852299  16.3153398   2.2487471
  94.6558285   3.3262870  27.6907039  93.7541008   3.5009974  27.9601288
  94.6471310   2.4135381  27.4025273  37.6759458  45.6291676  81.2155342
  37.3809433  45.4591990  80.3209305  37.2094917  44.9848890  81.7480278
   6.9797969  43.1659269  77.2606325   6.3894993  43.5355234  77.9172754
   6.9280738  43.7736607  76.5229225  31.4352202  40.4162455  89.3332577
  31.4160633  39.7033501  88.6947823  31.1811852  40.0048161  90.1593399
  15.6377232  33.7215209  89.7511959  16.5242481  34.0729523  89.8336697
  15.1655149  34.0845013  90.5005264  41.7699671  71.1014080  10.6418943
  40.8653641  71.0276794  10.3377724  42.2982740  70.8402157   9.8876369
  24.0086579  81.2159443  80.5907249  24.7836041  81.6422367  80.2247047
  24.3421078  80.7055569  81.3286591  28.1095695  64.6214867  71.5244627
  28.3307695  64.3324471  72.4097633  27.7986264  63.8301229  71.0848188
  32.9649353 104.8169613  28.9658809  33.5334516 104.4898510  28.2687235
  32.1130657 104.4188404  28.7868428  23.4808874  42.3922777  72.1654606
  23.1486630  42.0260668  71.3458538  23.6296415  41.6302872  72.7253485
  33.6881948  35.4650187  91.3322163  34.5279503  35.2698708  90.9163284
  33.9225292  35.8272696  92.1866703  49.9821043  78.9222336   4.9580923
  49.8141289  79.1797590   5.8645672  49.3628883  79.4398069   4.4433925
  42.0732212  73.8869715  28.8717675  42.0854807  74.7806311  29.2144918
  42.9936647  73.6249256  28.8531995  72.9130316  95.7099247   4.3811604
  72.5240183  96.5028954   4.7500646  72.1950245  95.2881718   3.9091164
 100.2569294  33.1615424  91.4038086 100.6972980  33.3024812  92.2419262
 100.8080006  32.5255513  90.9476662 104.5178223  69.7673655  70.1801491
 104.5630455  69.5101023  69.2592812 105.4177952  70.0002718  70.4082441
  65.8137131  90.1511860  11.9929719  66.5813780  89.5844746  12.0688963
  66.1652899  91.0396385  12.0501745   1.2170917 103.0267239  33.9673328
   0.4421186 103.2913017  33.4717035   0.8674464 102.6385307  34.7693825
  19.5523083  46.0231447  71.8730545  19.7482157  46.9143486  71.5839005
  20.4101777  45.6131887  71.9836187  54.6707773  95.3387165   8.8307750
  54.7986174  95.8653641   9.6197832  54.2908812  95.9463406   8.1961846
  19.4696093  34.7431135  83.5448360  20.0923228  34.0847087  83.2366753
  18.6285973  34.4660521  83.1812859 105.7888985   3.5265034  28.6239100
 105.5729866   3.4268692  27.6967168 106.7435837   3.5935235  28.6416578
  86.3501358  94.8791695   0.8820397  86.0485363  95.6935883   0.4795568
  86.0337830  94.1911697   0.2965480  53.1056881  98.1428719  14.1858864
  52.7666235  98.8916016  14.6764553  54.0514994  98.1701946  14.3305576
  18.3221710  54.0806818  83.2440662  18.3983088  54.8449326  82.6727962
  18.0197656  53.3794451  82.6669502 114.8200417  55.2997589  63.5256100
 114.4242668  55.6155825  62.7132940 115.5893230  54.8062754  63.2411718
  37.4117231  33.6843276  76.0572243  38.3353472  33.5051966  76.2334728
  37.3352957  33.6326814  75.1044798  51.1005449  43.6684322  78.9167261
  50.5220890  43.9068174  79.6411514  51.9296169  43.4404230  79.3372965
  10.8006132  27.1635556  58.4359741  10.8040869  26.3640141  58.9622355
  11.7264795  27.3686671  58.3058453  29.7378993  82.2735023  25.8548570
  29.3915176  83.1655693  25.8334088  29.2591667  81.8477154  26.5660167
  15.3658378  59.2760277  95.7235241  14.5499837  58.9397717  95.3526497
  15.7273388  59.8372936  95.0375843  42.2976971  35.7039595  88.1276131
  43.0317593  35.9757376  88.6785412  42.1378851  34.7928834  88.3738518
  23.0286336 102.4745750   4.5292127  22.1941638 102.7228928   4.9269953
  23.5090876 103.2983208   4.4465333  43.3720684  88.0616093  23.6988544
  42.6010942  87.7933788  24.1987348  43.5178757  88.9726067  23.9539456
  27.5956249  12.9316247  72.7472734  27.2009134  12.5779903  71.9501686
  27.6091552  13.8785541  72.6080847   3.5769331  25.1127386  89.6128464
   3.3008137  24.2020535  89.7159958   2.7610040  25.5979919  89.4902802
  99.4472980   0.6967328   6.3435793  99.3112087   1.4857273   6.8681747
  99.3727779   0.9958369   5.4373693 113.5579014  33.1985784  68.5819054
 114.0549374  33.9905262  68.7868452 113.5387516  32.7084064  69.4038486
  98.3808422  31.1513305  94.9604988  97.7970028  31.8189621  94.6004486
  99.1597652  31.6362023  95.2332592   1.4609368  55.0381660  76.4652777
   1.6215692  55.4145241  77.3305988   2.3325232  54.8283577  76.1297894
  46.5923452  88.6918354  10.6928432  46.4256191  89.4784260  11.2121820
  47.1941137  88.9808464  10.0068557  15.9431159  46.7404556  83.7891388
  16.6982412  47.2332239  83.4679031  15.2594948  47.3999214  83.9074516
 103.6701870  32.9781270  28.8344216 103.3604336  32.0729542  28.8037252
 103.3793163  33.3590460  28.0058551 108.6434078 108.7432861  74.1987562
 108.3636856 107.8283978  74.2300177 109.1782951 108.8032818  73.4072161
  72.8930998  89.7695827   5.3658998  73.7524223  89.3727207   5.2234423
  72.9490423  90.1544380   6.2405354  14.8591959  52.2539091  81.2775707
  15.3925073  51.4716625  81.1365128  13.9588320  51.9569206  81.1457634
  13.9441586  61.2117815  80.7292366  13.8078475  60.3590488  80.3163242
  13.2476342  61.2755537  81.3827038 102.1938705  34.8607779  67.9417324
 102.5554276  35.7358456  68.0823231 101.4618778  34.9978447  67.3403692
  82.7419472  85.4516506   3.9865261  82.3439598  86.3221931   3.9844301
  82.0684147  84.8812675   4.3569899  20.7195854   8.5023975  79.5801353
  19.7926128   8.3116883  79.7236013  21.1152363   8.4351557  80.4491425
  27.3952484  49.8223019  84.4427013  28.3379412  49.9869156  84.4212055
  27.0016003  50.6464863  84.1563606  99.8268795  38.0310082  75.9228849
  99.2578125  38.2904363  75.1982498 100.7121563  38.0826831  75.5625486
  17.6632833  63.7333775  80.6763649  16.7811406  63.6109781  80.3255463
  18.0324483  62.8508472  80.7095051  17.3318470  49.1529369  91.7750931
  17.9907465  49.3203783  91.1012650  16.6795325  49.8419476  91.6486835
   5.6534392  72.2861862  81.1816692   5.8144933  71.3488626  81.0734367
   4.7871250  72.3352623  81.5857983  49.9443388  76.7748213  10.9998870
  49.2189646  76.1633873  10.8725524  49.5283651  77.6362514  11.0335398
  36.7992544   1.9994539  53.0335045  35.8983469   2.0039439  53.3568907
  37.3367906   2.0850752  53.8208771  95.7378769  65.3250885  64.8893738
  96.2951946  66.1030102  64.9108267  94.9535751  65.5788517  65.3759003
  56.7340088  92.8995228  16.0682940  56.8104362  92.6403427  15.1500261
  57.3556995  93.6207485  16.1661398  67.3353863 107.1533489  16.5439916
  67.3275805 106.8093872  15.6507623  67.0770216 108.0702019  16.4498520
  26.3123131  53.5997677  57.8025198  26.2176347  54.1142797  58.6041117
  25.4532170  53.6492205  57.3833036  96.1788845  75.8428288  72.3495483
  95.2297401  75.7580185  72.4399519  96.3298512  76.7857122  72.2831535
   6.8129557   7.2797209   8.4704798   6.5304607   8.1879330   8.3628714
   6.3657755   6.8051684   7.7697217   3.8106692  37.4759431  96.2927262
   3.7353337  36.5220113  96.3168066   3.2351219  37.7794499  96.9947650
  98.0688763  31.0363603  88.0253029  97.1658230  31.2936783  88.2110882
  98.3269215  30.5064368  88.7795067  24.3351102  60.9880400  58.5508156
  24.6229982  61.9007540  58.5685015  25.0642967  60.5146170  58.1503296
  48.9028263  13.5174644  27.2424960  48.1217146  12.9731083  27.3413324
  49.4247723  13.3313859  28.0229974  13.7124717  61.5279102  74.0447378
  14.1635430  60.7419920  73.7363672  13.8448346  61.5236235  74.9927330
  91.7537689  14.7069108  82.1397591  92.3617649  14.7701430  82.8763580
  91.3477898  15.5722833  82.0893288  29.8495913  53.5888052  85.6014824
  29.8932719  52.6484489  85.4281044  29.9329329  53.9955044  84.7389984
  22.8401542  59.5666885  71.9635677  22.6879072  59.2918587  72.8677368
  23.5547304  60.2007771  72.0230675  21.6774392  59.6834707  92.6726437
  21.6203165  60.5389547  93.0982304  22.3716760  59.7856998  92.0216370
  86.9592667   5.1779532  14.5630741  86.5990829   5.9471422  15.0044870
  87.7023506   4.9159524  15.1065934  47.5338125 110.9806919  16.3938940
  47.2022963 110.7635117  17.2651935  47.4571943 110.1653194  15.8983791
 113.3283520  61.5201855  91.8222809 112.4551582  61.3131094  91.4892769
 113.8890553  61.5104437  91.0465622 113.2630253  45.1585960  80.3133011
 113.6112881  44.3845320  80.7557678 112.9029179  45.6960201  81.0188007
  26.7518449  51.8772507  77.4180698  26.1444902  51.9597054  78.1532907
  26.3407540  52.3743916  76.7108965 114.6722031  70.8021593  94.4876385
 115.2590752  70.0737715  94.6907711 114.5322037  70.7405949  93.5427380
  19.9166787  53.3814001  78.0121851  20.3433490  52.7481508  77.4349689
  19.8963368  54.1925716  77.5044250  27.4083471  30.1301503  74.4591379
  28.0713058  29.6286583  73.9845610  27.6031375  31.0435009  74.2491865
  19.7273207  31.5865493  90.7530022  19.1629016  32.1550417  91.2769127
  19.8431289  32.0583344  89.9282360  17.2490692  52.3065138  94.5697975
  17.7644038  52.7534151  95.2413177  16.3406289  52.5181293  94.7847080
  96.4988136  70.6376219  35.5423212  96.3656521  71.4263010  35.0165009
  97.2489262  70.8451080  36.0995603  55.1701927  83.8405609  48.6110306
  55.8191252  83.4159565  48.0499363  54.8804188  84.6018696  48.1083727
  70.4337072 106.7938709  27.0281720  70.8908892 105.9854794  26.7964053
  70.6164265 106.9136238  27.9601097  19.8614049  44.5169830  66.7486477
  19.0735114  43.9793062  66.6688919  19.7174239  45.2441835  66.1431026
  71.5760088  53.8225317  12.2640085  71.8354654  52.9094791  12.1405208
  71.3602161  53.8864756  13.1943727  28.1011367  97.6097965  30.9657288
  28.5617638  97.1263313  31.6515207  28.5899949  98.4282780  30.8800888
  64.7487974  35.5173540  74.4843006  65.2176046  36.3432741  74.3646765
  65.2471399  35.0544548  75.1578093  98.1188774  29.7736621  92.6082230
  97.2621536  30.0688887  92.2998619  98.1496906  30.0448060  93.5257053
  56.1882496  97.2739887   5.8212125  56.8210316  97.5955105   5.1789957
  56.6209221  96.5237904   6.2289321  48.0519724  93.8556671   9.7179252
  48.4033346  94.0115356   8.8412941  48.7851095  94.0380096  10.3057170
  95.6981850   3.1996626  15.4421675  94.7544670   3.0402189  15.4277599
  95.8109665   3.9132747  16.0700762  10.6787062  66.5692472  85.1077843
  10.4649734  65.6575441  85.3061581  11.1079431  66.8924475  85.8999538
   8.8980675  45.6150007  81.0731602   8.3921343  46.1917830  81.6455078
   8.6898071  44.7319841  81.3783550  82.4472141   7.1126646   3.0732989
  83.3135414   7.3052037   3.4319681  81.9687843   7.9384947   3.1463781
 117.2161579  46.4258528  92.2714520 118.1332970  46.2111616  92.4417305
 117.1904278  47.3827076  92.2700787  82.9466534  88.3267021   2.5834796
  83.7930393  87.8797817   2.5944689  83.1096935  89.1365623   2.0999691
  28.0593467  36.8175840  91.9627762  27.7853823  36.8888950  92.8771591
  28.5296607  35.9851074  91.9178867   5.6023890  40.6661224  70.6429672
   6.2406611  40.0227976  70.3347874   6.1204666  41.2971592  71.1425829
  10.3051865  33.0198789  83.0738354  10.6458294  33.0918384  82.1821976
   9.3569130  32.9509664  82.9631138 107.1690273  63.4192514  91.5620422
 107.8009510  64.0785217  91.2752247 106.3152885  63.8013077  91.3585758
  31.5531158  11.1058891  90.8184338  31.0172701  11.8012762  90.4369450
  32.3321366  11.0719264  90.2632713  59.7244740  96.2385082  29.1320992
  59.9516964  97.1631432  29.2303562  60.4401159  95.8697224  28.6143279
  63.7105894  13.3273304  10.6525576  63.1979799  13.5262632   9.8690450
  64.1946793  14.1331291  10.8330417 110.5929756  67.2174454  75.2589464
 111.1185455  67.7569151  74.6681976 110.9955025  67.3415565  76.1184788
  21.0014844  38.5730290  89.6982384  21.5842938  38.1889224  90.3532410
  20.4910135  37.8333998  89.3686962   8.9432406   5.8993202  69.6861649
   8.8236713   4.9748439  69.4687271   8.1253022   6.1524487  70.1141071
  86.1383820 111.1021137   2.7731478  85.8221054 111.5231228   3.5724956
  87.0703697 111.3179970   2.7413949  74.7066021   7.3593789  14.4956851
  75.1279974   7.4436498  15.3509974  75.3591442   6.9213194  13.9493096
  75.8914518 101.3464737  18.8513637  75.7670212 100.9625816  19.7193325
  76.7317247 101.8013096  18.9088547  45.7216024  43.7354946  94.4258976
  46.2045717  44.2328596  95.0859070  45.5412197  44.3700647  93.7323475
 108.2712269   2.6692840   0.1081960 108.4223557   3.5788789   0.3651552
 109.1425705   2.3304957  -0.0972478  80.5678844   8.6370522  43.1074190
  79.7709227   9.1554779  42.9964352  81.2747669   9.2240632  42.8391504
  12.2769880  40.2239561  85.5081654  13.0753362  39.6985245  85.5610180
  12.4696302  41.0051537  86.0266685 103.9736080  26.1844468  47.1771049
 103.7191868  25.2652025  47.0965433 104.1056061  26.4763618  46.2751102
  57.1317816  73.3849764  -0.0686248  56.7830706  74.2115593  -0.4023829
  57.0099068  73.4389353   0.8792502  40.6527615  98.9678574   6.1876273
  40.2005100  98.3794212   5.5831099  40.8808804  98.4146404   6.9347161
  83.6699200   8.9591479  19.6479011  84.1850758   9.6981049  19.9716091
  84.3102360   8.3889127  19.2223847  28.5998940 106.9995308  18.3447409
  28.3333826 106.6726589  17.4854636  28.0042481 107.7282619  18.5190809
  26.0626817  22.2057509  82.6073456  26.4384413  23.0554914  82.3771763
  25.1163077  22.3433805  82.5665092  14.7835982  48.8954973  87.4503040
  14.4782102  49.3903542  86.6899776  14.3544197  49.3139648  88.1965733
   3.9241579  48.3667326  18.2563603   3.4551919  48.8864946  17.6035595
   4.2170930  47.5904655  17.7790475  30.2131319  41.4375162  82.2714138
  29.5067763  40.9368467  81.8632126  31.0134220  41.0798407  81.8869209
  16.1454892  49.6561432  81.4697361  16.8059862  49.0633678  81.8283272
  15.3120184  49.3013000  81.7789936  14.3798435  12.1680164  24.9480319
  13.6869752  12.4532545  25.5436873  14.0609431  11.3401461  24.5886350
 115.1639271  52.6190090  72.7339602 114.6615791  52.4755049  73.5360146
 114.7596455  53.3881903  72.3325300  70.7894421 110.0699806   4.2779782
  71.2596703 110.8902359   4.1286549  71.4752769 109.4348145   4.4839621
  23.0579925  64.9654531  93.2936668  23.0057573  65.6379271  93.9728355
  22.7176666  65.3922272  92.5073624  33.3657455  54.9267912  85.0612640
  33.7500596  54.2573833  84.4952011  33.4972525  54.5940208  85.9490776
 105.5907249  18.9702642  13.9486623 104.7258377  19.1631973  14.3105769
 106.1829090  19.5590901  14.4164634   5.9337831  85.0487232  90.6529903
   5.5693215  85.9227180  90.7927132   6.7864871  85.0725746  91.0872269
  23.9602304  31.4113235  90.8071518  24.7630906  30.9227180  90.9885693
  23.4653115  30.8468175  90.2133369   6.5274459  77.3315525  61.6937065
   6.4515549  76.8863440  62.5376606   6.6274250  78.2564783  61.9189692
  11.8695903  37.0214200  73.1625605  12.4139142  36.6170692  72.4869537
  12.3935890  36.9594049  73.9611912  92.0006943  21.7094469  12.6729512
  91.2070751  21.8909049  12.1694946  92.6417065  21.4327359  12.0181441
  14.5163381  72.8039694  76.4057446  13.7535095  72.2510910  76.5750074
  14.2573285  73.6712980  76.7170143 102.2385406   7.6625991   5.5900651
 101.5170765   8.0088568   5.0648814 102.8357983   7.2747910   4.9504369
 105.4252911  26.1605525  91.4374638 105.7628918  25.2689743  91.3517380
 105.3141880  26.4623070  90.5358887  19.5343041  29.6068645  16.5244639
  20.3134894  29.0531325  16.4746451  19.0845609  29.3166399  17.3180211
  65.9140253 109.6581459  17.0054114  65.0963593 110.0648022  16.7185581
  66.5889120 110.3039742  16.7964625  61.3196707  83.2044697  48.2668495
  61.5209484  83.7273979  47.4907923  62.0099497  83.4272766  48.8914299
  83.9882374  73.2839012  16.9110346  84.0480709  72.3429346  16.7459989
  83.9104748  73.6752081  16.0409391 114.9869633  43.1138897  83.8970757
 115.2774906  43.0199528  84.8042774 115.5254364  43.8227987  83.5453320
  38.4566259  79.3938780  92.9399681  39.1260910  80.0772667  92.9720879
  38.8744950  78.6303329  93.3382320  79.6963739 103.9418507  10.8770323
  79.0651608 103.2459927  11.0603154  79.7989035 103.9276695   9.9254453
  80.9988689  66.6582489  23.3927226  81.9556141  66.6873550  23.3969784
  80.7870865  65.7945490  23.0386066 115.2548695  53.4459448  91.5384483
 114.6242046  52.9304647  92.0412159 115.1774693  54.3315458  91.8933487
 100.5634975  60.3425264  71.0384417 100.0923347  60.0571394  70.2556324
 101.4872646  60.2183008  70.8205986  28.0890632  39.2768168  60.5700397
  28.6159801  38.8399625  61.2391806  28.7293482  39.7137928  60.0085068
  31.2652802 109.3040180   8.1489533  32.1472645 109.4626045   7.8125250
  30.7082510 109.9038982   7.6528722  33.3019543  54.4062662  87.9290581
  33.2203150  53.4663343  88.0905914  32.7186060  54.8111534  88.5709286
  28.0888510 102.1944618  81.4089870  28.2024598 102.9152775  80.7895088
  28.7271285 101.5373230  81.1314964  19.5851398  63.3647299  86.9376469
  20.4964995  63.0721903  86.9291782  19.5389092  64.0244198  86.2456131
   6.3729662  38.1612682  82.3414993   6.2752169  38.3561206  81.4094543
   5.8279037  38.8138866  82.7810764  75.6189632 108.5599709  27.0966959
  75.1033449 108.1483269  27.7901769  76.4871788 108.6783886  27.4819326
  50.4648590  70.7347727  16.1760223  49.8772240  71.4260960  15.8710778
  50.8973169  71.1092615  16.9434667  14.7132802  45.0305510  85.7728577
  15.2369702  45.5350018  85.1503468  14.6464670  45.5954456  86.5427017
  30.1372385  41.5176964  73.3241034  29.7743917  42.3821163  73.5173702
  29.4783688  40.9035063  73.6479616   2.0594934  41.1457253  79.9714184
   2.9114759  41.2333536  80.3988266   2.1046868  41.7406893  79.2229462
 110.7974148  32.5749564  75.9662104 111.5674019  32.5957012  75.3979492
 110.0570297  32.5030088  75.3638124 110.4347324  70.8518887  74.9537039
 110.3523254  71.6043901  75.5395222 111.3004112  70.4918623  75.1465940
  36.2485170  54.5983362  53.3801603  36.3097000  54.1087437  52.5599241
  36.0784125  53.9312124  54.0451717  12.3849559  50.9916687  81.0054111
  11.4307427  51.0397291  81.0637188  12.6480043  50.5001068  81.7834854
 115.5382442  48.0523157  38.7324977 115.0978661  47.7309132  39.5192671
 115.9795284  47.2824478  38.3736086  38.0381370  68.8587713  30.1174450
  37.9988241  69.5876884  30.7366085  37.1958971  68.4148264  30.2163291
  26.7843986 104.1220188  30.5672050  26.7079949 104.5341396  31.4277577
  27.3586917 104.7061729  30.0720358  20.2014160  57.2784853  92.5566578
  19.4661069  57.5885820  92.0280838  20.7398677  58.0571270  92.6981449
 118.0064869  46.8123865  89.2168999 117.8934383  47.7526712  89.0779400
 118.1005096  46.7199802  90.1649761  89.5743656  41.9363117  21.7382646
  89.8291302  41.0136604  21.7318892  90.4014874  42.4136257  21.6728926
  42.5582170  99.2401028   4.1650748  42.3513889  99.1571045   5.0959694
  41.9191837  98.6782169   3.7267172  12.2493172 101.8901730   8.1909776
  12.5234759 101.4530468   7.3847574  12.8780770 101.5946102   8.8494092
  37.2968221  80.3327656   8.8402313  38.2366967  80.5029202   8.9027828
  37.2306323  79.3814659   8.7573111  81.4964485 101.6672802  27.6836348
  81.5683174 102.6205158  27.7325487  82.2320747 101.3445950  28.2041693
  79.4671679   1.3169536  10.5108488  78.8726425   1.2804921  11.2601459
  78.9073706   1.5568106   9.7723860  57.0370674  90.3919792   8.9068979
  56.6269779  91.1934471   9.2320120  57.9511356  90.6339931   8.7580907
  57.8708267 104.0264225   7.3883051  56.9374466 104.0473366   7.1771294
  58.0347586 104.8586845   7.8318131  76.8747950  83.3333302  14.5060086
  76.1288452  82.7480221  14.3748069  76.6058588  84.1583443  14.1019559
  32.0995450  31.8458796  90.4838371  32.3117638  32.1436000  91.3684559
  31.3185716  32.3447371  90.2441406 103.6279774   1.2877709   1.7091070
 104.4533730   1.7529516   1.8453905 102.9813957   1.9810185   1.5765440
  57.0827723  94.7313881  10.7102382  57.9305935  94.7444534  10.2661026
  56.9612455  95.6285954  11.0208440  46.6617870  88.3174324   0.7110362
  47.4680901  87.8022957   0.7382200  46.9250727  89.1900063   1.0034962
  19.8746574  57.8224564  64.7778511  20.3877473  57.6602888  63.9862251
  19.2030835  58.4472227  64.5041943  24.1389918  47.6265001  83.4665775
  23.3788776  47.6060104  84.0479946  24.3407369  48.5570765  83.3688164
  41.9860029  83.8310051   7.0876414  42.5732994  84.5850658   7.1396691
  42.4305725  83.1462479   7.5873280  89.9570656 106.2431335  42.8176355
  89.9226761 106.0861301  43.7612438  90.8856010 106.1711788  42.5965452
  34.6460176  26.5366030  84.5068836  33.7967062  26.6700935  84.9276924
  34.9847555  27.4205971  84.3653202 112.4113464  51.0932207  91.0607624
 113.2575703  50.6568861  90.9619999 111.8652248  50.7155704  90.3712940
  47.8317690 107.6908016  23.4456825  47.7564096 107.8378582  22.5028539
  47.9669952 108.5638046  23.8142037  63.6768436  92.7566910  22.2093821
  64.3053341  92.3001957  21.6500592  63.4524775  92.1193218  22.8873539
  13.0111909  26.9580889  10.6218410  12.3051357  26.5917444  11.1542976
  12.6915073  27.8220367  10.3617811  27.1539378  62.0643139  70.5313206
  27.6105642  61.2519836  70.3125954  26.6778708  61.8620729  71.3367319
  53.3810663  73.8665724  11.7412913  53.1023073  74.6186113  11.2188292
  53.0773544  73.1054688  11.2466073  88.8456726 102.4997902  26.8469167
  89.3369102 101.6977978  27.0250225  89.5074081 103.1914139  26.8489075
  18.3103001  75.3885984  93.1116199  17.4019909  75.4525757  92.8164673
  18.4036052  74.4821835  93.4047604  15.0811791  77.1521616  66.8589306
  14.2371237  76.9439888  67.2595119  15.5017996  77.7454996  67.4812317
  88.8616777   9.9100927   0.5776662  89.0982271   9.0119985   0.3459234
  89.6269954  10.4301694   0.3326387  21.0164905 106.4091587  15.2361608
  20.7322598 107.3215675  15.2905917  20.3417134 105.9196186  15.7065427
 112.2870731  73.9002991  61.1278725 112.2832012  74.6861124  60.5813265
 111.9071007  73.2200146  60.5719376  83.4025669  66.6663122  10.2393878
  82.8455544  65.9112167  10.4285932  82.8686523  67.4238014  10.4789209
   2.1322022  10.3838384  10.0343418   2.1590586   9.5962703   9.4909763
   1.2036117  10.5077112  10.2308297  27.2582984  47.6600981  62.8068590
  27.9379106  47.4320745  63.4411860  27.5542998  48.4865999  62.4254036
  20.9009528  43.7946653  87.5483131  20.2711701  43.1665421  87.1946621
  21.0851288  43.4772539  88.4323692  83.0826664  90.2114487  11.8456209
  82.5162029  89.5918560  11.3857841  82.4907398  90.9030533  12.1414864
  46.8494415  90.7327366  12.5821841  45.8952284  90.6843376  12.6402175
  47.0497656  91.6613007  12.6999545  71.3351107  81.5639973  23.6511517
  71.8774796  82.0917606  24.2372680  71.8980932  81.3883305  22.8972173
  24.5069981  39.3637133  90.4195023  24.6467662  38.8428140  91.2103081
  23.6876774  39.8310995  90.5822754  86.3887024   1.3903514   2.0144591
  85.7601643   1.0844041   2.6683480  87.0898533   1.7934571   2.5264293
  39.3410301  47.9974318  95.6855583  40.2079105  48.1124210  95.2962875
  39.2611861  48.7186909  96.3097668   3.0210489  36.6446662  93.6270332
   3.3656794  37.2897172  93.0094814   3.0077744  37.1015191  94.4680691
 103.4179878 100.6798172   3.9019060 104.3249989 100.9856892   3.9055544
 103.2016563 100.5828476   2.9745290  28.1462049  94.0301323  20.3395224
  29.0739441  94.2656708  20.3323483  27.9102421  93.9580154  19.4146693
  78.1300354  24.1754222   7.6838565  78.8726854  24.3269467   8.2684410
  78.3350086  24.6841955   6.8994039 111.1463165  10.5678630  11.4994860
 111.2471771  10.3098691  12.4157274 111.7835712  11.2715685  11.3772690
   2.0697574  39.2521429  86.5581608   1.7337185  39.6090150  87.3803234
   3.0215389  39.2818546  86.6554356 104.8433971  26.7861176   7.1729749
 105.0003529  27.3783135   7.9084349 105.5974483  26.9139647   6.5973866
  93.5290527  61.8825579  84.2363834  94.3438530  61.3966846  84.3638992
  93.6404991  62.3197460  83.3921814  17.3192549  24.3900728  88.8602161
  16.7453301  25.1315618  89.0526676  18.2021606  24.7593236  88.8792706
  27.8206635  83.8191891  72.5928593  27.8167653  84.6340847  72.0906925
  26.9419098  83.7651253  72.9684877   0.7322645  50.5694151  96.0837269
  -0.1507252  50.6144476  96.4505100   1.3109261  50.6444216  96.8425083
  83.6615562  78.1188917  20.1798487  84.0163898  78.6893368  19.4979978
  82.7905178  78.4730101  20.3590512  12.7143955  39.8149729  81.0812569
  12.2700250  39.6874237  81.9194031  13.1278515  40.6748724  81.1577892
  89.3817234 109.9799633   6.6952282  89.6008205 110.1782894   5.7847905
  88.4300613 109.8771858   6.6956365 107.9083824  62.3004150  89.1968727
 107.0107269  62.5156498  88.9436531 107.9557514  62.5258112  90.1259518
  14.4975245  68.5673285  68.9755487  15.2333617  68.6204481  69.5854330
  14.7615945  67.9031372  68.3388805  57.4919701  91.9353485  35.1459146
  56.8834877  91.6566372  34.4615889  56.9421148  92.0585155  35.9196830
  80.0497150 103.1061268  24.4842005  80.9173107 102.8258801  24.1926885
  80.1258755 103.1696510  25.4362488  32.7596307  40.5917597  95.5668163
  31.8854928  40.9790993  95.6125069  32.9395199  40.5163860  94.6296978
  34.6254802  60.6090832  90.6820202  35.5225968  60.2762270  90.7069302
  34.6313190  61.3581800  91.2778759  42.1863317  96.0763264  14.2237794
  42.9679966  95.6175995  14.5316827  41.8960094  96.5881443  14.9787533
 109.5894337  28.2605314  87.4402618 108.6528015  28.1290126  87.2931004
 109.6607399  29.1693473  87.7321529  62.3964024  59.4038391   3.8049030
  62.1145773  59.9870205   4.5096782  61.7164135  58.7313890   3.7641272
   2.4245626  57.9462957  82.4053383   2.7549130  57.1945047  82.8971863
   2.8192049  58.7054396  82.8345108  53.6723423  37.2878337  59.4677353
  52.8412485  37.3072815  59.9422169  53.8750839  38.2085061  59.3019390
   0.5244200  22.5039220   5.2045166   0.3002280  23.2130766   4.6019647
  -0.2068046  21.8901849   5.1347464  10.3828931  40.8577776  90.8680058
  10.9547901  40.5770874  90.1535988  10.1228881  40.0443411  91.3003826
  28.7017703  62.1485233  91.3354206  28.1385326  62.4067068  90.6058025
  29.5593596  62.5130701  91.1166096  10.7989049  60.2409172  84.3976021
  10.0103998  60.5935574  83.9851284  10.7984447  59.3133450  84.1612816
  25.5673218 103.9063072   5.1312554  25.9811425 103.1298637   4.7542730
  25.4277515 104.4894505   4.3851334  46.2299156   8.9463460  77.7101946
  45.7694626   8.1346661  77.9232407  45.6287384   9.4186568  77.1342230
  25.9681153  42.6026344  91.8220615  25.9875560  43.5143137  91.5310478
  26.5610242  42.1476221  91.2240124  15.9910846  54.5170975  87.1554184
  16.7249858  54.8841143  87.6482868  15.6839406  55.2404690  86.6089439
  14.6254504  48.6153221  38.0670094  14.7101402  49.1212702  37.2588778
  13.6902440  48.4217834  38.1315255  71.6745472  85.1780605   7.3110998
  71.3552523  86.0110569   7.6580906  72.4810076  85.4048538   6.8480408
  27.2870827  65.4720640  86.7660046  26.4229560  65.0843382  86.6274929
  27.2535467  65.8197355  87.6571941   5.0221324  14.4516778  39.4060326
   5.9485787  14.5079851  39.1720271   4.6795201  15.3300321  39.2406774
  92.4069405  25.7279515  24.0663195  91.8406773  25.9705758  23.3337116
  91.8375206  25.7732606  24.8343921  53.3493197 110.9620251  21.3672781
  53.7593138 111.6812901  21.8476892  52.6102411 111.3674456  20.9138203
  23.7819362  53.4788895  72.8886795  24.1490960  53.3065748  72.0216560
  22.9807210  52.9559755  72.9177380  78.4911585 102.7611637  17.2291231
  79.3889904 102.7048779  16.9020796  78.1942606 103.6320400  16.9651806
  67.9369545  86.1838150  36.9290113  67.2971153  86.4209652  36.2577415
  68.7787247  86.4580154  36.5650535  90.3805733  60.4444027  37.3275495
  90.1783276  61.3122845  36.9781137  90.8782673  60.6179285  38.1265593
  29.2395806  41.1525106  76.7619181  29.4775844  41.9756985  77.1884727
  28.5640931  41.3970852  76.1293602   7.7774435  62.2821522  80.2246952
   8.5891348  61.7767668  80.2691269   7.1698236  61.7178583  79.7465658
  98.2117939  14.2290306  31.9018030  97.4470329  14.2406738  32.4773264
  98.0753040  13.4680259  31.3374710  88.0621624   2.5990045  10.7538831
  87.7630806   3.4829485  10.9670055  88.4344864   2.2685088  11.5714264
  93.1630039   1.0040949   0.5018417  93.0651188   1.1750263   1.4385563
  93.8860512   1.5691438   0.2295325  69.1211367  38.2536221  77.0337343
  69.2870474  38.8246274  77.7838421  69.9345684  37.7614141  76.9228649
   7.7514702  36.7268753  92.7092075   7.4404377  36.2543368  93.4813499
   8.5420251  36.2572336  92.4433327  39.4019198 102.4624348   4.2154565
  40.2565765 102.5246143   3.7889209  39.3161726 103.2830238   4.7007576
  75.2426147 111.4187336  31.0823989  76.1162949 111.0558987  31.2282109
  75.2968407 111.8355751  30.2224350  37.6349616  92.4368668  17.3724771
  37.2344851  91.7652798  17.9245746  38.0654168  93.0287361  17.9894328
  84.3976116  15.7404852   6.0133648  84.3635082  16.5553701   5.5123341
  85.3242874  15.6282341   6.2252957  88.6986167   0.9231046   0.5172891
  88.4645534   0.2423576  -0.1136141  87.9565186   0.9555391   1.1210031
  60.6429052 106.1224461   5.7887203  60.4474545 106.5510559   6.6219819
  59.8073244 105.7474518   5.5104750 113.9667797   9.5791566  18.9839852
 114.0488434   8.7669098  19.4837391 114.3706703  10.2447999  19.5407820
  23.0667281 107.9163074  13.9811802  22.6822972 107.2566128  14.5584607
  23.7278128 107.4394608  13.4793651   8.4868133  50.7488585  79.3419075
   7.8931016  50.0064564  79.4540596   8.8310909  50.9149122  80.2194786
  29.8985338  65.9663343  70.0241995  30.0553083  65.4350805  69.2435455
  29.1858029  65.5182457  70.4796791  23.9352083  54.3875742  89.1971207
  24.6534944  53.8326311  89.5009899  23.1522441  53.8483620  89.3086815
  23.5214114  49.4423008  89.1129780  23.8660908  48.5510921  89.1693211
  23.2604265  49.6552467  90.0089550  75.0529909  93.8511848   5.5494708
  74.3459511  94.4267941   5.2579147  75.6568527  94.4302177   6.0145587
  85.1463699  76.5043163  24.4534826  85.1676083  76.9974899  23.6333871
  85.9681511  76.0135317  24.4591856  44.9697781  30.8810616  84.3800640
  44.2982197  31.3391161  84.8854637  44.4805336  30.2653217  83.8344097
 115.4676914  65.1162291  71.5107965 114.8398018  65.0418472  72.2294426
 115.4545689  64.2559624  71.0912752  93.5965824   1.4361662  13.1216633
  93.6084557   2.2188114  13.6726236  94.4070148   0.9764957  13.3410609
  65.7532644 111.0142899  12.6325727  66.4235830 110.8732128  11.9639933
  66.2224865 111.4236259  13.3595526   3.5869169  61.7011929  61.3782644
   3.3473194  61.4799786  62.2782040   3.6508024  60.8563471  60.9328556
  93.6673546 103.2021618   1.6362105  94.3848991 103.2333755   2.2689746
  94.0986061 103.0753326   0.7911242  13.8365793  61.9677639  89.2389679
  13.6884522  61.2855101  88.5841274  13.0100894  62.0228052  89.7186756
  62.1811199  56.4380836   3.2990539  61.9943142  55.4998350   3.3310884
  62.8236961  56.5782452   3.9945289  50.5661488  31.1814332  87.5546837
  51.3524675  31.7089796  87.6948071  50.4589748  31.1591792  86.6037655
  48.5238886  39.3758512  91.6392612  48.6413956  38.9447260  92.4857521
  48.3929443  40.2987909  91.8566608  24.1619587  40.5392265  73.8423872
  23.7920713  40.4746628  74.7228718  24.1735458  39.6377516  73.5207701
  10.5309010  82.0903111  88.9618397  10.3868008  81.4278889  88.2860756
  11.0428071  82.7708912  88.5248089  43.5377932  92.1393585  42.4005270
  42.9806328  92.8494644  42.0818520  44.4000769  92.5409794  42.5072908
 110.9436703  48.5851765  79.6278143 111.5879726  49.1362667  79.1835213
 110.6617451  47.9602337  78.9598322  42.8432894  37.1828365  69.3094587
  42.6077175  37.0438027  70.2267408  43.0629778  36.3100147  68.9836502
   8.1500924  61.7546892  76.1616564   8.3986050  62.0930147  75.3014183
   7.8158206  62.5184298  76.6319704  60.4523277  37.6057196  94.5390034
  60.2857304  37.2463369  95.4103947  60.9459686  36.9208837  94.0878391
  11.4510846  51.6156578  84.1600227  11.4650333  52.3294115  83.5223770
  10.5252814  51.5067673  84.3774319  29.9785042  19.5076287  76.1449528
  29.0572286  19.4065571  75.9056473  30.4589415  19.0921044  75.4288816
  87.8100967  31.1756516  28.1803703  87.2963333  31.8046331  27.6737499
  88.4560680  30.8387351  27.5595307  28.2458663  29.8767710  54.6814299
  27.8606510  30.5452061  55.2480268  28.9170980  29.4615650  55.2229881
  13.5987878  61.3021898  76.9419479  12.6739788  61.1601591  77.1439028
  14.0658081  60.7020521  77.5232887  11.6071367  73.8820887  93.4594440
  12.5575161  73.7851191  93.3993816  11.2632275  73.2902575  92.7903557
  16.5530956  40.2335358  82.3853874  17.3082125  39.8777986  82.8538704
  16.3229370  41.0267019  82.8692722  21.8167233  62.4760199  94.0473652
  22.4593496  62.1105957  94.6554184  22.1506262  63.3493328  93.8422775
 114.8803902  58.4861374  79.6633816 115.7493877  58.0937243  79.5791340
 114.9161434  59.2678881  79.1121817  69.6791649 109.3710995  15.5049729
  69.8528910 109.1110897  16.4096534  69.9351120 108.6101723  14.9837136
   3.4033465  26.0717630  94.2573929   3.8380328  25.2474904  94.4761467
   3.8010907  26.3398123  93.4290314  99.5254993  24.6479154  17.2490442
 100.2342510  25.0857472  17.7204251  98.8064861  24.6091890  17.8797293
  97.7862740  52.0968866  72.7090597  98.3904552  52.5615406  73.2881021
  96.9975281  51.9715405  73.2367039  47.7395248  24.2634916  74.8512840
  48.0367851  23.6296535  74.1985083  48.3636141  24.1758847  75.5717516
  13.8936341  17.9456377   1.6615738  13.7109411  18.2999754   2.5318033
  14.7694445  18.2689989   1.4503244  30.4651833  91.8922806  79.8437881
  31.0257626  91.1574459  80.0927639  29.5774221  91.5941429  80.0418377
 102.2751713  32.3650289  46.5989304 102.8105068  33.0585909  46.2134123
 102.7192497  31.5540457  46.3512754   7.2474045  71.3457203  94.8262024
   7.2030795  71.1466408  95.7614231   6.3853663  71.1026955  94.4884682
  82.1218204   5.7883990   7.2315472  81.8106079   6.2230718   8.0255491
  83.0676079   5.7101011   7.3563743  11.7809415  30.0152850   3.5790256
  11.5239382  30.3688645   4.4305906  11.8527412  29.0717387   3.7232426
  79.2066574 102.6227570   8.6492896  79.8484612 102.1264362   8.1413633
  79.0239239 102.0704651   9.4094318  95.6720066   6.4725137  12.2925115
  96.0679436   6.7901695  11.4809954  96.3724232   5.9847975  12.7258468
  42.8181934  91.2498474  93.7618351  43.6964893  91.6272545  93.7129211
  42.3528671  91.8062305  94.3864441  80.7455063  35.6048799   7.4610174
  81.5743923  35.8768177   7.0670217  80.9816647  34.8792815   8.0389172
  34.0623379  79.8511219  89.8617363  33.4426737  80.1904964  90.5075455
  34.5796967  79.2051220  90.3426266  78.9568233  29.4590473  33.2105732
  79.4324636  29.2015600  32.4208283  79.5905352  29.3468285  33.9191246
   9.0677381  32.8735375  13.2518053   8.8026440  31.9548154  13.2081532
   8.9927810  33.1875253  12.3506808  97.1680927   4.4040006  13.3995712
  97.9970264   4.5912448  13.8400722  96.5964031   4.0767321  14.0940428
 104.4790173  19.1200316   9.6290481 103.7767601  19.4441986  10.1929438
 104.9608994  18.5015488  10.1781440  71.6744757  13.0785382  13.2864344
  71.6799784  13.9754677  13.6206794  72.3202276  13.0822718  12.5798786
 112.0978355  81.9122887  92.3531055 111.2332249  81.9498539  92.7620888
 112.0931721  82.6275158  91.7169762  25.5642962  73.9420271  94.1349411
  25.2367401  74.7674751  93.7777710  26.4726257  74.1277409  94.3730164
  61.8509436  97.8868198   5.1095855  62.4865818  97.2263145   5.3851491
  61.1241531  97.7912903   5.7251215 117.4138300  15.1593089   5.2958202
 117.7345664  14.3325579   4.9354815 117.7493779  15.1761353   6.1921215
  19.6124530  83.0716896  92.6355934  19.7596133  83.5171604  93.4699440
  19.5454001  82.1453667  92.8672218 112.3697567  18.3502495  71.5725231
 113.1308746  18.5998201  72.0965910 111.7919159  19.1123688  71.6113424
  64.5499277  14.1454470  18.8088667  64.8234558  13.6131501  19.5559108
  63.5995626  14.2149615  18.8994801   1.8008986  92.3813534  86.4562416
   1.8189715  92.7972412  85.5943012   1.3645041  93.0192947  87.0208836
  29.5397735  62.7224159  94.7621536  29.9170947  63.5668278  95.0087833
  29.7723222  62.1365929  95.4825401  69.7297096  99.5181847   0.8191795
  68.9887190  99.0799522   0.4007087  69.3863726  99.8181820   1.6608152
 116.3494309  20.5143118   4.5062169 115.9937460  20.7845044   5.3528082
 116.3634481  19.5580626   4.5464900  68.0012417 111.2413597  16.5807259
  68.3578873 110.8135319  15.8022642  68.6455536 111.9142151  16.8006337
  63.2660437  71.5733385  87.3644447  63.3373022  71.2738562  88.2707882
  63.9302635  71.0704660  86.8931007   6.2655759  67.7916241  92.3661709
   7.1716380  67.4834061  92.3830986   5.7454145  66.9990635  92.2338200
 101.2771893  46.8210506  86.2507915 101.3963318  46.9594765  85.3111744
 100.6392097  47.4852228  86.5117359  15.9416151  39.5803165  11.0971951
  16.8258250  39.6054411  11.4629459  16.0751629  39.4881868  10.1538455
  82.9083628 110.9612993  10.8559358  82.8651104 111.8587637  10.5259073
  83.4973071 110.5114502  10.2501202  79.3924904  22.4550104  42.1736145
  78.6449814  22.9208803  41.7988777  80.1234150  23.0671525  42.0883942
  88.9860249 106.6472816  19.5065355  89.7266769 107.2089863  19.2781556
  88.6876488 106.2921333  18.6692357  61.9277668  88.9372063   5.4574180
  62.5033283  88.7751389   4.7099572  61.0444164  88.8090897   5.1117170
  15.9148383  96.0285187  14.7530007  15.8590758  95.0748444  14.8133790
  15.0517809  96.2995720  14.4401240  36.8021703  38.3740854   7.5980538
  36.4322019  38.3999085   8.4804875  37.7376914  38.5312343   7.7258742
  66.4404678  85.5437851  34.0897441  67.1225452  85.7511425  33.4509897
  66.2521315  84.6162987  33.9464712 105.0956917  22.3181462   3.2555231
 105.3862190  22.4215221   4.1616914 105.0065899  21.3722539   3.1389976
 104.4177151  27.0578575  15.0959826 104.9673748  26.7085028  15.7974529
 104.6472359  27.9860735  15.0515878  91.8100357  18.8503373  54.3061399
  92.1825981  18.6681151  53.4434557  92.0757198  19.7499847  54.4966030
   3.8306680   7.3753440  31.1258388   4.3643391   7.0375884  30.4065704
   3.0326030   6.8474489  31.1003351  11.2024093 107.0226765  86.1802769
  11.6962028 107.1446991  85.3694057  11.7997968 107.3113251  86.8702412
  32.9178548  75.7800579  94.6960258  32.4715734  76.6018105  94.9004364
  32.4144459  75.1119423  95.1612473   2.4445954  46.2801600  82.6856709
   2.2021905  45.3728867  82.8709412   1.7678452  46.5908527  82.0842457
  92.5350571   4.4315174  10.3432488  93.4369659   4.1448036  10.4867256
  92.6191616   5.3089517   9.9700630   4.5706666  17.5831532  29.6885514
   4.7418517  18.1753445  28.9562702   3.6266655  17.6477516  29.8331904
  76.3593578 100.5069637  24.6718836  77.1182728 100.5656433  24.0915084
  76.0608625 101.4113426  24.7680235 105.0960827  13.3207953   3.5209179
 104.9958992  12.7069676   4.2485237 105.2018929  14.1745353   3.9406362
  10.2280247   0.3871048  49.9923706   9.4880432   0.0632641  50.5059719
  10.8174574   0.7744746  50.6394768  91.0593319   4.3346533   6.9500190
  90.6794643   4.3980289   6.0737085  91.9475365   4.6775901   6.8514234
   4.1160008  34.3194652  12.1365619   3.8492692  33.4407330  11.8665373
   4.2462775  34.2501998  13.0823219   4.5628887   8.7516391   1.5733655
   5.0071812   8.9142066   0.7412548   4.0334862   9.5356309   1.7193834
  68.0176878 104.5305729  35.0920725  67.1064663 104.2432022  35.0344181
  68.0022240 105.2509689  35.7221699  31.2645912  23.6891913   9.6147346
  30.5252624  23.5944009  10.2152669  30.8948278  24.1241288   8.8464016
  97.7432442  23.5386038  42.7832127  96.8589592  23.8855934  42.9010057
  98.1432629  23.6029029  43.6504412 109.5976353  28.1627774   6.7041624
 109.5593548  28.5294795   7.5875062 110.4299355  28.4764767   6.3504702
   4.9474865  12.6378071   8.6273915   5.0199026  13.1880462   9.4072789
   5.0971138  11.7481196   8.9472377  56.3631535 106.0020542  18.2707918
  56.3900280 106.2104130  19.2046511  55.4706287 105.6905460  18.1204796
  87.1789265  33.1466937  30.0113726  86.9535351  33.7820101  29.3318105
  87.5066853  32.3870993  29.5298934  12.6564467  30.4267287  21.6817927
  11.8189371  30.8895826  21.6578317  13.0279958  30.6479144  22.5357604
  84.4892788  23.3348680  17.5988138  85.0487709  22.7167153  17.1286118
  83.5973263  23.0571628  17.3901486  93.2118261  16.4515594  -0.1992922
  93.5279739  17.3378995  -0.0241118  92.8351999  16.1629298   0.6320161
  57.8508186 109.9110699  31.9040561  57.1206427 110.4595280  32.1908927
  58.2255316 110.3814125  31.1593390 101.8652821  36.8426609   7.5217998
 102.2317696  36.4548755   8.3164907 102.3274326  36.4052534   6.8067312
   0.5362452  48.5873127  38.7001801  -0.3937038  48.8118172  38.7322116
   0.9387951  49.3036413  38.2091999   3.5810280  75.2940321  91.9884968
   3.6510044  76.1971760  92.2977924   2.7682316  74.9702024  92.3767281
  50.0461674   0.5709508  76.3954067  50.7331276   0.2900990  75.7908916
  49.9891901   1.5181671  76.2698412   7.8600174 110.0948334  95.6125927
   8.3512926 109.7228622  96.3450623   7.6046455 109.3372822  95.0861645
  17.0627451  68.0504179  86.6100693  17.8136003  67.5354862  86.3146114
  16.5548790  67.4450970  87.1503353  49.8356628 101.4959908   7.1500993
  48.9748526 101.2823105   6.7901278  49.8989534 100.9704399   7.9476070
  22.0656490  39.6511555   2.5128829  21.1815667  39.2923856   2.4359645
  22.6312160  38.9774203   2.1354581 106.8675613  15.7583463   2.2529656
 107.4864388  16.1675918   1.6481982 107.4183559  15.2734315   2.8675538
  24.8957324 108.2139397   8.0710310  24.8911047 107.2573948   8.0360234
  24.3812680 108.4839439   7.3103362 108.1022072  18.0105877  22.7284431
 108.5408497  17.3097372  22.2461271 107.3463821  17.5856352  23.1338835
  13.7765658  79.6836042  89.1558647  14.0519381  80.5974960  89.0837002
  14.5915723  79.1968584  89.2786598  38.0024695  92.0501709  86.9238567
  37.0804667  92.3068047  86.9405842  38.3512783  92.4615288  86.1330700
  86.8425083  22.0751858  11.8186772  86.2776756  21.3067842  11.7364740
  86.2634277  22.8176355  11.6464245  21.8092084  46.9794989  85.2035618
  21.9760919  47.6621008  85.8535194  22.1782136  46.1853647  85.5901146
  17.4552262  27.9693222  11.6260827  17.3452592  28.8510823  11.9819450
  16.6329026  27.5241828  11.8307006  93.8857651  99.1842079   3.6436623
  93.2815647  99.1193581   4.3832323  93.3300114  99.4176483   2.9001087
  13.6242843  59.8866892  87.5151157  14.5720541  59.8717976  87.6483154
  13.4124470  59.0069914  87.2028828  41.2707520  96.7474747   7.6429766
  42.0483208  96.3222599   8.0046600  40.5376005  96.3325119   8.0974311
  14.7016716  15.9853423  37.1074414  15.2323878  16.1899042  37.8773308
  13.7994981  16.0032535  37.4268055  91.9613075  85.5098057  91.1615086
  92.2302437  85.0158119  91.9360161  92.6444149  86.1709976  91.0500240
  45.4773140 109.7823524  25.2099037  45.0062275 110.5997753  25.3715444
  44.8062468 109.1778088  24.8930025   3.5408971   9.7961706  18.1321692
   2.6623893  10.1213539  18.3289218   4.1031376  10.5676639  18.2022846
  27.0017648  41.1749077  82.9816914  26.5224099  41.8447828  82.4941254
  27.4544740  40.6667233  82.3086166  56.7294788  98.8841248  87.7050209
  56.5801287  98.6437702  86.7906094  57.5407934  99.3918324  87.6897717
 112.8867245  25.9802675  12.3031175 112.9746723  25.0517821  12.0876789
 111.9590664  26.1714268  12.1647394 108.0530357  10.3881514  19.7587192
 108.4950638  10.4083192  20.6075048 107.8588390  11.3058233  19.5679462
  59.8231459   1.9076276  74.9377775  59.8330498   1.9663152  73.9824295
  59.4643402   2.7470610  75.2256012  63.5616339 110.7104259   0.0262136
  63.7223065 111.3664108   0.7045144  63.6540759 109.8714643   0.4776830
 104.1484451  88.1700897  96.1518002 104.3595123  88.9614391  96.6472340
 103.5771942  88.4742832  95.4465580  47.5477219  95.8336830  83.0099297
  48.2778454  96.3954830  83.2698059  47.9487610  94.9800682  82.8463650
  54.0796852  83.4380150  93.0809021  54.4698954  84.2875004  93.2866669
  54.7939062  82.9347515  92.6899433  72.5001192 105.6644249  10.9974945
  73.2615185 105.9556198  10.4957950  72.6733351 104.7411823  11.1814690
  83.1626415  21.5390229  24.8626828  82.5776958  21.2074399  25.5439472
  82.7715397  21.2364721  24.0430903  61.1201525  99.0958881  94.1679287
  60.8221531  98.2809353  93.7638474  60.5216551  99.2318535  94.9024677
  43.4620881  80.5516884  96.1098287  43.4205082  80.9559604  96.9764698
  44.0652415  79.8162386  96.2173017  90.1893425  13.7007630  15.6878269
  90.6813335  14.3784904  15.2242970  89.2998314  14.0491939  15.7477295
  29.7486806  76.5437698  90.0515366  29.4230676  77.4366570  89.9376869
  30.3607297  76.6037273  90.7850361  30.1820946  38.6752987  91.6698170
  29.4180369  38.1049442  91.5852833  30.8903146  38.1914973  91.2448502
  64.2784309  71.8943644  39.5727730  64.5469713  72.3020029  40.3961468
  64.8793888  71.1574316  39.4631791  78.3254385  86.1790943  86.4054108
  79.2615652  86.3785934  86.4153862  78.0519629  86.2675095  87.3184395
  12.5431013   6.3121015   8.6609244  12.2688627   6.5713453   9.5405936
  11.7238832   6.1827016   8.1830448  31.8680620  56.8126631  96.6995811
  32.4158382  57.5246906  96.3691425  31.4810586  56.4242840  95.9149647
 113.7553787   0.3423521   3.4105375 114.6685696   0.5685455   3.2340509
 113.6734200   0.4023016   4.3623364 107.7828789  16.0742342  27.5385904
 107.2245407  15.2974284  27.5712252 107.5385857  16.5775836  28.3152461
  24.8659968  28.9889097  16.0720801  24.7720957  28.2290387  15.4976153
  25.3379679  29.6321416  15.5431890 105.0105190  17.7301657  28.0057836
 105.1505470  17.9487920  28.9270997 104.8377228  18.5716379  27.5835276
   9.8368502  67.2538519  88.3435535   9.3666148  66.4899397  88.6775398
   9.6656954  67.2475815  87.4018002  80.5761242 105.8340549   6.1501127
  79.7605181 106.0500240   6.6021878  81.2649536 106.1511803   6.7342204
  86.4750290 110.3705120   6.0450304  86.7835808 110.7949448   6.8455815
  85.5486107 110.6052303   5.9912711 101.2277126   8.9384222  22.6121736
 101.6837692   8.7761527  23.4379554 100.4301834   9.4027740  22.8662419
  26.5408158  60.9105444  89.5857430  25.8562994  61.3847113  90.0578022
  26.5252352  61.2824774  88.7038898   8.8898522  97.1660709  61.0115957
   8.0304790  96.8887043  61.3290548   9.4679773  97.0672131  61.7680550
  21.0092354   8.2850581  38.8945889  21.6168928   7.6624584  38.4953976
  20.1592779   7.8462273  38.8595033  71.8917704 103.0641174   4.4126502
  72.0350885 103.4712124   5.2670306  72.4417782 103.5673714   3.8122654
  20.7517552   2.3572630  14.5439458  19.8303819   2.1352094  14.6780825
  21.2288976   1.5721075  14.8124588  12.0465314  77.8832245  62.0531034
  12.0009124  77.8177500  63.0069733  12.7039087  78.5597563  61.8906355
  87.5215912 111.0677433  20.0720358  88.1584454 111.1268330  19.3598902
  86.6770077 111.2310886  19.6522272   1.2301233  65.5455637  76.4389038
   1.3516380  65.0852823  75.6084776   0.5607039  65.0383949  76.8981314
   3.6993420  30.4566291   0.9311361   3.6966478  29.5237735   0.7166547
   3.1953108  30.8656028   0.2276296 110.3551674  30.9617257  40.4832077
 110.7550526  30.0968671  40.3918743 110.1491833  31.2262511  39.5866442
  76.7672300   4.3093219  24.1305971  76.8051720   4.0234938  25.0433373
  77.6591253   4.1889071  23.8046336  46.3371372  77.3254251  11.2674844
  46.9244814  78.0705261  11.1406660  46.9051838  76.5581369  11.1980176
   3.5500255  30.1978517  23.5857511   3.0795005  30.5209327  22.8173399
   3.0840978  30.5793309  24.3298054  28.8620067  69.6639204  93.9720154
  28.1897020  70.3146315  94.1740322  29.2548203  69.9710941  93.1549644
  25.0224257  44.9791479  11.3957715  24.4974065  44.1994572  11.2150300
  25.9285808  44.6828365  11.3102448  54.4123507  89.6094418  87.9257584
  55.1488209  90.2183247  87.8700161  54.7340059  88.8940811  88.4744167
  37.4846721  98.2879639  79.8336554  38.2537651  97.8667641  79.4498301
  36.7658162  97.6813316  79.6562529   1.6718440  26.8474174  39.3216228
   1.5784138  26.9680214  40.2665854   2.5268418  27.2251177  39.1153383
  41.7772675 100.6567955  92.2306061  42.7271366 100.6807613  92.1148109
  41.6313839 101.0437870  93.0938530  10.5114973  33.3664894   3.1259370
  11.3490748  33.7395787   2.8511649   9.8661160  33.7770462   2.5504744
  42.8169203  95.0507164  83.0795383  42.7081871  94.4092941  83.7816715
  43.1951904  95.8166790  83.5113239  89.9721563   0.2139137  95.8758163
  90.2350939   0.3716801  94.9690533  89.0162313   0.2605389  95.8595657
  55.6225777  99.1850853  91.9091225  55.2056503  98.3236122  91.8931770
  54.9406767  99.7752953  92.2299099  10.5412114  39.8486590  16.9792366
  10.7300854  39.8703313  17.9173672  10.6158316  38.9245415  16.7411828
  59.8299408  84.7230339  83.2633972  60.7640886  84.5717907  83.1194592
  59.7983360  85.4215240  83.9171124 110.5947399  60.2944803  19.4731426
 110.8222389  60.1970005  18.5484934 110.9203815  61.1629581  19.7096479
  34.8438883  45.2942467   9.6474105  35.0482154  45.1969433  10.5774713
  34.1240740  45.9247971   9.6250170 110.7634354  28.7104630  24.2008948
 110.7213402  27.9345345  24.7598171 110.9099102  28.3639669  23.3207154
  38.5915375  74.5239544  95.8358860  38.3698869  74.7803116  96.7310905
  37.8222799  74.0458393  95.5262375   8.6824107  56.0882711  24.3187857
   8.7050784  55.9626436  25.2674341   8.0395228  56.7846489  24.1846943
 113.4900475  99.9336052  83.5344028 114.3216896  99.6535110  83.1521130
 113.6600685  99.9723721  84.4755840 117.3124218  36.2616611  48.4922314
 116.8670559  35.4843640  48.1550455 118.1691742  35.9426761  48.7758589
  36.4853835  98.8199139  94.1617012  37.0819950  98.3491325  93.5797691
  35.8325195  99.2033958  93.5760880 111.6674614  10.3248608  17.5987852
 111.3060665  10.8117247  18.3394516 112.5294018  10.0367224  17.8992271
   3.2778701  32.6886868  30.7513285   2.8205690  32.2988367  30.0062609
   2.8116250  33.5081983  30.9164000  30.7207561  30.6389093  18.0557442
  31.3487530  31.1969161  18.5145259  30.5052543  29.9519634  18.6865318
  29.1245293  92.9017660  96.0361752  28.1993222  92.7999040  95.8129024
  29.4630837  93.5124752  95.3814624  26.1894989  45.3554583   4.5304093
  25.6342649  46.1064386   4.3207121  26.3413262  45.4255962   5.4728854
  23.8999581  41.6338015  14.6419752  23.8076043  42.1128702  13.8184488
  24.5983028  41.0010910  14.4739807  61.4576912 102.8541756  87.2680092
  61.8738031 102.9500008  86.4113235  61.7973661 102.0263767  87.6080132
 101.5414047  34.9536204  15.8456182 102.2706223  35.4836392  16.1674321
 101.2545395  34.4523001  16.6089106 116.0806656  65.5398893  17.9767323
 115.8217621  66.4145803  17.6866972 116.8850231  65.6814003  18.4759450
 112.4806213 111.3169575  18.7163818 112.2016048 110.6687450  19.3630672
 112.6055813 110.8139896  17.9116213  42.5347948  81.9315052  32.1161056
  42.5706768  81.3639641  32.8860641  42.3270750  82.7976990  32.4665117
 103.3569622  47.4477005  37.6272964 102.4825573  47.6920080  37.3240495
 103.4011555  46.5009737  37.4931669 107.7062511  14.2419171  11.5851152
 107.6235962  14.6873617  12.4283111 108.0567837  13.3784568  11.8037331
  30.2913594 106.4262581  94.6372032  30.6373835 105.8170319  93.9850235
  30.8433437 107.2039509  94.5551205  46.0958529  99.8849678  90.6430721
  46.0426855  99.2830563  89.9007034  46.5280247  99.3790150  91.3311672
  42.8818655 110.1417351  96.3387966  43.2823944 109.8986340  95.5041027
  41.9977045 110.4255390  96.1065292 115.9351826  35.5940795  16.6534114
 116.8133736  35.5275321  17.0283628 116.0485744  36.1359835  15.8725679
  63.1763935  69.1201019  92.2556686  63.2853794  68.4911108  92.9689217
  63.3979130  68.6271286  91.4656544  13.0477667   9.9246025  20.7462454
  13.7711644   9.5395058  21.2408471  12.8932953   9.3092364  20.0295210
  28.6662173  19.5281553  12.5685894  29.6058416  19.4576025  12.4001813
  28.5781813  19.3640232  13.5074949  66.1039019  81.6760826  76.0133696
  65.4113054  82.3326206  75.9392023  66.8799400  82.1744823  76.2694979
  28.6215401  34.3397832  20.3650784  27.7332187  34.6945667  20.4003501
  28.6173844  33.7588072  19.6043658 109.3721199  45.2830458   1.6571642
 108.5527992  44.8033714   1.5352868 109.2332840  46.1137199   1.2022544
  46.6337490  50.1570797  72.8677177  46.7677927  51.1035872  72.9166317
  47.3181105  49.7890568  73.4266806 101.6549206  23.5042667  35.6092000
 102.3604679  22.9324579  35.3067660 101.4150429  24.0173483  34.8375559
  32.0524764  55.4123306  90.3692913  32.4076939  55.5203295  91.2515545
  32.2021127  56.2575674  89.9457169  50.2894640  88.0511093  95.9473896
  49.3686056  88.3062840  95.8914471  50.3090715  87.1517181  95.6203461
  14.6155858  24.4370866  23.9374495  14.9333513  24.8850131  23.1534743
  15.3792667  24.3901753  24.5126224 105.5246353  61.9399023   9.4010246
 105.7397652  62.5200891  10.1313245 104.6809196  62.2597456   9.0815419
 105.8123589  30.9630370  55.0630999 105.9361267  30.0405860  55.2867031
 104.9264050  31.0054636  54.7032166  65.2425241  90.0612354  79.5902157
  64.6057701  90.0910282  78.8761520  64.7374487  89.7704411  80.3495407
  49.4741726  80.2642632  95.9988880  50.0323009  79.6759558  95.4903412
  48.7543726  79.7101688  96.3007259  10.9789169  40.6407356  12.7826631
  10.5576658  39.8642755  13.1512952  11.6347206  40.2932262  12.1781886
  86.6310978   0.3054665  87.3274994  85.8714294   0.4523197  87.8910351
  86.3048744  -0.2614522  86.6286373  74.2970085  88.9937782  90.2638912
  74.7150135  88.1537056  90.0747395  74.9135923  89.6476460  89.9344826
  65.4688931 105.8987999  88.8378048  65.1467896 105.9706783  89.7363091
  64.6957922 105.6647301  88.3242226  51.9111204  89.7688103  82.7661324
  51.5456247  88.9003754  82.5973892  52.2489119  89.7169018  83.6602402
  59.1615677  70.6414413  95.1097298  58.5801792  70.7764864  94.3614101
  59.8259640  71.3250589  95.0232792  31.7062211 104.5463371  64.1329813
  31.0010099 104.2309284  64.6981573  32.1157861 103.7502956  63.7941360
  83.4515190  79.8141336  76.7131233  84.1654491  80.3183174  77.1034288
  83.5751629  78.9257002  77.0472336  11.7816150  29.2940474  10.1093960
  11.8321264  30.2413583   9.9817908  11.0403347  29.0188932   9.5699286
  27.4615145  83.1889343  90.3807354  26.7381287  82.7570057  89.9264336
  27.0571065  83.9396667  90.8155727  31.9479871  96.3024807  93.5066700
  32.7922702  96.5113163  93.1069088  31.6309547  97.1388721  93.8475227
  68.6248207  75.7185507  86.9002438  68.7602282  76.6315985  87.1536922
  69.4339275  75.4718208  86.4522457 109.6512604  39.3817759  11.7936778
 109.7032833  40.2659512  12.1566641 110.1847172  39.4170523  10.9996939
 105.2871788  61.0778945   0.4220743 105.0583256  60.4598587   1.1162538
 104.5635212  61.7043381   0.4109735  23.2052159  69.3435526  18.0067205
  23.8155246  68.6870909  17.6708484  23.4529996  70.1523542  17.5587511
 106.6296482  43.1430626  14.5098913 106.7066383  43.5992193  15.3478789
 107.0427513  42.2929382  14.6611130 118.1854439  24.9744725  29.4219565
 117.2441292  24.8028874  29.4486928 118.5028267  24.4544077  28.6836934
 106.4971924  28.0562329  20.6645942 106.8119717  27.9477215  21.5620208
 107.0131683  28.7832260  20.3160548  47.2624159  82.2336006  95.6752872
  46.6962337  82.2745991  96.4459991  47.0786428  81.3776016  95.2883434
  17.7644503  98.1963825  72.9274607  17.7264559  97.5146580  73.5983086
  17.1277082  98.8508129  73.2146978  11.1644304  54.2056131  33.8707423
  10.8064222  54.9486828  33.3850312  12.0515072  54.0998077  33.5270405
  17.9937208  31.5469885  36.6560054  18.8390911  31.4154005  36.2267447
  17.8140306  32.4811578  36.5498471 108.9266777  21.7432475   8.3866650
 109.1447830  22.2503567   7.6046777 108.7687302  22.4019670   9.0629584
   1.6491525  19.7812343  33.2508039   1.5045199  18.8503754  33.4205556
   0.9588286  20.0221229  32.6330209   3.0492157  36.8683052   3.4429345
   3.2276902  36.7901540   2.5057733   2.4508524  37.6122689   3.5115740
  87.9999733   7.5491279   9.2020798  88.2753563   6.7655993   8.7261832
  88.2707405   8.2768685   8.6423397  23.2449031  56.4386511  16.8878746
  23.8559747  55.8149958  16.4955986  22.7681208  56.8069553  16.1440575
  18.8556886  85.7649422  82.1464825  19.1051006  84.9001312  82.4722481
  19.6633101  86.1248302  81.7797947  15.4357171  32.2369552   4.7269458
  16.1109614  32.1963859   4.0497229  14.6233523  32.0225573   4.2683294
  44.6064138  82.7091885  92.5803947  45.0224543  81.8471622  92.5874805
  43.8134956  82.5881672  92.0580387  30.3935146  64.8592615  95.9592819
  30.8930039  64.9396896  96.7718601  29.5676613  65.3080463  96.1403751
  30.4286766  43.1554604  14.7778857  30.6627417  42.3663282  15.2664757
  30.4054499  42.8730106  13.8636005   0.7156917  16.7817807   0.6879390
  -0.1615883  17.0027947   0.3752653   1.2792002  17.4635303   0.3220046
  91.4318466  25.6975126  14.7569954  90.9596729  25.4436707  15.5499971
  92.1133900  25.0323319  14.6607697  36.5537214  60.3718138  18.4621632
  36.6893578  60.4777813  17.5205648  36.8234420  59.4714165  18.6431670
   3.9957905  26.7376542   2.1825451   3.7137905  26.0776711   2.8158927
   3.1815371  27.1269298   1.8636620 113.3721447  45.1026535  20.2840829
 112.7224731  45.6579065  20.7151985 114.2087936  45.5342436  20.4572105
  32.0258331  85.4823971  86.3798237  32.7588511  85.3155613  86.9723415
  32.4041438  86.0035038  85.6716061   7.1609908  17.7632940  21.5172148
   7.1667182  17.7177370  20.5611181   7.1740329  18.7002850  21.7124343
 106.8605232  14.7831964   9.0528017 106.9773388  14.3808329   9.9134344
 107.7258778  15.1257503   8.8291073 101.7094803  48.9713573  17.6496422
 101.1437035  48.2349873  17.8817725 101.6735840  49.0089846  16.6938567
  14.7492909  32.9579210  14.0053833  14.2458320  32.2698855  13.5702205
  14.2012823  33.2255054  14.7431624  29.0341210  88.6650297  96.3373205
  29.7701001  89.2329571  96.1092340  28.2574200  89.1865584  96.1348654
  25.1056194  88.1159973  87.2783566  26.0180759  88.1700993  87.5624847
  24.8616314  87.2027397  87.4289227  55.8690834  97.9313469  73.4052563
  56.5314770  98.3865929  72.8854322  55.9152079  97.0223236  73.1089735
   7.9816723   5.2497005  13.0465198   7.4356461   4.6479008  13.5524082
   7.5838470   5.2598029  12.1759653  61.7583036  97.5817299  63.5245991
  62.0596457  97.3144341  62.6562786  60.8203173  97.3909378  63.5218382
  29.4546509  51.1082935  28.8959861  29.1059899  51.4960384  29.6986794
  28.8747215  51.4271641  28.2044387  20.3443432  13.2557547   9.9118418
  19.7152257  13.7137485  10.4692316  19.8656762  12.4932086   9.5868307
  54.8483706  81.8729401  88.5694027  54.5193481  81.3305759  87.8525925
  54.6170092  82.7672958  88.3187294   5.0176603  42.3143530  21.8151426
   4.6449375  41.5123367  22.1813083   4.5935118  42.4078894  20.9621596
  91.9921398 111.4488697   7.6366848  91.0621262 111.5447140   7.4314344
  92.3884010 111.1495209   6.8183947  66.1158419  75.6769848  88.2647419
  66.9983864  75.3425503  88.1050491  66.2350941  76.6188288  88.3869839
 117.0407581  13.0600238   9.2050683 117.9360104  13.1160378   8.8709724
 116.4889431  13.1594527   8.4292841 105.9360600  18.5533774   1.1982144
 106.5234470  18.6306882   0.4463973 105.4493523  17.7445292   1.0397246
  33.0089140  37.2298908  41.7204332  32.4685740  37.9984570  41.5372133
  32.6282334  36.8530703  42.5137329   2.0802672  18.3230257  39.3814635
   1.6845424  18.5899198  38.5517621   1.8776906  19.0382683  39.9844742
   4.9012914  22.7038717   5.4139739   5.3212094  22.8204322   4.5617339
   5.3264153  21.9315457   5.7868201 117.6226521  37.5586295  27.9565072
 118.0589676  36.8098712  28.3629751 116.9114113  37.1727729  27.4451566
  84.3005943  18.4190381   8.5291815  83.9541435  19.3103743   8.5706407
  84.9711895  18.3907366   9.2116332  37.1014953  51.7936707  32.3462367
  36.6939187  51.1232710  31.7978954  37.1480060  52.5670862  31.7841911
 107.5452518  44.3326664  17.1297622 107.4004173  45.1677752  17.5745702
 107.2281170  43.6740112  17.7476859 117.4790192  44.4737720  27.2628522
 117.9656982  45.1817131  27.6849842 116.8759823  44.1620922  27.9377055
   9.6053904  24.8187971   2.9660183  10.3128242  25.0184965   2.3529202
   8.8045120  24.9482322   2.4580094  93.0949497  41.9173288  19.1477644
  93.0577183  40.9751225  19.3123555  92.5857353  42.3051023  19.8594940
 100.8030415  31.4951682   9.3303710 100.0369072  31.5738177   9.8987848
 100.5136204  31.8465090   8.4883332  34.3332481  79.7394609  95.5004597
  34.1721988  80.6711102  95.6498528  34.7352386  79.4325495  96.3131332
 102.9190922  45.7882214  20.0464129 103.4735298  46.4623976  19.6535790
 102.8533077  45.1103497  19.3738151  60.5206633  82.7681541  90.9864521
  59.5832634  82.6062489  91.0927486  60.8723211  82.7321720  91.8759823
 107.3824310   5.2129084  19.4086468 107.7026558   5.7900953  20.1018620
 107.3110199   4.3543419  19.8257756  87.2116184  11.3057685  10.8262825
  86.7460823  11.1654544  11.6507983  88.0925941  11.5706754  11.0907197
 116.7251682  50.9891367  22.4205160 116.6755581  51.5696573  21.6610646
 117.3280621  50.2955341  22.1528292 113.2707119   4.3044373  27.7402854
 112.7545547   3.5573477  27.4375153 112.8325748   4.5889598  28.5423589
  10.9001136   9.7533280  14.6681976  10.5570233  10.2447927  15.4145110
  11.4169514  10.3924870  14.1777027   3.9431855  55.1990461  14.0510225
   3.2247189  55.0063848  13.4485936   3.5170773  55.3288174  14.8982668
 101.1706638  63.3606672   7.0612252 101.2774467  63.2393599   6.1177671
 101.9043922  62.8834009   7.4486363 113.7627029  47.2063589   1.9408894
 114.4773197  47.5381517   2.4844499 114.1959858  46.8604898   1.1605894
  82.7357292  37.1022987  90.7596970  82.4828339  37.3087382  89.8598862
  81.9288063  36.7910790  91.1698723  33.7611389  53.5708904  39.4640279
  32.8879619  53.9368343  39.6050334  34.3131757  54.0131235  40.1089478
  69.5504856   1.4385891  95.1080799  69.4890022   2.3477508  94.8150349
  68.7410688   1.2891832  95.5967045  89.0966702  33.0691099  22.7215457
  88.9129353  34.0053701  22.7982545  88.5896492  32.7871156  21.9602036
  92.4079704  18.0655420  24.8852181  92.7994156  18.5598469  25.6054020
  92.0641708  18.7352920  24.2940593   1.1849753   8.7410271  14.0567827
   0.8077487   9.6095216  14.1969573   0.4360384   8.1460023  14.0924275
  16.7062604  68.1589985  11.9923961  16.2084091  68.9764977  12.0011055
  16.6457808  67.8513622  11.0880005  17.4173474  30.7791877   9.6673858
  16.5679860  30.8484840   9.2314780  17.2076094  30.4936433  10.5566025
   6.3958073  32.1961474   8.4272134   5.8393681  31.7810273   9.0862149
   5.9134334  32.0928097   7.6069278  44.0921259  16.8529093  12.8776908
  44.6312714  17.3408556  12.2552276  43.3253384  16.5845490  12.3714817
  13.9990246  44.2677164  22.3223042  13.3648086  43.5508251  22.3309875
  13.7583506  44.7911739  21.5579128  18.4356582  30.7566381  23.8957167
  18.8991261  31.1176252  23.1399941  19.1157532  30.6355143  24.5583129
  52.8820229  91.2469292  78.6695910  52.9366064  91.0827923  77.7281475
  53.6256123  90.7708263  79.0392303  12.9347396  54.1812515  10.9173369
  12.3821485  54.5132542  10.2097714  13.5764933  54.8757172  11.0660112
   4.2312938  41.4968538  54.3546438   3.3595139  41.1258984  54.2181873
   4.4979563  41.1718702  55.2145910  12.7674675  52.3450994  17.8582096
  13.3523107  52.5988960  17.1442223  13.3450878  52.2358751  18.6136270
  27.5612402  81.9536209  81.3963890  27.0191479  81.8900585  80.6100464
  28.2391357  82.5900650  81.1691570  42.7513599  17.5398326  15.6753230
  42.5902224  17.7595973  16.5929127  41.9010782  17.2487748  15.3458655
   9.7871029   6.4172333  18.7227130   9.5078385   5.5016816  18.7254345
   9.9881715   6.6090328  19.6386909  24.6583986 110.2385902  81.3188744
  25.4661465 110.7519341  81.3348103  24.5862222 109.9336433  80.4144192
   1.8690139  57.9924726   8.4045988   1.9126646  57.2889042   7.7570486
   2.7103928  58.4421968   8.3267331  34.5053530  20.3095531  27.5758076
  35.2600431  19.8823428  27.9809833  34.7142506  20.3294802  26.6418934
  62.5702763 100.2148914  86.3167858  62.4977922  99.9267387  85.4068661
  62.0070791  99.6135426  86.8040466  16.3928640  38.3273411   8.6073673
  16.4259827  38.8371825   7.7979255  17.0114136  37.6109171   8.4646565
 111.2019730  82.3577213  18.2249212 111.9314575  82.0554638  18.7659633
 111.1042213  83.2829666  18.4498727 112.8194237   2.1104904   7.9944283
 112.9140282   2.3473352   8.9170253 113.5790348   2.5056815   7.5665885
  39.0983772  10.3116798  92.1733665  38.6834049  11.1192536  92.4764442
  38.9953113  10.3318954  91.2219429  24.0975046  50.5221939  84.0251732
  24.1001797  50.6904078  84.9674797  23.1830859  50.3282881  83.8190937
  36.5439534  73.1887531  93.9921761  36.4975524  72.2457600  94.1497898
  35.9369302  73.5679770  94.6277428  21.5289640 107.5884056  86.6036034
  21.4707804 108.4107494  87.0900154  22.4175882 107.2739983  86.7701244
   7.7803195  52.2386265   8.1876540   7.6643509  53.0263662   8.7189221
   8.6604089  51.9309378   8.4044552 111.6630268  16.1654496  51.0968590
 111.0279942  16.4963889  51.7320299 111.7157555  16.8513381  50.4312706
  79.5323610  57.0971966   5.2299279  80.4758167  56.9461536   5.2874178
  79.4122171  57.9889011   5.5565178 110.7859612  52.0535612   5.7800764
 110.1737881  52.2819519   5.0805664 110.3787994  51.3076448   6.2206012
  31.2852263  47.3881435  95.1426411  31.3934231  47.3319149  96.0920429
  30.3771138  47.6652431  95.0210667 111.7817497  20.7577896  13.0530548
 112.0707989  21.4227962  13.6779094 112.4738789  20.7330346  12.3923182
  68.0610132  31.4697361  15.7388818  68.5906458  32.1055794  16.2199473
  68.6672258  30.7570338  15.5369055  80.3493023 108.6253071  29.7261977
  80.7214642 109.1873646  30.4057789  81.1099720 108.2630444  29.2719054
   6.9397205   8.4974027  20.4201555   6.1656493   8.2126921  19.9343729
   6.8258053   8.1223565  21.2934232  16.0650694   3.0522311   8.3074862
  15.1441050   2.8181645   8.4226757  16.1852980   3.8281026   8.8550264
  98.0819035  37.0684767  19.5034683  98.8502502  37.0469308  18.9330232
  97.8562927  36.1477709  19.6362615  39.4565606  91.1184978   6.8914473
  39.9322891  91.9401169   6.7695618  40.1404238  90.4657269   7.0412678
   9.8776495  22.9901123   5.1719159   9.9378759  23.5184073   4.3759835
   9.7196168  23.6257672   5.8699119  88.8045692   4.3806836  88.3613396
  88.9515209   4.9396804  89.1243362  89.0563869   3.5048190  88.6540508
 108.9854717  96.5117264  33.1367540 108.0385685  96.6329765  33.2068610
 109.2732620  96.3490200  34.0350485  66.6769743  12.1715534  74.1762447
  66.6527510  12.4743640  75.0839663  67.4236298  11.5735233  74.1430998
   9.2220539  25.4808736   6.4601576   8.9027935  26.1736608   7.0383877
   8.8042253  25.6603932   5.6178850 104.5309448  50.8240747  14.6764565
 105.3160477  50.4566669  15.0824690 104.8604870  51.5079355  14.0933895
  19.7352028   0.5802529  78.1026888  19.8307896   1.3484910  77.5397491
  20.3241110   0.7477157  78.8384724  42.0781231  76.3794899  94.6653461
  42.8078842  76.5303898  94.0645885  42.4918652  76.2656498  95.5209637
  28.8774395  68.6274862   6.3425535  27.9442620  68.4305716   6.2610674
  28.9175630  69.3356419   6.9853109  34.7520494  81.7856789  24.7129774
  33.8655376  82.1348572  24.8046756  34.6700835  80.8603668  24.9438500
  46.9969845  31.9825268  13.1595469  46.6288376  31.7602777  12.3043811
  46.2350893  32.0753288  13.7315083  91.1461735  10.0090885  76.7835331
  91.8210793   9.3989766  77.0810175  91.1034870  10.6731367  77.4716091
  28.5206008  46.2801600  20.6021118  27.7614808  46.3451052  21.1815500
  29.2516255  46.6050196  21.1277533  57.6576757  97.0063591  59.9436235
  58.2076406  96.3370228  60.3507566  56.8867064  97.0589924  60.5084848
  75.7581615  86.5641499  90.1759243  76.0607386  86.8181229  91.0478020
  75.9027815  85.6186962  90.1381874  64.3306780 105.6433296  82.6802635
  63.5278702 105.2742100  83.0483437  64.6493912 106.2434864  83.3544064
  38.7632346  70.9328842   4.7551137  38.8902211  71.7011881   4.1984996
  37.8139281  70.8657885   4.8578086  44.8319650  89.6565387  96.2725878
  45.4054135  89.0897939  95.7566536  43.9534271  89.3062636  96.1252453
 103.8259602   3.9777258  92.4455166 103.9190865   3.4618017  93.2463741
 104.7107506   4.2913410  92.2583961  11.6182375  66.7020607   7.5650352
  11.8432713  67.3587465   8.2240909  10.7148516  66.9056368   7.3227894
  71.4887571 100.2758217  79.3309212  72.2049284 100.6991673  79.8043251
  71.6028357  99.3422604  79.5089102 104.8071861  44.2640448  91.6256714
 105.4509830  44.1492796  92.3246670 104.0921021  43.6720943  91.8591118
  32.3428869 110.3337765  81.8961906  33.1150270 110.0021076  81.4379025
  31.7778206 109.5679855  81.9986153   4.1728413  47.9411697  14.3835461
   3.6562094  48.6763668  14.0536821   5.0794715  48.2441235  14.3338168
  46.1368102  84.8462984  96.1130423  46.7866063  84.3171093  96.5755960
  45.3147871  84.3691322  96.2262710   9.2024177  44.5297384   6.6254860
   8.9556110  43.7318802   7.0931828   8.3998066  45.0507212   6.6005123
  43.5703611  96.8170643  24.6194863  44.3090105  97.2210789  24.1640687
  43.3094835  97.4646759  25.2742934  18.4626555  71.3916254  74.3527985
  19.3776858  71.4276838  74.6314621  17.9811084  71.8295240  75.0546455
  79.6554184 110.2113438  85.5904198  79.2879772 111.0921860  85.5173111
  79.8873854 110.1245594  86.5150166  45.6636238  69.4852135  95.5324473
  46.5795201  69.7329041  95.6589968  45.6802917  68.5302433  95.4693128
  16.0760367  37.2297692  15.1303816  16.3140523  36.3122082  14.9974847
  15.8374977  37.2837138  16.0558116  62.1907139  88.6987972  90.6607437
  62.1230364  89.5692253  91.0531902  61.3595963  88.5778141  90.2015686
  45.9405470  -0.1197985  85.5166721  45.6618786  -0.3957692  86.3898373
  45.9116220   0.8364798  85.5471134  31.4127707  41.2666941   8.9399207
  31.1975169  40.8207941   8.1207305  31.6081786  42.1665668   8.6786216
  64.9661732  77.4368906  94.4283581  65.4579353  77.1071959  93.6762238
  64.2213678  76.8408728  94.5074558  37.4129915  29.6730399  10.3263319
  36.6480851  29.2333746   9.9550569  37.7636671  29.0483284  10.9611511
  65.6388617  83.3208370  58.2148838  66.5548849  83.1765175  57.9776144
  65.6427813  84.1510582  58.6912823  25.6019473  26.0767746  34.5833158
  24.9966645  25.6948853  33.9476871  25.4378366  25.5914402  35.3918648
   0.9736253  41.0102940  28.1603456   0.1815036  40.8118582  28.6597443
   1.4337015  41.6616106  28.6898208  14.9753869   7.6850051   8.6928219
  14.0343988   7.6593387   8.8663584  15.3403509   6.9966620   9.2488950
  49.9467278  21.1889553   3.9434034  49.8360682  20.9795523   3.0159676
  49.0584755  21.3550615   4.2590785 109.8235226  15.9186864  14.7634888
 110.5360699  15.4433012  14.3362796 109.3725681  15.2554655  15.2859974
  81.6990948  85.3942776  50.4329252  81.0039997  85.9691238  50.7532978
  81.2385273  84.6238613  50.1004124  11.4999747  59.9279118  30.9666681
  10.5767262  60.1780081  31.0026765  11.8616033  60.2260351  31.8012834
  35.3610992  93.2685280  90.3318024  35.8739471  92.7510452  90.9526348
  35.9416080  93.3844662  89.5796108  58.3789396  79.0186977  89.6417141
  58.2920361  78.4594393  88.8697624  59.2757130  78.8732147  89.9431419
  40.8404589  99.9232101  58.6233139  40.4263115 100.7853603  58.6607552
  41.6255426 100.0109386  59.1638470  36.8410468 106.6288376  84.2280388
  37.3333979 107.4045658  84.4964886  36.1430120 106.5512753  84.8783970
  98.0529785  10.8692729  89.1582012  98.6163902  10.0995290  89.0788841
  98.0931377  11.1009037  90.0860786  11.5758348  57.0842886  35.2687669
  11.2311649  56.7781878  34.4298744  10.8397150  57.5384188  35.6787968
  42.3056793 106.9119740  61.0091639  43.0302000 107.2684574  61.5231895
  41.8504095 107.6827717  60.6702995  25.7770395  78.1398058   3.9482802
  25.3997707  78.9165068   3.5352018  25.0879073  77.8194046   4.5302358
  28.9645052  43.5432720   7.0012927  28.3795381  42.8041935   7.1680319
  28.5044479  44.2996883   7.3651773  10.4102814  47.7583933   2.8530201
   9.6036363  48.1847763   3.1424212  10.8548999  48.4208250   2.3241277
  50.8044577  51.9391203  17.7661049  49.9904442  52.4227047  17.6255429
  51.4953756  52.5841236  17.6150095  20.8826256  46.2915516  49.3157387
  20.3801036  45.6921721  48.7639713  20.6328535  46.0599661  50.2102900
 101.3501740  56.8317032  21.8718767 101.0192680  57.6935863  22.1246505
 102.1968651  57.0107365  21.4628649 105.5869770  54.8742676  24.7326541
 105.4963398  55.4771852  23.9947486 104.6917629  54.7404099  25.0439429
 112.2901821  68.3861017   8.4679103 112.8464890  69.0612125   8.0793494
 111.5046406  68.3790350   7.9209965  38.2362008 110.2994156  94.3661213
  37.8416276 110.7553387  93.6226940  38.3868909 109.4091034  94.0485382
 116.0936832  45.3470707   7.0680451 116.6701126  46.0087156   6.6856998
 115.7372189  45.7643270   7.8523028  36.4041615  96.3693714  82.7684212
  37.1614337  96.5219879  83.3336449  36.7486215  96.4515209  81.8791389
  90.4354286  30.2812362  82.6948166  91.0765743  30.6956029  83.2722855
  90.4901695  29.3491912  82.9058266  62.6564980 103.6741352  91.8618107
  62.2033167 102.9194260  92.2376728  62.1862650 104.4326401  92.2079086
  87.3031521  14.5008957  57.1053410  87.2314453  13.5480118  57.0496321
  88.1136894  14.7077060  56.6400623  90.9421158 101.4166832  96.3951111
  91.8830585 101.5903664  96.4212894  90.8481598 100.5470848  96.7839622
  83.2484341 100.2545071  66.3038397  83.8393784 100.1710701  65.5554771
  82.9786396  99.3567085  66.4972401  71.0198307  26.4153934  90.2346802
  70.5165911  25.9182596  89.5898247  71.1455250  27.2738361  89.8303223
  23.8846374  20.1977968   1.8580633  23.5859656  21.0258198   2.2341073
  24.4512701  19.8198688   2.5306168 117.7552032   1.9087343  82.7117252
 116.8865108   1.6181777  82.9895496 118.0829430   1.1948826  82.1646976
  71.3549232   3.9624083  77.0270491  70.8985996   3.8044864  77.8535271
  70.6560516   4.1419110  76.3980865  61.7590618  58.1989002  18.5334110
  61.0329819  58.7951565  18.7164772  61.3479137  57.3381758  18.4537876
  85.4105663  28.8511705  94.7764301  85.8617687  28.7757921  93.9356232
  85.8109474  28.1762028  95.3244686  34.4638944   7.6760423  12.3509026
  34.0812325   8.1417978  11.6073477  34.5089865   8.3317655  13.0467665
  23.5676146  32.9168558   8.3458406  23.2134891  32.4877977   7.5669092
  23.6593151  32.2118783   8.9868009  17.5144887  76.6541243   1.2671962
  16.6020989  76.7201996   0.9854007  17.8049076  75.8024645   0.9407508
  13.9165044  27.1296287   7.3349768  14.5366526  27.2666144   8.0511349
  14.4221973  26.6696978   6.6649258  48.8135052  86.6169453  87.3436928
  49.3756866  86.3660049  88.0766392  48.3258629  85.8208466  87.1323586
  87.2156239   1.1959694  74.1593885  86.5235043   1.4314318  74.7772598
  87.2626972   1.9390792  73.5578871   7.4544954  39.9365020  14.4981945
   7.4962926  40.6690359  15.1129150   6.7037994  40.1358223  13.9387667
  18.1309915  42.7463770  24.2932415  17.8818917  42.1074104  23.6254787
  18.7970376  42.2995329  24.8156834  55.4289722  61.7101812  15.1893556
  54.4927788  61.7769766  15.3772557  55.7709932  61.1383772  15.8765900
  77.0669889  95.9920502  69.0585041  76.1418486  95.8256912  68.8777494
  77.3127413  96.6779804  68.4377527  30.5895162  21.0651541   3.1363791
  31.4018536  20.8254552   3.5823447  30.7051086  20.7473183   2.2409180
  59.2523432  67.6333284  95.5990410  59.3335485  67.3080015  94.7025013
  59.1215706  68.5764408  95.5006886  64.2878342   4.6126384   2.0516089
  63.8186836   5.4209274   1.8447322  63.6122417   3.9346045   2.0427524
  59.1482210 101.2267590  74.1956377  59.4455624 101.6872025  73.4108973
  59.0223932 100.3221035  73.9093065   5.9381920  29.8027730  10.8830893
   5.9155416  29.4081545  11.7548668   5.3122425  29.2900014  10.3717339
  30.3294444  35.0475073  60.7913494  30.1661730  34.4002819  61.4774036
  29.7871614  34.7599697  60.0568533  61.4904642  58.4350872  94.7993088
  62.0741510  59.1131210  95.1396179  60.9907866  58.1442261  95.5621719
  25.8395243  72.9566956  39.1493917  25.1656365  72.6519871  38.5417223
  25.4880071  73.7716675  39.5078373 116.2432766  20.5158305  84.5488453
 116.1127472  19.6924949  85.0192833 117.0334053  20.8911157  84.9375439
  23.8563991  46.2764072  19.3660724  23.4799504  47.1154022  19.1003525
  23.3870435  46.0465384  20.1680064  24.3582821  48.4293175  42.5107956
  23.7284708  47.9567623  43.0551004  24.7726011  47.7497625  41.9790316
  11.8353772  64.4776630   8.9435869  11.7927861  65.2157259   8.3355725
  11.8134439  63.7029696   8.3817989  68.8672113  81.0689640  77.9810286
  68.5402870  81.9213295  77.6932192  68.5142994  80.4491043  77.3427057
   7.5324923  38.5927081   8.3151460   7.4836475  37.6494002   8.1601781
   8.3548516  38.7152505   8.7894249 109.0456676  13.5326934  19.6730316
 108.3916569  14.0145397  19.1667414 108.9125443  13.8240016  20.5750585
  15.5107284  71.9437265  14.9397397  16.3142610  72.0555162  14.4317317
  15.1596105  72.8295517  15.0305903  68.6203480  99.8893833  83.0483913
  68.6927032  99.1597080  83.6636734  67.6948595 100.1325035  83.0729389
  42.2850561  90.8914852  44.7556639  42.7275848  90.9980011  43.9136076
  41.3527584  90.9387207  44.5439482  17.2152066   2.4995452  64.7007847
  16.4589536   2.4302214  64.1181087  17.5558460   1.6068614  64.7583389
 110.3624630   2.9812732  76.8417692 109.7320175   2.5220811  76.2868738
 110.0564003   2.8218418  77.7345943   3.4653342  51.2278795  26.0805321
   3.6047941  51.0970259  25.1426315   2.5173807  51.1585188  26.1936951
  92.4734306  46.3994646  30.4778314  92.6664639  47.2312212  30.9104419
  91.5344238  46.4364433  30.2957940  44.7955275  93.3992004  74.9989080
  44.1769123  93.6440754  75.6870794  44.7721910  94.1323280  74.3839169
  42.0854759  34.7835231  10.1203096  41.5451527  35.4916453  10.4708040
  42.9849958  35.0918698  10.2299404  25.4558158  44.8286963  17.7245486
  25.0122166  45.3038073  18.4272027  26.1660004  44.3603420  18.1633103
  32.9517317  60.1462889  21.7619205  33.8310480  59.8305368  21.5537500
  32.4450517  59.9862528  20.9657454 103.3164215  36.6205931  94.1321659
 103.8368416  37.3424387  93.7795544 103.7003708  36.4459062  94.9914074
  54.9727869  72.0498896  92.4129581  55.1279783  72.9874659  92.2985268
  54.6490431  71.9684410  93.3100510  96.4744854   1.3549343  66.5268612
  97.3771858   1.5835762  66.7484474  96.0809994   1.0976836  67.3606586
 101.1276245  59.3155909  12.1288204 101.7483711  58.7485790  12.5864279
 101.6776085  59.9135256  11.6226470  13.9463377  46.6514158   7.3487747
  14.6833587  46.3393116   6.8237770  14.3489861  46.9959784   8.1458843
  34.4781017 103.0424595  88.7318611  35.1652122 102.4414921  88.4438610
  34.9513578 103.7889004  89.0994072   0.4819243  49.1384459   2.6895711
   0.7417810  48.4538555   2.0730969   0.9878857  48.9529991   3.4806740
  55.9465694  85.6868172  76.8092918  56.7997503  86.0931110  76.9617653
  55.3544521  86.4232349  76.6566038 108.8348007   2.7987775  71.1209154
 108.7715054   3.2290512  71.9736099 109.3732357   2.0241308  71.2829065
  40.2650595  61.4725780  14.7781956  40.8058071  60.7064247  14.5862710
  40.5916405  61.7915583  15.6195211 102.9265976  54.2976093  25.0615382
 102.5246239  54.8363638  24.3800759 102.3085785  53.5788107  25.1942444
  38.3882451  85.8614159  79.4171906  37.5970840  85.4801655  79.0364742
  38.1488276  86.7681503  79.6089077  41.7567921 102.6422310  63.1620312
  41.6351128 103.5740471  63.3440685  40.8749342 102.2725391  63.2055283
   5.7116061  59.9426746  13.3177686   6.6603762  59.8983765  13.1990051
   5.4347277  59.0283346  13.3773208  13.3562481  35.3191113   4.2220145
  13.2021725  36.0343671   3.6048433  14.2498815  35.0307775   4.0362319
  45.8684683  96.8458462  92.5738430  46.7806339  96.5634727  92.5071239
  45.8784771  97.5325584  93.2405949   1.3726182  26.5144300   5.3946227
   1.6961230  25.8836675   4.7514141   1.7695548  27.3459411   5.1352763
  26.7883682  35.4457808   6.2767631  27.1009827  36.2131500   5.7975507
  27.5840807  34.9645162   6.5036035 102.6561928  47.3505449   3.2210135
 102.6078224  46.3997746   3.1213370 103.5902882  47.5505304   3.1601936
  18.1997263  66.2223101  29.2318201  17.3669541  66.3874102  28.7897062
  18.5564220  67.0937347  29.4039249  30.2031279  43.6848497  21.6409016
  30.1934719  44.1946745  22.4509740  30.0435042  42.7841520  21.9228482
  34.7375607  86.3239861  88.6824131  34.8185754  87.2481441  88.4466362
  33.8798642  86.2582111  89.1022587   5.0566852  16.1547625  22.3958421
   5.8698547  16.6434562  22.2686958   5.0936002  15.8610380  23.3061147
  66.7244768  96.9706821  65.6042480  67.3331070  96.3031197  65.2877712
  65.9158802  96.8070126  65.1188517  25.3244352  47.5361347  52.1204329
  24.3840837  47.3577976  52.1074104  25.7327890  46.6712570  52.0821142
  26.6781449  63.9356184  16.4274991  26.0283446  64.1611624  15.7618260
  27.4971819  64.3052053  16.0976207  22.8197408  96.9920444  79.5804882
  22.2738957  96.5061569  78.9622688  23.6873126  96.5965080  79.4961882
  23.6806798  61.0473204   4.5071933  23.0197620  60.9876442   5.1970190
  23.1907439  60.9215260   3.6945614  67.4739504 100.2838802  86.6725731
  67.9284430 101.1028957  86.4754009  66.9681406 100.0943947  85.8823299
  48.6296225  24.5174122  51.4995623  48.8570166  23.6315632  51.2170839
  48.1681490  24.8963213  50.7514334  37.1573019 102.0609379  69.2202234
  36.9315648 102.5818634  68.4495687  37.1317840 102.6840496  69.9463844
  16.4505684  30.3681684  12.4468684  15.5189264  30.1769423  12.3386681
  16.4803922  31.0318637  13.1359601 103.8306618   2.3999070  94.8015308
 102.9794312   2.2440225  95.2105904 104.3465233   2.8350165  95.4803467
  36.3405371  94.4091129  87.9995346  35.5723643  94.4315338  87.4288845
  36.8906474  95.1282692  87.6890182  63.2107544  89.8313713  77.8416681
  62.7348185  89.4973755  78.6020422  62.6385021  90.5075550  77.4789858
   1.8465884  68.6609459   3.7455675   1.5401080  68.7452841   2.8426892
   1.0726401  68.3846855   4.2363995  12.5129867  40.0649929  10.4311252
  13.0204451  39.2536283  10.4511917  12.8553033  40.5429745   9.6757531
  83.2765388  37.9281449   1.4531864  83.5484982  38.7441587   1.8731743
  82.3223972  37.9258418   1.5296392 106.8876934  74.0809202   2.8508517
 106.9281769  73.9571476   1.9025518 106.0872841  73.6286974   3.1174612
  71.2509680  12.2299743  95.6048775  70.8926630  12.2412145  96.4924145
  71.1060143  11.3344872  95.2993870   1.6837911  27.1074033  55.2136040
   1.0359117  26.8690991  54.5505095   2.4870747  27.2655463  54.7176600
  45.9694672  55.2229404  31.7920732  46.2487745  56.1076927  32.0274997
  46.2280369  55.1260614  30.8755636  97.3540497   6.2285578  66.8517733
  96.5567780   5.8290911  66.5038919  97.8085518   6.5671289  66.0803938
  62.9399681 105.3899002  87.4541092  62.6711845 105.9957695  88.1446934
  62.4309444 104.5964527  87.6201344  50.2704108  93.2136509  95.5071613
  50.9933186  93.6078045  95.9953004  49.8259926  93.9554354  95.0966983
 107.6650715  21.2700152  13.9899683 108.6199474  21.2112308  14.0215218
 107.3708057  20.8130121  14.7778690  37.8915191  47.4006128   9.0055054
  38.1326938  47.6842165   8.1236696  37.1369219  46.8264627   8.8744622
 105.0883198  37.5926971  55.2483845 105.9816360  37.2862983  55.0923777
 104.5534611  36.7996693  55.2127838  93.6379910  97.9777527  88.0028820
  94.0694427  97.3688030  88.6022663  94.1833782  97.9664707  87.2163391
  79.3668938  92.4984837  85.7367325  79.1508484  92.7317047  86.6395950
  79.0089417  93.2146645  85.2121544  62.8326941  93.9603806  78.1918907
  62.5376701  93.3383846  78.8569593  62.3148251  94.7487450  78.3547544
  26.1530781  81.4864635   8.8937593  25.6147456  81.1669159   8.1696594
  25.5229998  81.7231560   9.5743531  28.4525704  72.7763557  22.7638602
  27.5870705  73.1615782  22.6269579  28.7208271  73.0907536  23.6272407
 113.8633728   8.7096786  89.6636677 114.6332932   9.2302096  89.8928165
 113.6870766   8.1859440  90.4452419   0.9205231  52.2645283  16.7010832
   0.3037420  51.9889545  17.3792219   0.4513237  52.9393673  16.2104952
  44.3080473  85.2295399  93.2951450  44.6918201  86.0093594  92.8941154
  44.7227669  84.4970703  92.8393745  14.8042858  62.5967979  11.1734307
  15.0112426  61.7423344  10.7948887  14.1693771  62.4055099  11.8637431
  55.4362059  94.9147415  53.2997894  56.3685846  94.9594212  53.5117054
  55.3664446  94.1907692  52.6775122  97.0163250  89.7622490  85.2684879
  97.3248100  89.1778183  85.9609509  97.7662373  90.3262234  85.0793076
  13.6365962  25.0601625  36.0032368  13.4820747  24.1339636  36.1890006
  14.5830107  25.1240754  35.8749914  52.5655365   7.5888556  89.3651104
  52.9091215   6.8348676  89.8443604  53.2329702   8.2662791  89.4740009
  45.4725170  30.6688380  11.2694883  46.3164139  30.6866145  10.8180976
  44.9577522  30.0201321  10.7894599  82.0363712  13.3006692  81.2922096
  82.7780914  12.7091062  81.1651707  81.3978386  12.7824199  81.7820358
  79.1888618   6.9369572  90.8329582  79.7721195   7.0993596  91.5743542
  79.7755957   6.7066407  90.1125908  91.5203094  26.9879246   5.1503640
  90.9184933  27.7161980   4.9965286  92.1841240  27.0772290   4.4665447
  21.0346341  94.3601704  65.1658916  20.2655196  94.7080803  65.6171703
  21.6083360  95.1178074  65.0515318  86.2403011   5.0638765  87.7882957
  86.5232563   5.9675217  87.6483250  87.0404434   4.5459664  87.7001286
  84.6231556   9.6144027  79.1170073  83.8803005   9.1844720  78.6932707
  85.0500584  10.1033831  78.4135246  51.3822651  83.8373375  92.2057343
  52.2897005  83.7028599  92.4790668  50.8678293  83.3060455  92.8134632
 115.9469128   7.8183538   5.5683559 115.5517292   7.6765597   4.7081494
 115.5704212   7.1332753   6.1207634  54.8434544  92.8091431  87.8403282
  55.1471519  93.7168694  87.8351688  55.6060982  92.2998619  87.5660324
  40.2792072  33.4837294  20.5934930  40.2476835  34.3546343  20.9894276
  41.0772276  33.0893636  20.9454536  40.1262760  54.3177843  27.4820876
  40.8890152  54.8887205  27.3899388  40.2829409  53.6066628  26.8608046
  46.6081619  32.6988888   7.4602604  46.9269848  31.8164349   7.2708929
  45.6640482  32.6497483   7.3103833  35.6177092  52.9091215  37.4923944
  35.0521827  53.1327248  38.2315922  35.4924369  51.9679356  37.3711109
  67.4546766  20.1397514  70.1862717  66.8672609  20.5022430  70.8494234
  67.1741962  19.2296910  70.0895643  37.1707273  57.5994349   3.2862446
  36.3510537  58.0584383   3.4697625  36.9614005  57.0186090   2.5547683
  71.9141054  98.9391994  92.4384403  72.8217793  99.0731335  92.1656418
  71.8742037  98.0174828  92.6935387  72.4216747  93.4678268  89.7559547
  72.0310831  92.6246738  89.9856377  73.2656384  93.2421970  89.3647289
  11.7282510  39.1466069  53.2554626  11.1384046  39.2047501  52.5038433
  11.5813541  38.2688451  53.6078644  83.5675228   1.0940502  74.8604107
  83.3134163   0.7493732  74.0043306  84.1181743   0.4094742  75.2403784
  28.0981994 102.8073311  95.8951283  28.7300181 102.1759701  95.5509949
  28.6328936 103.5435295  96.1923599  28.3635211  55.5655575  17.6301336
  28.2501531  56.4353085  17.2468436  27.5727463  55.4288149  18.1518722
  53.4689236  25.8220291   9.9872398  53.4123135  24.8864126  10.1812768
  52.8530979  25.9548712   9.2665815  93.9687061  23.0550814  25.4311848
  93.1260872  22.8153086  25.0455427  93.7718010  23.8089466  25.9871936
  68.6537838  86.9189548  78.5598326  68.2779074  87.2417831  79.3788147
  69.5288467  86.6152573  78.8012266  82.8573036   2.4181731  81.9361591
  83.4137821   2.6332107  82.6847076  83.2069969   1.5898144  81.6078854
  91.3447285  10.8406401   9.6110326  90.8048153  10.7379365  10.3947234
  91.0241127  11.6449749   9.2030126  84.2515182  96.5341663  76.7486429
  84.4732094  97.4404240  76.9625950  83.8110638  96.5891552  75.9005785
  33.9960766  40.2752495   5.4852206  34.8953032  40.2345514   5.1596946
  33.9992857  39.7234392   6.2673497   2.4162783  58.4069824  17.9332983
   3.1106126  59.0258694  17.7072191   2.6821381  58.0474377  18.7796295
  64.3388128  73.3303165  79.4322443  63.4299183  73.6164904  79.3414307
  64.3576193  72.4615335  79.0308809  21.3472366  32.9386926  33.5340118
  20.4707479  32.6647234  33.2639337  21.3121867  33.8952184  33.5263252
  66.3113022  81.2190437  90.9580040  65.7055855  81.0475445  90.2369404
  65.9787893  80.6879234  91.6815853  39.6930623  43.0675936  13.1537116
  39.9533176  42.4536228  13.8403976  40.4266310  43.0642319  12.5388169
  99.7936916  15.6542480  15.0274038  98.9720917  15.2081895  15.2329004
  99.9041176  15.5305159  14.0846801   3.1313658  40.6457281   7.5124580
   2.8800145  40.5860615   6.5907776   2.3095813  40.8110094   7.9746097
  63.8145494  57.4036598  79.7233963  64.0208530  56.7024708  79.1053247
  63.4755564  58.1126213  79.1768694  78.1549454 106.8751144  95.3442001
  77.2959566 106.4568615  95.4028511  78.7260771 106.3255501  95.8808708
   2.6040658  19.6081603  11.1397672   2.8134322  20.2990890  10.5112648
   1.9675516  19.0560734  10.6855834  33.7733054  17.3813009   3.6795661
  33.8115788  17.0581377   4.5797509  34.0647149  16.6413474   3.1468537
  28.8021636  61.8437576  22.9468536  29.2748737  61.2154293  23.4927320
  27.9229498  61.4746380  22.8633690  53.2756233  87.5116348  91.4054585
  52.9610491  88.2342911  90.8622837  52.5110102  87.2453022  91.9160175
  22.4359131  80.1242065  88.3886433  22.8358054  79.5780706  89.0654373
  21.8240833  79.5403719  87.9402733   6.4255506  30.6034708  62.3617601
   7.0016491  31.2262607  61.9185066   5.5720127  30.7299852  61.9473982
  44.0279722  91.0045910  79.7443676  44.8292780  90.8891106  79.2336798
  43.5995770  91.7640018  79.3493843  52.5088644  98.9800835  81.5095043
  53.1548214  99.5102310  81.9763184  52.7662086  98.0758095  81.6892433
 111.2946606  73.4909773  26.2902927 111.7042160  72.6961899  25.9485197
 111.2252140  73.3383989  27.2326970  41.1438799  43.9034510   7.3921245
  41.1730957  43.1442022   6.8099612  40.5541468  43.6408234   8.0988562
  18.2016373  33.8228059  33.7659264  18.1517613  34.7462797  33.5190630
  17.6638544  33.7564349  34.5549870  22.0881510  69.2005539  20.6591463
  21.1894798  68.8773823  20.7238197  22.4038625  68.8641930  19.8204434
  98.2200146  14.0333831  82.2855759  98.7280655  14.8321140  82.4275017
  98.7561798  13.3376980  82.6660728  80.4771042   5.0866371  85.3348064
  80.4300022   5.8604169  84.7733116  79.9592113   4.4255307  84.8755074
  33.1431079  79.5202494   6.4902949  33.5597086  78.8204765   5.9873068
  33.8105202  80.2039909   6.5476346  38.1278443 100.9184361  80.4228401
  38.1910658 101.4479160  79.6279240  38.0408955 100.0195408  80.1055813
  15.7571173  29.0154982  95.6296921  14.8822331  29.2490339  95.3194237
  16.2199485  28.7240338  94.8441505  92.3206139   6.3372695  89.9700451
  92.8963089   6.9249493  89.4807148  92.7732849   6.1960673  90.8015347
  20.6503320  51.0014248   6.6645652  20.0533032  50.9299088   5.9198010
  21.5211439  51.0477114   6.2698776  76.1642170   5.6966525  88.3081341
  76.4242411   4.7754601  88.3032131  75.4166222   5.7376885  87.7117729
  88.4814072  54.5118618  15.4607081  88.7438869  53.9210701  16.1666131
  87.8475189  54.0081787  14.9500942 117.9403019  40.2593040  16.9370186
 117.1900845  40.1061773  17.5114405 117.7599049  41.1056566  16.5279114
   1.9671395  23.9185500  71.4311600   2.1819302  24.0254879  70.5045223
   1.8302998  22.9772520  71.5382242  39.8645997 101.4164352  90.3772926
  40.4105234 100.8015060  90.8672523  40.3326225 101.5477562  89.5527077
  42.0347261 103.3507633  85.4269218  42.6011419 104.0965176  85.6250572
  41.1671448 103.6227894  85.7261467  73.2242775  81.1771297  84.4321918
  72.7066565  81.1590290  83.6272240  72.5754309  81.1417580  85.1350212
  30.2757168  60.3187323  15.5125606  30.1757050  61.1025715  14.9723518
  30.0608826  60.6096363  16.3988209  15.5785406  98.5404301   3.2642761
  15.6474161  97.7515125   3.8019428  14.7499979  98.4393787   2.7957290
  70.1250553   6.7613399  88.1685352  70.3305769   5.8352816  88.2966423
  69.7016287   7.0278156  88.9845848  69.0698671 100.1379490  74.8098135
  68.9787197 100.8733082  75.4157591  68.3180475 100.2168369  74.2226362
  35.1844573  65.0290680  16.5854216  35.7142353  64.8538065  17.3631430
  35.7251000  64.7290087  15.8547354  45.2520704  52.9838896  28.9831495
  45.7537365  53.1555414  29.7800827  45.8017445  52.3842859  28.4786057
  35.9079480 104.1830730  76.8121052  35.1942039 104.8114491  76.9214153
  36.0764909 104.1735744  75.8699083   8.6878484  45.8830214  53.9765024
   8.4314615  44.9915552  53.7403250   8.0611497  46.1413908  54.6523142
  16.8124878  46.4949274   6.5296751  17.0948160  47.2912407   6.0797828
  16.4061987  45.9640312   5.8446109  19.9305296  45.8443260  19.0445065
  20.1517367  45.9607315  18.1205213  20.1838732  46.6699505  19.4572961
  33.2442641  51.2922192  40.8292675  33.5181093  52.0100212  40.2583075
  32.6004720  51.6865158  41.4177322 112.1832085  60.6936216  10.8439302
 111.9103909  59.8020077  11.0603273 112.7211571  60.9665298  11.5871465
  52.7101421  33.1274700   9.0336269  52.6320791  32.6657104   8.1988102
  53.5930634  33.4969616   9.0213156 107.5149822   8.7997115  77.9931498
 108.0486488   8.3145213  78.6224508 106.7990208   8.2027447  77.7757311
  58.8492060  24.7991061  16.1852312  59.3538857  24.6018624  15.3961623
  58.4979582  23.9529920  16.4626253  59.5546246  71.1986828  24.6737027
  59.7214794  70.5683374  25.3744555  59.9749422  72.0052719  24.9720073
 104.2602921  54.8240185  10.7892871 104.9822140  55.4341650  10.9402037
 104.3356705  54.5877504   9.8647726  -0.1455129  10.7032013  87.0248604
  -0.2172197  11.0815787  87.9011631   0.7965170  10.6263852  86.8734837
   3.4870917  36.6100311  62.0620346   4.1415566  36.4099145  62.7312565
   3.9138421  37.2513914  61.4939022  71.0972643  81.0610580  79.8753262
  70.2966499  81.1509132  79.3584347  71.7983818  81.0166073  79.2251778
  14.7213411  41.2808704  24.5919108  15.0566638  41.9014978  25.2389097
  14.7849607  40.4283094  25.0224090  43.9856815  25.8722186  61.7902994
  43.2822704  25.6394815  61.1842632  44.3572283  25.0322819  62.0599127
 116.0393333 103.7594509  73.2172346 116.3408852 103.6446953  74.1184139
 115.1075459 103.5423565  73.2469845  85.9415245  97.4495029  54.9703884
  86.8218231  97.1164417  55.1446581  85.9876347  98.3783245  55.1970911
  88.6689186  73.1245184  62.5300217  88.2671928  72.3151112  62.2142649
  89.5660782  73.0920267  62.1979475  60.7624531  76.9419193  75.6515217
  61.0240602  76.0248089  75.7333803  60.7442427  77.2670507  76.5516281
  41.3935947  50.8503580  19.6779394  41.2082481  50.3897285  20.4962897
  41.5643978  51.7535782  19.9448776  30.0215101  61.2826633  38.0137062
  30.2278900  60.3617573  38.1736231  30.7016468  61.7655706  38.4832263
 109.4805336  27.2388792  84.3023396 108.7312317  26.7641759  83.9425850
 109.1959476  27.5094795  85.1752758  11.5825617  11.7718780  90.0934792
  11.6350567  10.8176291  90.0397682  12.4315608  12.0768499  89.7734356
  34.8101616  62.1313000  19.8746502  35.2817559  61.3235569  19.6712255
  35.4722643  62.7043152  20.2613068   5.8881962   5.2527416  93.0320072
   5.3661561   4.6655950  92.4852276   6.0382318   4.7590315  93.8382149
  72.6889086  98.2935905  86.9399071  73.1961632  99.0937519  86.8032932
  72.2628641  98.1333923  86.0978508  19.5149648  61.1144257  24.5155549
  20.3603315  60.6962013  24.6788716  19.4308019  61.1201525  23.5620785
  53.6654377  99.1775513  75.1544046  54.3817616  99.0495014  74.5325422
  52.8779268  99.2022228  74.6108532 110.0126553  40.6370735  57.3950863
 109.3745613  40.3586435  56.7381573 109.5964050  41.3789320  57.8339577
 115.1470376  18.5860247  96.2414858 115.0582576  18.4804959  97.1886994
 115.7320071  17.8766865  95.9752485 102.9827690  13.0714917  57.7474070
 102.7080631  13.6264443  58.4773350 102.2176743  12.5282109  57.5584269
  25.9874201  98.0445957  88.3750439  25.3160000  98.5085106  88.8752460
  25.5040765  97.3797512  87.8845406  77.4799728 105.5631065  63.9981031
  76.7262936 105.1889133  64.4543695  77.3425770 106.5092468  64.0446138
   0.2562033   8.8166171  90.5244160   0.0092017   9.0529597  91.4184856
  -0.1779951   7.9776943  90.3697968  30.1357937  36.3574076  13.9143026
  30.7316971  36.1519718  14.6346676  29.9122357  37.2790790  14.0438259
  23.7022948  10.1251650  91.5164757  24.4180655  10.6314659  91.9006157
  24.0949535   9.6924859  90.7582951  23.7314582  85.1817226  12.6853454
  23.8069248  85.8684254  12.0227921  24.2901707  85.4792309  13.4033692
  30.2233505  56.2710047  20.3772092  30.2615047  55.6530905  19.6471691
  29.7630548  57.0319223  20.0231433 104.8843098   2.0545028  80.0125408
 104.7294903   1.6492526  79.1592932 104.0361881   2.4226853  80.2602482
  55.4766893  77.3722649  81.8404484  55.6353951  76.5696001  82.3372078
  54.6448183  77.7030849  82.1792316  30.7812858  49.8978710   2.0480308
  29.9963093  49.5141125   1.6571680  30.5314183  50.7992220   2.2514242
  27.5388908  33.3035755   3.6538634  26.7386079  33.1828451   4.1649464
  27.2476006  33.2753372   2.7424988  44.4614601 101.1710358  93.1209755
  45.0826836 100.9843159  92.4170876  44.3811226 100.3435135  93.5952950
  41.8564367 103.9340305  89.0985775  41.8855286 103.0278492  88.7916088
  42.4873257 103.9636230  89.8178387  42.4438477  46.8023109   6.4549196
  42.2581244  46.1006784   7.0789784  42.9319477  47.4509716   6.9621015
  42.3333549  46.2391949  26.8692183  42.5164223  46.0009909  27.7780509
  42.7671719  45.5607653  26.3517594  67.0506632 110.8554742  94.0077019
  67.5810015 111.2751005  94.6851063  67.6831495 110.3817982  93.4675026
  61.8580770  92.2771549  76.1893511  62.4371910  92.8951168  76.6354227
  60.9759140  92.5541496  76.4369345   7.6608914  36.9087362  11.0049284
   7.7485549  37.8500772  11.1546814   6.7670578  36.8000984  10.6801343
  33.3753633  45.5944633  16.8943810  33.6262584  45.1572323  17.7080858
  34.2023969  45.7361364  16.4337552  80.4209137  93.2107449  76.2636805
  79.8310184  92.6727772  76.7917395  80.9975910  93.6309052  76.9017649
  30.6698680  54.7783947   2.4399725  30.4684520  54.0555143   1.8457428
  29.9967575  54.7253561   3.1184569  33.9868474  73.1623411  11.4650452
  33.3194804  73.2788134  10.7888150  33.8182998  73.8660669  12.0916188
  11.8885767  49.1935253   0.9609545  12.2159505  48.3100414   0.7920927
  12.4841046  49.5474434   1.6215000 116.0598946  78.7920237  16.3766956
 115.8635902  78.9559793  15.4542983 116.7410755  78.1197453  16.3607776
  41.3878870  73.2267666  49.9530220  40.9385395  73.1854200  50.7971811
  40.7673264  73.6676311  49.3727016  46.5825367  57.8387547   9.0163988
  46.9022179  57.4988699   8.1806272  47.2744799  57.6249981   9.6423030
  35.7282829 100.6927013  82.5940800  35.5056310  99.8230362  82.2619152
  35.5440092 101.2826633  81.8631649  47.1238422  73.3449984   4.7793600
  47.6615095  74.0218639   5.1904535  46.3720655  73.2484198   5.3639412
  37.6026130  49.0653181  16.9327962  37.0978904  49.7632313  17.3504138
  38.0502892  48.6274052  17.6567078   7.4533975  13.0073309  80.9672356
   7.4346274  12.1704984  81.4315605   7.9967022  13.5733521  81.5155697
  59.1209459  93.6487961  93.1880474  58.9581680  93.9270687  94.0893269
  58.4341812  94.0774250  92.6773071  82.8025341  16.5914869  86.3382435
  82.3715019  16.5025127  85.4882240  82.9030132  15.6924605  86.6511059
 106.0953140   6.5495223  70.7869673 105.1889515   6.2456012  70.8357334
 106.5012646   5.9873658  70.1271105  19.0876377  38.8838911   9.6563560
  18.8150632  38.4685731  10.4745531  19.1639912  38.1603670   9.0343285
  60.4048395  73.4333801   8.0918872  60.4438686  72.4805927   8.1749731
  61.3210487  73.7091970   8.0650979  52.7322149  95.5112267   0.5683289
  52.3002720  96.2861824   0.9276319  53.6651659  95.7238579   0.5932247
  34.6940064  96.5986347  22.2811747  34.0525556  96.7933655  22.9644418
  34.8526573  95.6581974  22.3626065  94.2012596  19.9257791  90.2093506
  93.2845116  19.7946537  90.4514599  94.4628906  20.7163763  90.6812954
 102.7098274  24.4908166  74.1977930 103.6215019  24.6083307  74.4647694
 102.7230358  24.5981717  73.2467222  37.5852251 105.2430153   0.3577827
  37.1522832 106.0900021   0.2510363  36.9985652 104.6186638  -0.0691199
  31.8277383  65.3282976  11.0854864  31.8458557  65.0625849  12.0048881
  31.2342834  66.0790396  11.0647905 111.6067886   6.6053933  75.2475500
 111.2453556   6.3894182  74.3879271 110.9619331   7.1959054  75.6370211
  47.9373312  53.7344646  20.0371170  47.7034616  54.6622086  20.0083423
  48.4896851  53.6506987  20.8143711  70.2627277  63.8786745   7.8055310
  70.8064461  64.1789913   7.0772368  69.5813608  64.5460320   7.8868300
 109.9546146  15.4441583  78.6541653 109.7590446  16.3552403  78.4352779
 109.1110039  15.0738037  78.9137650  25.1049244  54.2628387   0.6181020
  24.6312344  55.0338939   0.3061265  24.4184935  53.6345771   0.8424444
  53.6813545  37.8428650   7.6049966  54.0625477  38.6606479   7.2853786
  53.8408852  37.2133279   6.9018137  18.6530721  75.0720263   5.2162862
  18.9434171  74.2863417   5.6795681  19.0977240  75.7919741   5.6637192
  44.6918774 110.3288651  76.5127182  44.2022419 109.5925236  76.1462688
  45.2015209 109.9459648  77.2267818  39.5770168  43.7883377   9.5102495
  38.6473918  43.6993027   9.7202569  39.7798777  44.7033978   9.7045326
  88.1287384  30.4843760  75.5450392  88.2384586  31.4089251  75.7673025
  87.8392792  30.0747633  76.3603067  48.6121750  99.1877937  94.4510555
  49.2244911  99.2619991  95.1830292  47.7492762  99.1494751  94.8635769
  72.1082973 100.0362206  73.3678055  71.3492107  99.4626236  73.2629013
  72.8247499  99.4453526  73.5997581  55.7950974 102.6306152  90.5492020
  55.4261017 103.1899452  91.2327385  56.6968107 102.4733829  90.8292389
 114.8783302  21.1978459  51.5407228 114.4508553  21.3619781  50.7001591
 114.3235779  21.6415954  52.1822500  36.2430477  84.5285225   3.4891498
  36.1041594  83.6023045   3.6867920  36.1589026  84.5855618   2.5373632
   4.7483423  51.8693590   6.4780593   4.8199239  51.0662556   6.9939393
   3.8100088  51.9672680   6.3162696  78.1850910  99.3749619  52.1107578
  77.5601864 100.0683308  52.3227978  77.6400757  98.6119461  51.9183969
   7.4209410  42.5497341  18.9508939   8.1494302  42.5941277  19.5702195
   6.6879904  42.9556513  19.4137621  58.6160183  43.1443357  10.7267284
  58.8906336  43.8932323  11.2558520  58.7880945  43.4127760   9.8241985
  31.5333176  91.7463017  21.4570856  32.0238400  90.9667969  21.7178345
  32.1974206  92.4306870  21.3744903 106.7435551  25.3700304  63.3115053
 107.4856758  25.2302408  63.8996792 106.2398052  26.0716486  63.7240696
  27.2815251  45.5128002   1.2239572  26.5105414  45.1221037   0.8126549
  27.3804545  45.0365210   2.0483366  76.8384600  52.7781534  15.2479553
  77.5152063  53.2407045  14.7536898  76.0174465  53.0355167  14.8285198
  39.9787045  79.0402079  14.3206251  40.4787111  79.1649628  15.1272619
  40.5175257  78.4500980  13.7936795  89.3302631  74.6744728   6.3811362
  90.2604485  74.8188925   6.5547121  89.2954731  74.4190502   5.4592997
  91.2207603  96.9666290  66.7996931  91.9810486  96.6133690  67.2616482
  91.5753555  97.6734066  66.2602854 111.4464092  16.4040947  85.8337593
 111.7164230  15.4889560  85.9102345 112.1162605  16.8922639  86.3125420
   8.0150676  30.2864361  91.6762829   8.2431132  31.2160707  91.6791248
   7.1517587  30.2503395  92.0881367   5.1424652  10.2918756  90.2355194
   6.0712576  10.1155114  90.3854275   4.6905854   9.7863221  90.9111309
  87.6790506 111.2656470  89.4316292  87.0041901 110.7697130  88.9681149
  88.2137681 110.5983160  89.8617172  22.2116590  25.4608607  56.6502047
  22.1638727  24.5465326  56.3710070  22.3613620  25.4154205  57.5945330
  28.1524658  14.3580532  62.1038246  28.9845490  13.9231014  61.9175863
  28.1270981  15.0969398  61.4958477  33.7261581  24.6999478  10.9133601
  33.8240194  23.8525391  11.3475847  32.9482174  24.5995450  10.3647649
  76.9708681  91.5229702   5.2886158  76.6809893  91.7102432   4.3957940
  76.5414476  92.1896744   5.8246624  28.9427423  33.0744004  77.5200081
  28.1046104  32.6396942  77.3625469  29.3863201  32.5154543  78.1580162
  33.6666393   9.1401976  83.4746647  33.2757521   8.2676840  83.4282017
  32.9195642   9.7334784  83.5529518 106.3443113   6.4454360  95.3272570
 106.2735916   6.1783929  94.4107861 105.5402041   6.1221928  95.7336494
  30.9135485  23.8836098  81.3314724  31.2863946  23.0870128  81.7091656
  30.7280755  23.6529994  80.4211712  14.9575710  66.6154766  45.1950264
  15.4429209  67.4389410  45.2457476  14.1590774  66.8372059  44.7159910
  43.3086252  62.1959543  12.8952920  42.4014759  62.3786831  12.6504993
  43.5000181  61.3497353  12.4909174  36.6448903  13.4507596  72.2900486
  36.4460850  12.9193377  71.5191412  36.3912368  14.3393159  72.0403290
  42.2271729  42.6108885  52.9321766  42.2300053  41.8632793  52.3344278
  43.0655766  42.5542402  53.3905411 109.3689156  90.6282139  66.6900158
 108.7983799  89.9579525  67.0661306 108.7675571  91.2757683  66.3222361
  34.6568584  22.2449303  92.4690437  34.3449950  21.8830943  91.6395569
  33.8872695  22.2371483  93.0381680  14.3411875  20.6934071  72.8448772
  14.3611503  21.2690902  72.0804024  14.5250821  19.8222196  72.4935293
  46.2413836  92.5576591  17.1194887  45.6754351  92.9653835  17.7750039
  46.8954897  92.0812702  17.6307881  12.8653109  11.6286898  84.4333649
  12.2564900  12.2312629  84.8605347  13.0361581  10.9545696  85.0910854
  68.1474829  81.0778332  40.0580406  67.9207325  81.8013287  40.6423140
  68.2810593  80.3312397  40.6419802  25.7585359  85.1992798  79.1873360
  24.9773765  85.7483959  79.1203451  26.0121679  85.2549744  80.1086426
  39.4770527  10.1267433  67.6028156  39.5594573  10.2089882  68.5529089
  38.6016846  10.4616761  67.4084377  68.2427454 102.3724365   6.4962912
  69.0350437 102.6276684   6.9688898  68.2364130 102.9319096   5.7196474
  23.6489153  25.3236127  72.5299263  23.2794619  24.4463325  72.6305103
  24.4798279  25.2893591  73.0038929  63.7159204  64.9369144   2.4195713
  64.3199492  64.2342520   2.1794797  63.5286713  65.3842115   1.5942872
   5.1834714   8.3148605  80.3180981   5.3697062   7.8693378  81.1445713
   4.3123534   8.0052251  80.0700760  62.1355772  66.4372158   4.1304809
  62.6710320  65.8956099   3.5506678  62.0298576  67.2625446   3.6573100
  32.7430201   7.7471423  70.6485319  32.0776105   8.0767751  70.0445414
  32.2437525   7.3270142  71.3488579  20.1662016  17.8733206  44.1070461
  19.3855858  18.3393800  44.4064808  20.3147697  18.2002997  43.2197809
 106.3369370 100.8912945  73.1507635 106.8242455 101.2285709  73.9024353
 106.8695068 100.1651096  72.8263330  51.5866756  27.5835538  78.9621592
  52.3678064  27.6991153  78.4211302  50.8664942  27.5273991  78.3341265
  24.9243093  14.1023099  83.0338287  25.1531029  13.2741737  83.4558105
  24.0677738  13.9409065  82.6381874 114.8085213 101.0052109  95.5622578
 115.0520802 100.8822441  96.4797497 114.1342163 100.3447914  95.4028702
  30.7821870  54.1290379  83.1628990  31.0730147  55.0088167  82.9228210
  31.5923047  53.6398554  83.3065891  96.3761616  68.5431290  84.9474335
  95.8870792  68.3517885  84.1471672  96.3320255  69.4954586  85.0331879
  34.6657157  30.5784225  64.5600033  34.0658665  30.8096337  65.2691984
  34.2717528  29.8055053  64.1554976   5.8904874  30.7084107  57.4129486
   5.2181810  30.4028058  56.8039799   6.3677150  31.3799334  56.9255638
  28.7101841  42.5264263  71.0761023  28.3003402  43.0411243  71.7713356
  29.4706154  42.1221733  71.4938974  98.5201168  84.3291569   6.0584193
  99.2984009  84.1081619   6.5699518  98.5273361  83.7074375   5.3306556
 115.3049660  42.9862547  89.4357586 115.6895828  43.4732866  88.7069893
 115.2023315  43.6364555  90.1306915  60.0669384  63.7964106  13.8928688
  59.7700214  63.6832476  12.9899466  59.5782995  63.1401968  14.3897057
  21.1736512  31.0330725  68.9889193  20.9615374  30.7557821  68.0976534
  20.7018924  31.8582749  69.1016912 103.5427570 110.1533890  73.8391495
 104.2989349 109.5865250  73.9910984 102.7895927 109.6226883  74.0986204
 110.4044533  26.0093093  79.1856050 111.0862446  26.6198158  78.9051294
 109.9007797  26.4960098  79.8380423  18.4029603  29.5678854  89.8036480
  17.5483835  29.9699092  89.6477413  18.9357638  30.2728653  90.1715469
  67.3966551  88.4879398   7.4158031  67.5005722  89.4390965   7.4426270
  66.4763165  88.3538342   7.1894729   8.9120638  18.6440992  81.7893505
   8.7654418  19.4628012  81.3155842   9.7492731  18.7721074  82.2353649
 101.0833836  21.1097169  73.0609560 100.8578873  21.7683792  73.7178755
 102.0177650  21.2416291  72.9004478  29.0756345  38.0258489  95.7107353
  29.5028853  38.8741159  95.5918598  28.2887220  38.0758786  95.1680565
  29.2288089  79.9774456  14.8341322  29.4027734  80.7425499  15.3823853
  28.2821560  79.8494530  14.8949659  32.3681688   6.6570538  83.1104374
  31.6357994   6.1313760  82.7886772  33.0589676   6.0197616  83.2917881
  50.0541306  72.5094800   0.5938692  49.3776083  72.0415490   0.1043863
  50.6757236  72.7992432  -0.0738841  43.3790445  71.6810036  18.2288957
  44.1253996  72.0789766  18.6770070  43.2656574  72.2081232  17.4379969
  28.5381603  19.6981525  64.7172356  28.4055829  19.7642171  63.7715626
  29.4521928  19.9499118  64.8491144  25.0385475  35.2141237  34.1480088
  24.0816331  35.2372432  34.1440558  25.2905631  35.5839920  33.3018899
  93.9627552  99.3441010  67.3180151  94.6125126 100.0422859  67.2368240
  94.3803978  98.5806847  66.9192648 118.3156877  40.3474045  67.5513744
 117.9527692  39.5178056  67.2410727 117.7445093  40.6026554  68.2758284
  57.1263885  78.6904621  15.1166070  58.0008125  78.3124685  15.2100575
  56.5320730  77.9860401  15.3750873  30.3481627  43.6578321  77.8357220
  31.1384678  43.2000446  78.1222248  30.2204823  44.3465185  78.4881353
 100.5358887  98.4010220  84.3802547 101.3154507  97.8458786  84.3988323
  99.9374676  97.9946423  85.0071335  30.1890826  37.4538088  76.6921186
  31.0175514  37.8493309  76.4211226  29.9213433  36.9216418  75.9428883
  11.9599664  23.3294034  80.9050274  11.9283926  22.5384355  81.4431763
  12.6717973  23.8469362  81.2814426  38.6565614  80.2727890  18.8546765
  39.5551109  79.9567699  18.9494252  38.7269425  81.0204124  18.2610965
  46.5324879  41.6137171  89.4966984  46.5583324  41.5904617  90.4532623
  45.7143497  41.1723900  89.2683983  24.4001055  37.2928858  74.4329166
  24.1343760  37.1217322  75.3364277  24.9162054  36.5256071  74.1856146
   1.2409047  25.8959317  51.4343882   0.6491870  26.3764381  52.0133638
   1.0451253  24.9743032  51.6032076 106.0153961  16.4484358  76.2308693
 105.6009674  15.8594990  75.6002855 106.4466572  15.8653545  76.8555737
 103.9684486  32.6516700  68.0316401 103.3063793  31.9826627  68.2057953
 103.4731007  33.4683585  67.9693651  24.6834302  40.9138393  78.9632750
  24.9604940  40.1673698  79.4945431  24.2703962  40.5205441  78.1945372
 103.8838005  98.2021809  74.4000483 103.4009361  97.4949837  73.9723206
 104.0785599  98.8197422  73.6951256 109.1473007  18.7290180  80.4798985
 109.9690247  18.8983631  80.9406853 108.7079239  19.5790100  80.4535103
   4.3903631  61.7559052  42.5969553   4.2498529  62.0209122  43.5059404
   5.3069890  61.9705343  42.4238586  60.0453281  73.9644384  31.1513305
  59.4267511  74.1135645  31.8664241  59.9026632  73.0526114  30.8974671
  87.4546337 102.3446655  54.7723007  87.0137787 101.5087795  54.6200609
  86.7439365 102.9625702  54.9435616   3.6051244 110.4253292  44.0045261
   3.9917809 111.0520744  43.3930349   2.7407163 110.2364922  43.6393213
   4.5592454  29.3896890  87.8668118   4.6706659  29.9768353  87.1191025
   5.3552085  28.8580751  87.8745842  24.4248962  53.9504957  93.1704712
  24.5814872  53.1944656  93.7362671  23.7953258  54.4852686  93.6540890
 114.9300385   2.9948848  93.7274075 114.4692135   3.2360470  94.5309734
 114.5879173   2.1288146  93.5058212  74.5375443  83.5863686   9.6517122
  74.8827982  83.8718414  10.4976070  74.7779751  84.2874336   9.0459591
 115.5271721 102.3587990  86.2057209 115.5394459 102.9316521  86.9724846
 116.4507675 102.2125340  86.0012245 100.9212685 106.2095070  82.4000931
 100.5077934 106.0582161  81.5501690 100.3267956 105.8039188  83.0312347
  16.2166727  35.4044032  81.8013477  15.9843016  34.6213317  81.3023186
  15.5452001  36.0453176  81.5677166  33.8636637  39.6802616  54.3079758
  34.3449736  40.3287792  53.7941694  34.3007207  39.6770692  55.1595640
 109.5443058  34.4180083  81.8252563 110.3880501  34.3930721  81.3739204
 109.3214417  33.4980321  81.9674015  15.0089192  30.2131248  79.3434381
  15.6044209  29.5377970  79.6683073  14.1367781  29.8314095  79.4429159
   7.9314858  34.7470379  60.4661179   7.8650767  35.0407863  61.3747072
   8.2869756  33.8603497  60.5264425  35.0889301 100.6274223   0.8893870
  35.4496360 101.3915539   1.3390857  35.8033633  99.9903870   0.8889795
 104.0999031   6.9856489  89.3317318 103.6385822   6.8806666  90.1638317
 104.5713902   6.1610472  89.2135620  79.1235733  75.5786896   3.5298195
  79.2243338  75.2429485   4.4205254  78.8181257  76.4783669   3.6461017
  88.1989765  59.0728045   7.0238912  87.3500252  59.1047335   6.5828687
  88.8342571  58.9790487   6.3140595  71.1872864  86.5235138  18.4341121
  70.7327318  87.2604465  18.8422143  71.0106230  86.6215801  17.4984813
  28.8473439  43.9300680  82.5269127  29.4282579  43.2721710  82.1448898
  28.4117913  43.4753323  83.2478428  42.1013260  34.8773193  63.9247704
  41.2980175  34.5789027  63.4983063  41.9206524  35.7855225  64.1671705
  36.6533184  83.1557560  26.9061732  35.8679581  82.8068733  26.4846039
  36.8183041  83.9845943  26.4567018   8.4026200  67.6702118  75.4203558
   8.2573688  66.9991922  74.7533703   7.5251395  67.9827929  75.6407022
 106.5905858 111.0817320  88.1858158 106.4090324 111.9604599  88.5191441
 105.9744001 110.9680090  87.4621964 112.4072742  43.7065744  69.1184473
 112.0265865  43.3850765  69.9357271 112.2416210  44.6492386  69.1315937
 107.4038506  75.0993776  86.1149597 108.2762432  75.3730440  85.8316231
 107.2751522  75.5410051  86.9543839  43.2846975  57.8191471  10.1083672
  43.4172010  57.4852753   9.2211223  42.3884058  57.5652647  10.3284454
  38.1318188  76.0113382   3.0616131  37.4467587  75.3686142   2.8776824
  37.6581216  76.7869711   3.3620054  66.5623140  72.2668076  13.7008297
  66.9862652  72.8956413  13.1168246  66.5308619  71.4543343  13.1957245
  65.9544373  92.1204376   9.4140363  66.8942022  92.0432663   9.2493534
  65.5648851  92.2045994   8.5437512  34.0341949  36.5425968  31.9829893
  34.3005705  36.4825201  32.9004121  34.7591400  36.9955468  31.5522647
   3.4112555  70.3292418  84.7357178   4.1290015  70.3803444  84.1044807
   3.7094679  69.6938610  85.3865623  19.0627694  11.6877413  60.1126194
  18.8599920  10.7525098  60.1339579  19.9282646  11.7359614  59.7066355
  91.0106468 100.3687191  26.8514705  91.9410801 100.5869198  26.9053984
  90.9206104  99.5725250  27.3751044  40.7747459  25.8290648  47.0111036
  40.3251982  26.4480114  47.5864697  41.6680670  26.1668921  46.9472027
  38.7731075  32.6428008  65.3051090  37.8714657  32.6350307  64.9838400
  38.8749504  33.5031629  65.7120895  33.3156657  40.3533316  85.7843304
  33.6048889  40.1302910  86.6691113  32.6961541  39.6612072  85.5532455
   8.4097987  33.6234093  74.1031456   8.5052490  33.4242606  73.1717682
   9.0093720  34.3540478  74.2545176   9.5398337  18.6327064  70.8732224
   9.2736804  19.3900776  70.3518915   9.1811031  18.8033891  71.7440891
  30.6862211   6.9148201  78.3998251  30.0568342   7.6203841  78.5491037
  30.8303094   6.5350372  79.2665625  91.9788837 108.7999344  72.7204180
  92.4377632 108.4981346  71.9364643  91.2240887 108.2161331  72.7957964
  10.9531748  44.7440386  58.5034275  10.0390685  44.5973349  58.7465715
  11.2505138  43.8982582  58.1680536  11.8992925  61.9704199   4.7389555
  11.8221307  61.7708206   5.6719285  11.9724882  61.1147499   4.3162203
  69.2663479  64.4247580   0.6481289  70.1939297  64.3771076   0.8795568
  69.1409540  65.3240728   0.3452474  20.1899433  60.6777859  90.5575657
  19.9643362  60.5495644  91.4789200  20.4156566  59.8026609  90.2422142
  35.0893259  31.0260510  74.9934816  34.7784591  31.8876052  75.2715445
  34.3409920  30.4453850  75.1315212  30.1016331  42.7909946  62.1283722
  29.1968274  42.6557970  62.4099398  30.1428485  42.3965693  61.2571907
  36.5972328  48.3891726  64.5719194  36.2577844  48.0512905  63.7431574
  36.9343328  49.2586374  64.3560028  50.5251122  20.8167815  72.2652817
  51.2746096  20.3890753  71.8511009  50.8482456  21.6846728  72.5073147
  10.4205406   7.9869390  74.4069815  10.2737463   8.7290365  73.8204861
  11.3726366   7.8952384  74.4435501  33.0861306  57.5679398  88.8764095
  33.5563731  57.5559568  88.0427647  33.3617973  58.3833265  89.2951965
  37.5868034  77.2990465  28.1285214  37.8483009  77.2749186  27.2080493
  37.5097489  78.2313490  28.3312631  86.4235878 102.9001045  66.3362503
  86.0937309 103.6823082  65.8939934  87.1006870 103.2273579  66.9284248
  -0.0028604  53.5241032  53.8743925  -0.0363104  52.5729799  53.9767456
   0.2227501  53.8509321  54.7453213  11.5761089  57.7249289  73.3477449
  10.8813989  57.5998402  73.9942455  12.3645258  57.3910904  73.7757492
  37.4703407  13.7993705  50.0135374  36.5382862  13.8197803  50.2305412
  37.7608514  14.7052288  50.1196289  28.5044527  56.2534285  84.2160034
  29.4353461  56.2550068  84.4388580  28.0558896  56.2927341  85.0606728
  53.4387970  89.3640804   0.4177463  53.2374144  90.1529884  -0.0855406
  53.8274479  88.7656593  -0.2202765  45.6957197  24.5286417  82.4417305
  45.7819510  25.3811765  82.8683281  46.4232349  24.4970059  81.8204880
  19.0777028  59.6009302  58.0812597  18.7729847  59.4166994  58.9697599
  18.4388578  60.2229404  57.7331018  93.0836487   8.3270746   5.9411633
  93.0861950   8.4491116   6.8905485  93.0165291   9.2133808   5.5859321
   9.4364405  70.4680252  75.1149750   8.9842188  69.6560955  75.3440952
   8.8453609  71.1619997  75.4069567  28.8914871  44.2646551  75.5526400
  29.6222425  44.0502071  76.1325026  28.1239533  44.2648125  76.1245918
  44.1167831  35.2413774  58.2343054  44.1659880  34.7940540  59.0791225
  44.8572636  35.8479023  58.2409525 100.0431538  47.9146719  57.4207067
 100.1825619  47.1281910  56.8932199  99.3835258  47.6572609  58.0648041
  18.4194851  60.0317764  83.9217091  18.6231852  60.2220154  83.0059910
  18.0549073  60.8492947  84.2608070  74.3425369 111.0139751  10.2854407
  73.4361887 111.2856388  10.1406360  74.2741776 110.1184559  10.6165028
  14.8695159  52.0650291  71.6598701  15.0438118  51.4315128  70.9638023
  15.2569711  51.6734362  72.4426603 111.1892319  44.0482378  78.9282894
 110.4230881  44.3433046  79.4204283 111.9363499  44.3375158  79.4520807
  12.3396289 105.8031273   5.2199727  11.5999043 105.6617928   4.6291563
  12.0700014 105.3956413   6.0430717  21.3654995  11.2728202  91.4566135
  22.2096968  10.8226919  91.4873505  21.4520574  11.8951738  90.7345200
  89.4439697   3.3879831  16.2400055  89.2195892   3.7987980  17.0749390
  88.8903522   2.6081333  16.2003493  12.6224923  12.9197896  69.9995852
  13.1856322  12.2357285  70.3617525  13.2068729  13.4482157  69.4559908
  27.0452976  35.3788352  80.8630753  27.5497198  35.2342343  80.0625324
  27.6157951  35.0664639  81.5653515  37.0587230  12.4207950  85.3583431
  36.3779712  11.7937553  85.6025410  37.3992658  12.0926058  84.5261383
  40.6598043  36.8028426  65.3612375  39.8248959  36.3634539  65.5227804
  40.4221201  37.7149463  65.1944923  49.5911074  47.7330303  70.6747389
  49.7009993  48.5478449  71.1648703  49.0100670  47.2022629  71.2196302
  33.4898281  12.5516331  78.0433655  32.7736259  12.8004622  77.4590921
  34.1321826  12.1332383  77.4701691  80.0091493  93.1250625   0.5786962
  80.1030910  93.7481838  -0.1418143  80.3211534  92.2945600   0.2193231
  48.7649107  34.2509937  83.1901836  47.9742765  34.2962670  83.7278461
  48.5615635  33.5988379  82.5196838  85.0154877   0.0873873   4.2140982
  85.2906132   0.8979195   4.6425539  84.6682930  -0.4528338   4.9239221
  16.3212347  20.2334118  83.5742378  16.0565519  21.1400819  83.4189224
  16.9760084  20.2908993  84.2700768  36.4092398  32.0536923  57.1216297
  36.8187904  31.1955023  57.2312212  35.6711769  31.8935180  56.5335512
  48.1814194  87.5476360   8.3972573  48.1210375  87.1812057   9.2794800
  48.9203835  88.1545353   8.4400421  70.7037926 103.3524323  19.9216545
  71.2986469 102.7802563  20.4064202  70.9736156 104.2384338  20.1633763
  34.0408301  13.4294319  64.2399311  34.5074940  12.5941515  64.2123222
  34.1121459  13.7136292  65.1511812  97.2236252  12.6386237  52.0609665
  97.5912952  13.0572069  52.8393221  96.2761497  12.6859379  52.1885395
  38.1278324  46.0099268  62.4913168  38.6942673  46.0867596  63.2590914
  38.1362009  45.0763893  62.2799635  33.0761957  35.5710602  86.8806267
  33.0339837  35.8131838  87.8057289  33.5618830  34.7462893  86.8708324
  26.0080981  15.1662886  70.5675936  25.5335736  15.7306659  69.9572325
  26.9315338  15.3235614  70.3707075  86.7052078  53.3966017  92.3793221
  87.4244213  53.9617920  92.6613140  86.0318470  54.0023375  92.0696449
  20.6443977  30.1005983  65.4309559  20.3822517  29.4134808  64.8182726
  21.4696264  30.4337263  65.0784636   1.7902164  42.4777317  69.9078751
   2.5517160  42.6047564  69.3419981   1.3246931  41.7366314  69.5202065
  15.8160281   9.1338402  75.6296539  15.2369797   9.4666094  76.3153648
  15.8402407   9.8330820  74.9764252  27.8102970   4.4797355  78.7454033
  26.8787169   4.4192702  78.5339022  28.2225895   3.8046709  78.2063913
  15.6815243  29.9984455  82.3662090  16.3402820  30.0092649  81.6718292
  16.1652565  30.2304959  83.1589127   1.2775859  53.7523794  49.0015697
   1.9200008  53.6534691  49.7042465   1.7924911  54.0287113  48.2434511
  44.5951414  46.5897846  71.2564135  43.6765146  46.7244434  71.0235405
  44.9980354  46.2522745  70.4564142 111.5274715   9.3791974  48.5438919
 112.3898888   8.9914012  48.6924791 111.1347866   8.8354391  47.8609896
  26.6402173  56.6310263  92.5330067  26.5123749  56.0853958  93.3090115
  25.8648396  56.4687300  91.9957161 113.5396004  69.6605825  79.0495920
 112.6653957  69.2777491  78.9758015 113.3945751  70.5104399  79.4654512
  25.8621359  45.6332111  82.7245045  25.1504517  46.1379910  83.1181335
  26.2680435  46.2366390  82.1021366  46.2289047  37.2929573  95.7217026
  46.2744856  36.8804526  94.8591518  45.4358053  36.9322562  96.1180878
  70.8657646  84.2781162   9.6388119  69.9381733  84.2971802   9.8742729
  70.8897114  84.5901585   8.7342179  44.0693045  11.1596704  50.4589128
  44.2637491  10.2925861  50.8147049  44.8957682  11.4515567  50.0742149
   2.1990784  17.5604057  79.8725700   1.8499932  16.9498479  80.5218697
   2.1804193  17.0715928  79.0498066  56.3952637  53.4619093  42.9551935
  56.5914965  54.1504908  42.3199129  56.3894606  53.9106512  43.8006687
  65.0216770  33.5803556  87.3142147  64.9405432  32.7205372  87.7269650
  65.7991219  33.9670253  87.7170753 101.8301582  28.2154512  79.6440363
 101.5560913  27.3330235  79.3941498 101.0327625  28.6294127  79.9742222
  75.0486135 101.3486290  92.4050426  75.5787802 100.9184551  93.0759430
  75.4141569 101.0394096  91.5761948   5.4190284  29.9425292  80.7371616
   6.3561964  29.8018789  80.8719444   5.3441048  30.1902342  79.8156118
  79.9965191  69.8344803  30.6610465  80.2625275  69.1535091  30.0431848
  80.7608318  70.4064894  30.7307196 103.9243984  35.3462338  44.9332285
 103.4523201  34.6087980  44.5464945 103.4030724  35.5896783  45.6982040
  98.1985283   2.2610921  31.2699652  97.2773170   2.2210787  31.0130334
  98.5740852   1.4435953  30.9430361 117.2966003  23.9485526  91.9274330
 118.1564617  24.3467283  92.0628548 117.3166466  23.1500793  92.4549484
  43.2303238  37.2839761  79.3499041  43.0076647  36.4291525  79.7185898
  43.9021015  37.0946598  78.6948395  93.9782143  98.6602974  15.1941991
  94.6738529  98.9969635  15.7589853  93.3991337  98.1813049  15.7870400
  45.9786510  42.6199770   2.6537022  46.6393375  42.7190208   1.9682004
  45.1783085  42.9765558   2.2682950  83.5035038 107.6171875  79.4156075
  84.2489147 107.9350567  78.9061356  83.8856411 107.3278046  80.2441406
  25.5365872  56.5831184  76.5062284  24.7336507  56.4183903  77.0005894
  25.2666783  57.1695757  75.7995129  80.7586956   4.5259491   0.2937305
  81.0082626   3.7451434  -0.2005300  81.3846207   4.5617664   1.0170347
 113.9809990  30.9790468  49.4430876 113.5163403  31.7846990  49.2166948
 114.9066830  31.1988807  49.3381691  19.3030024  15.7933009  45.4502964
  19.6665740  16.5949285  45.0742149  18.8567126  16.0830176  46.2459898
  58.6546659  32.1856737  94.4267368  58.6197090  32.8416800  95.1229191
  58.3633423  32.6521039  93.6432838  87.7205181  82.9314137   4.2230049
  87.1490955  82.1928310   4.0127519  87.1370602  83.6901665   4.2337438
  33.1891251  61.7839193  12.9315519  33.9315391  61.8924856  13.5259151
  33.3816361  60.9778261  12.4526072  63.8252592  67.5670242  37.9482174
  64.2626524  66.9577122  38.5429096  62.9319286  67.6315880  38.2858992
 114.3044186   9.3545979  80.1452351 114.0877247   8.8363600  80.9202862
 113.5761642   9.9694932  80.0569725  79.9809027  78.2709217   3.2363054
  80.2924061  77.8691912   2.4252491  80.7607651  78.3327436   3.7878725
 102.9869843 101.9349670  95.0155640 102.0660305 102.0089054  95.2657795
 103.2550240 102.8329468  94.8205376   7.2567505  42.4320364  96.4207649
   6.4556676  42.1902466  96.8855572   7.0090950  43.1940365  95.8970737
  32.7171302  26.6945648  61.9120789  32.5023293  26.1722326  62.6849079
  32.0577741  27.3883653  61.9010830  14.4985890  44.9728394  81.7959404
  14.9251270  44.1323137  81.9626999  14.8467076  45.5560684  82.4703884
  29.2880511  38.9652419  78.8229084  29.6790099  38.2017589  78.3980846
  29.0902877  39.5646620  78.1033134  10.9772062  30.8738017  68.4359169
  11.2911439  31.5732694  67.8628397  10.0299752  31.0051894  68.4774303
  30.5975962  36.0829425  73.4797812  30.8791184  36.7896581  72.8988075
  29.8738337  35.6640029  73.0140686  44.0914869  80.8339596   6.4447272
  43.8789749  81.3183498   7.2424930  44.6825647  81.4128399   5.9633136
  29.8183274  10.1163626  70.7395983  30.0199008  10.0512111  69.8061371
  28.8630342  10.1648724  70.7755280  17.2791708  53.4052086  90.2004337
  16.7629635  52.6002789  90.2434158  18.1809354  53.1055689  90.0852394
  35.3114104  59.9193859  69.3525887  36.2263155  59.6395445  69.3820190
  34.8324347  59.1423845  69.0643454  55.7350779  50.4548407  94.2181492
  55.4945707  49.9666405  93.4307098  54.9621773  50.9829950  94.4179153
 114.6208477  49.9727488  90.9278488 115.5377007  50.1514721  90.7188702
 114.4875240  49.0629578  90.6618786  35.3744149  33.3428359  44.8883533
  36.1451006  32.8079414  44.6981907  35.3007317  33.3260441  45.8425665
  17.9316235  20.4979157  91.0416985  17.8085184  21.4171767  91.2784195
  17.2144151  20.0396776  91.4797211   5.2597302 106.1073971  66.4828873
   4.3826431 106.2025833  66.8542194   5.1451987 106.2853146  65.5493641
  10.5204475  11.1244118  86.8259621  10.7757831  10.6726015  87.6302719
  11.2268841  11.7508268  86.6685390  18.2829106  48.1388235  70.0778484
  18.2260168  48.2501793  69.1288519  17.5558650  47.5551414  70.2945280
  77.1239614  61.9310474  16.2451494  76.8773794  62.8258085  16.4793146
  76.3355160  61.4141846  16.4108014  24.6449161  33.4486556  71.3695860
  24.6160817  33.8791680  72.2240210  24.4348955  34.1425371  70.7445621
   7.5526059  37.3483634  65.2064085   8.4330249  37.2499871  65.5689192
   7.0237774  37.6570916  65.9421110  32.1865344  13.8762832  79.9562597
  32.7916336  13.2878637  79.5047665  32.2377610  14.6959078  79.4645071
  83.6659718  37.2623897  82.6823521  82.8420830  36.7925477  82.8115082
  83.4186077  38.0517149  82.2006798   4.3346018  45.3959942  72.0648241
   3.7199372  45.6906939  71.3928318   3.9563411  44.5808506  72.3944998
  60.3595543 109.3768787   6.6563773  60.3863573 110.2466774   6.2576699
  61.1007500 108.9123058   6.2677467  18.9480805  97.7131653   6.0160387
  18.9702141  96.9532299   6.5976250  19.5420575  97.4849033   5.3009731
  37.2227907  24.2521334  72.1293163  36.2716579  24.1454029  72.1429777
  37.5322533  23.7377977  72.8749228  60.9319830  31.9576216  75.9125280
  60.3931522  31.1704230  75.8336926  61.2952328  31.9116473  76.7969322
   5.5177057  48.0865383  91.3292313   6.1190242  48.2252836  92.0609379
   5.1695454  47.2059250  91.4690018  37.1634483  16.7189741  72.0824814
  38.0442023  16.4161980  72.3034525  37.2648096  17.1526825  71.2352228
  11.3562131  54.3215275  89.2034626  12.2670650  54.1353703  88.9755917
  11.3748372  55.2105618  89.5577335  18.6932647  23.0704498  73.0718136
  18.5470974  22.2586966  72.5860977  19.3101740  23.5647535  72.5320721
   4.4347736  44.4872427  86.3138390   3.7206000  45.1073456  86.1666584
   5.1103407  44.7469044  85.6874084  25.9571385  41.1771917  56.0175562
  26.4297485  41.3052034  56.8400478  25.8828473  40.2269602  55.9293985
  68.6231804  91.4943981  20.2190733  69.3714905  92.0844173  20.3092837
  67.9921436  91.9864655  19.6938229  58.8159132 106.3621044  12.9176271
  58.7411070 107.3027039  13.0785847  58.5852528 105.9569645  13.7536216
  74.6267509  81.6991329   2.0817722  73.7834835  81.2630367   1.9594628
  74.6814585  81.8546009   3.0246764  32.3913145  44.0878105  63.5666990
  31.7383862  43.6871243  62.9927969  31.8888259  44.4024229  64.3182039
  78.1143225  99.4782214   0.4987020  77.3985493  99.1569476  -0.0496512
  78.8748658  99.4892173  -0.0824099  66.2819386  37.4230599  93.8341618
  67.1642351  37.1425772  94.0773010  66.3574266  37.6816845  92.9156590
  73.5083818   1.3708189   9.4345450  73.0725431   1.9200192   8.7828875
  73.7100792   1.9680974  10.1548266  35.1388049  34.2066050  71.7417049
  34.5102859  33.4859037  71.6994572  34.7079229  34.8688054  72.2821331
  22.1551514  45.8179522  75.7579803  21.6595960  46.6232586  75.9067535
  21.5126681  45.2034330  75.4032803  72.7867317  23.8995743  93.2379913
  72.7530384  23.7661934  94.1852570  72.3262072  24.7266197  93.0960464
  58.5772943  78.7656546  20.3513527  57.6490307  78.8386774  20.5732250
  58.9118767  78.0894279  20.9404206  57.6114035  64.5888472   2.8024417
  58.3498192  65.0123882   3.2401481  56.8469763  65.0939274   3.0795297
  49.5551968  40.2150154  62.5644493  48.8814068  39.5893550  62.8305101
  50.3719187  39.8438430  62.8982592  33.8792562  68.6596441  35.0272107
  33.0219889  68.2630014  34.8722959  34.1726923  68.2799625  35.8554459
 114.0264702  64.8971653  84.3637276 113.6349678  64.1271973  84.7761631
 114.6230984  65.2462387  85.0258636   4.7133720   4.6963927  67.3194313
   5.3444147   4.8233989  66.6109943   5.0592959   3.9564800  67.8185272
  82.6036263  53.1452417   1.3932098  83.4261703  53.5820246   1.6143064
  81.9238853  53.7404394   1.7093094  51.8504810  98.8350868   1.8193530
  51.0217381  98.9688396   2.2792700  52.3421907  98.2360268   2.3811212
   5.0778347  17.0565164  77.8705406   5.4932451  16.4364219  78.4698343
   4.1533172  16.8085325  77.8722429 110.7588005   2.1523923  29.9586058
 110.0360680   2.7224895  29.6961522 110.9351826   2.3926225  30.8682251
  63.6654806  85.8985996   1.2299085  64.2281628  85.6219482   0.5066655
  63.0920172  86.5623951   0.8468284  14.4003034   3.4537926  90.6745529
  14.7150791   4.3577224  90.6668472  13.7815726   3.4218416  91.4041996
   4.3850720  33.2329893  91.5256786   4.8424184  33.9191103  91.0395622
   4.3917874  32.4777484  90.9376335 114.1036129  26.7292738  91.2448311
 114.4311619  26.0434699  91.8267441 113.1621361  26.7584276  91.4151478
  27.8488016  17.4443686  73.0163527  28.2333755  17.6315868  72.1600342
  27.9568100  18.2571411  73.5102844  93.2028198  74.5185614  10.6125796
  93.2452679  73.6050463  10.8952808  94.0763855  74.8658895  10.7927787
   1.1162811  41.3425684  50.9442186   1.4018600  41.1208439  51.8305111
   1.4544064  40.6322670  50.3988981  21.2047529  49.2841959  51.3127565
  20.5948257  48.8260651  50.7345390  20.6439900  49.7293282  51.9480801
  50.0475979  80.8859158   7.3219252  49.2760229  80.3967857   7.6076746
  50.1624680  81.5629768   7.9887307  22.6480484  55.1688051  75.1478195
  21.7443395  55.0558138  74.8532438  23.1793642  54.8471785  74.4194698
  25.5791616  38.9181995  52.5233364  25.9236026  38.0361533  52.3833942
  24.6979284  38.7789726  52.8701448  46.0564470  82.7816772   5.2530074
  45.6269979  82.9411983   4.4125569  46.8925476  82.3770809   5.0217688
  77.5795460 101.9813633   1.0708310  77.9293251 101.0911465   1.0334086
  77.9259300 102.4079418   0.2870710  57.4081945  34.3903875  82.2877026
  57.8113937  34.5846200  81.4415741  56.4989090  34.6731305  82.1902657
   1.3881139   1.6061102   3.2209343   1.4527355   1.2612490   2.3303577
   2.0538735   2.2927009   3.2608014  59.7455692  79.5664787  40.0886965
  60.0098562  78.7758732  40.5591440  60.4936457  80.1574802  40.1743221
 110.8752441 102.4762726  80.6809235 111.4484787 101.7241096  80.8288097
 111.3570976 103.0269718  80.0638485  78.4239388  78.5926390  10.7947338
  77.8101635  78.7747669  11.5063119  79.1119719  78.0655289  11.2009263
  53.5928679  75.7240248   4.5278382  54.4334698  76.1480618   4.7005099
  53.7763786  75.1086235   3.8180226  25.0331593  51.4495420  94.0594196
  25.5076694  52.0484304  94.6359634  25.4519916  50.6002712  94.1992474
  23.0705452  70.3074551  58.8151407  23.2643533  69.5721292  59.3964911
  23.5448456  70.1064253  58.0083847 107.5668049  86.0104179  20.5803823
 107.7742481  86.9324112  20.7324791 106.6101742  85.9781265  20.5735302
  11.3488197  28.4744787  75.0159836  11.9607484  28.2014227  75.6995153
  11.7967093  28.2656956  74.1962051 113.3205032 110.2358913  90.3599262
 114.1858196 109.8449898  90.2388954 112.9316044 110.2323151  89.4852924
   1.0645308  19.4196832  41.8071890   0.1837838  19.1789651  41.5198326
   1.3661394  18.6649632  42.3128176  87.6724529  99.6161270  67.2527981
  86.8575954  99.2982101  66.8639851  87.5367451 100.5579376  67.3567438
  59.7098827  51.6904449   7.2157586  60.2958775  51.1407804   7.7360535
  60.2847242  52.3451710   6.8193752  37.3427582  43.3673143  86.6104984
  37.6625180  42.5568867  87.0069885  36.7985868  43.0773163  85.8783722
  86.4387035   3.1098232  33.7167358  86.3448811   3.2463339  34.6594954
  87.3800278   3.1785002  33.5572910  83.3788013  35.8100104  62.0569515
  82.6645565  35.8907104  61.4248323  83.6330509  36.7129111  62.2476244
  94.0030193   4.4520414  22.3232245  93.6769867   4.6860695  23.1922269
  94.6792603   3.7954268  22.4899483  45.4877710  34.9626827  81.4141941
  45.0990343  34.3492723  82.0377636  45.0614119  35.7986140  81.6030502
   7.1907234  38.0756330  86.8282890   7.5186616  38.8788629  86.4239216
   7.4631310  37.3785686  86.2315273  25.2820706   4.9909002  84.8991489
  26.0422254   4.4222763  84.7764206  25.4917312   5.5062455  85.6780529
  28.5466146  49.0849352  72.3674774  28.4371877  48.2111502  71.9922972
  29.1634917  48.9603806  73.0887127  18.2387257  31.0607886  81.1976814
  19.0973735  31.4255095  80.9833527  18.4034646  30.1289177  81.3415813
  47.9489088  72.7808046   8.7269354  48.1935072  71.9243336   8.3764261
  47.5332832  73.2308006   7.9914117  31.9993591  37.0875788  89.8397636
  31.1868715  36.5970898  89.7151947  32.5197935  36.5429163  90.4302883
  13.2702351  31.9852591  81.6195965  13.1304812  32.9254508  81.5067196
  14.1132689  31.8162227  81.1989403  52.3061132  27.7122974  57.6132488
  52.7566624  27.5538182  56.7837143  51.4643431  27.2667742  57.5175428
  44.8535347  51.9241142  47.2599840  44.5709705  51.0484600  46.9961452
  44.5806503  52.4912786  46.5388107  47.3325109  33.4484243  95.1102924
  46.4197826  33.7367392  95.1155567  47.6104355  33.5497069  94.1999435
  42.1644163 104.4774628   1.4811768  42.2402811 103.5769558   1.7967251
  41.2233782 104.6526146   1.4807077  86.3349152  55.3428078  26.3376427
  86.9776917  54.8162317  26.8128181  86.0305214  55.9851313  26.9787312
   0.3095519   5.8982897  91.0400963   0.3619277   6.1865717  91.9513416
   1.1475932   5.4653746  90.8772850  19.0813863  50.7519197  93.3079243
  18.4380698  51.2758541  93.7852859  18.5667801  50.0579691  92.8958035
  47.8800154  32.0966792  90.3112221  47.6020384  31.1976862  90.1358128
  48.5710716  32.2631097  89.6701527  51.0355425   9.1901082  57.7326345
  51.2845421   9.9544197  57.2129631  51.7019081   8.5340607  57.5281954
  25.2173066  59.9318314  80.6959152  26.0631299  60.2957630  80.4344463
  24.6791291  59.9852467  79.9061441 117.4520397  39.3473268  93.3899403
 117.6275253  38.4087324  93.3230591 117.9694748  39.7384930  92.6860332
   2.1212311  58.0256176  94.3252945   2.2221251  57.1205759  94.6201611
   1.4619035  57.9798412  93.6328888  60.0121403 101.2228870   2.7977556
  60.9345484 101.0034943   2.9291648  59.8249722 101.8815613   3.4665915
  18.2173789  65.0458574  89.5883751  18.8763690  64.5997381  89.0564537
  17.5610578  64.3732834  89.7703552  18.2137108  24.5670986  85.8957958
  17.2650945  24.6926832  85.9200668  18.3619106  23.7643957  86.3957310
  47.8068781  89.0529251  23.4444237  47.9685926  89.0566730  24.3878555
  47.4446106  89.9195290  23.2600641  14.8167920  88.8807583  75.4669476
  14.6363008  89.1979027  74.5820332  15.1769733  89.6402931  75.9247732
  95.0388718 101.4355659   5.9437734  94.1950607 100.9862614   5.9921736
  95.0640011 101.8034649   5.0604570  41.7976522  45.0444365  93.6688614
  41.1462021  44.5478964  93.1735897  41.7357206  44.6991014  94.5594406
  95.7629681  30.2313709   1.8687998  95.8063793  29.3105102   1.6111930
  95.5589962  30.6975245   1.0580429  34.6882319  55.4138803  95.6150341
  34.2760825  54.6991968  95.1296520  34.4674969  55.2404547  96.5301418
  42.1757126  30.0188828  92.8154564  42.3813963  30.8341765  92.3580551
  41.6256237  29.5321202  92.2017002  94.4205189  68.4631157   0.8843222
  94.3658066  67.7153349   0.2892877  95.3527641  68.6782789   0.9135062
  40.4596281  46.4920378  87.2576141  40.9278584  46.8160248  86.4881802
  41.1083269  46.5173912  87.9610157  24.4240379  57.0257854  71.0453367
  23.6857557  57.5661516  71.3267231  25.1710916  57.3657084  71.5378761
  13.9434469  34.5307636  75.5413151  14.7517502  34.5425177  76.0538960
  13.2904220  34.9321580  76.1146164  20.3227186  21.6511989  66.3541698
  20.0525331  22.4682999  66.7731905  19.6939802  21.5273499  65.6431293
  46.6190386  33.4191632  79.0197325  46.0054207  33.9366078  79.5412254
  47.4826813  33.7452340  79.2727757  41.2528086  41.4586067  92.3114777
  40.3036499  41.5763807  92.3496342  41.5448570  41.5726137  93.2158852
   9.1962522  32.4808097  94.9908257   9.3243551  33.4210205  95.1166344
   9.1206121  32.3741579  94.0425968  97.9337692  16.8373966  17.9720068
  97.4537086  16.4694941  17.2301006  98.7993145  16.4317119  17.9221356
  36.8148470  39.6231341  96.1742115  36.4876628  40.2221584  96.8452930
  36.5949011  40.0486755  95.3454971  85.7647610  91.8631172  25.1895142
  85.5422115  91.7789936  24.2623520  84.9365044  92.0838356  25.6155610
  92.1742821  93.8895607   3.8535428  92.1388721  94.0043163   2.9039058
  91.4512825  94.4214058   4.1861841  18.0979419  22.4110866  87.3530769
  18.6214137  21.7440200  87.7971840  17.5187039  22.7534723  88.0338764
   8.4594125  54.5282745  82.2866344   7.8867120  53.7823296  82.4650002
   8.2167554  54.8110962  81.4049530  32.7671075 110.3513145  26.7072892
  31.9709754 109.8250771  26.7812657  33.1770754 110.0526333  25.8955336
 108.2261276  37.1202874  81.3974762 108.7051392  36.2964296  81.3078308
 108.2191658  37.2920561  82.3391151   7.8051674  35.9345412  62.9060507
   8.7481809  35.8546615  63.0494928   7.5083983  36.5327168  63.5918665
  37.0331168  55.7254839  84.8005772  37.2893286  56.6171169  84.5648384
  36.6083121  55.8159542  85.6535625  22.8657961  73.0370188  93.3434868
  23.8164377  73.0314827  93.4552288  22.6484728  72.1382427  93.0961037
  59.7046041  97.3791981  22.1975422  60.1841259  96.9684792  22.9169869
  58.9951563  96.7670059  22.0022464  13.6128640  47.2281027  66.0656023
  13.1785667  47.0121431  65.2403927  12.9288518  47.1327209  66.7283726
   4.5185825  58.2443428  79.5760059   5.3632617  57.8028202  79.6643686
   4.0771753  58.0861378  80.4104900  12.2729039  68.0386162  86.8532848
  13.0362928  68.6126423  86.7903328  12.1564758  67.8970909  87.7927780
  32.2735763  44.9144220  95.8723259  31.4518952  44.7052002  96.3165092
  32.0046282  45.3543425  95.0658703  41.9701862  93.6618042   2.2095726
  42.0949554  92.7763271   2.5510308  41.2539911  94.0215969   2.7328771
  31.2558484  56.5601206  85.2466965  32.0841098  56.0831547  85.2988052
  30.7386565  56.2225676  85.9780025   9.4805425  63.4422541  91.2863445
   8.7878156  63.8408566  90.7595825   9.0188026  62.8532600  91.8830967
  18.8657236  55.3977203  86.0025787  18.9425313  56.1064816  86.6413116
  18.5479939  55.8253574  85.2073383  52.5840425  87.8717136  11.1565518
  52.2111797  87.5385094  10.3403521  53.1877947  88.5611534  10.8801723
  10.1236498  42.2526741  62.8806973  10.3493404  43.0672741  62.4315548
   9.5884597  41.7715359  62.2495794  22.7605557  16.8302023  44.5334148
  21.8653059  17.1512175  44.4252014  23.2492065  17.5874841  44.8558712
  45.5236292  31.0849071  68.6226273  46.2983036  30.8415747  68.1157780
  45.4291058  32.0264554  68.4784555  97.3894024  88.8903522   3.8466612
  98.1414413  88.5429668   3.3670858  97.3943996  88.4145451   4.6772090
  90.9968662   1.6249928  19.7150922  91.6584682   1.6162400  19.0233970
  90.1677704   1.7448728  19.2519999  31.6160011  60.8709812  90.7938194
  31.1418772  60.4118204  91.4870834  32.4923611  60.4862309  90.8076382
   8.2935756  91.2893295  16.6076541   8.3367860  90.6682682  15.8805716
   7.5594014  90.9837055  17.1403968  89.8663139  87.4974823  15.2523267
  90.0050735  87.0578671  16.0912025  89.4173336  86.8470001  14.7124076
  36.8576050  41.2232399  93.1273746  37.5862622  41.0649109  92.5271893
  36.4722037  42.0454359  92.8245640  14.3019545  30.8998299  62.6181650
  14.2366433  31.0085058  63.5669279  13.8091493  31.6372252  62.2581339
  39.2298746  31.7497230  73.5537672  38.5976768  31.0313106  73.5747290
  38.7078047  32.5219107  73.3360577  29.5993495  34.7297454  92.2219753
  30.2080011  34.3802595  92.8728485  29.4542074  34.0035319  91.6155338
  28.8818455  52.5097322  79.4354677  28.3198476  52.4565506  78.6624432
  29.7355080  52.2001600  79.1327190  39.6925235  47.0511007  82.4124432
  38.9173150  46.8883848  81.8750381  39.4586492  47.8102064  82.9465771
  35.1590562  54.5655966  41.3289833  34.9433517  54.3214226  42.2290277
  36.0524487  54.9053335  41.3805389  39.0520167  92.3444843   0.5551437
  39.7825909  91.8805408   0.9641056  38.2726526  91.9847488   0.9787077
  53.2514286  29.2841196  59.8627758  52.7786541  28.5383415  60.2322769
  53.3243465  29.0830469  58.9297771  30.8656931  53.5836792  70.8653975
  30.3199768  52.7980947  70.9011841  30.3882909  54.1809082  70.2895164
  82.7401638  99.4825649  61.9112158  83.3414268  99.6080494  62.6453590
  82.8315163 100.2788830  61.3880014  36.2837434  76.5649748   6.6529047
  36.9054079  75.8372355   6.6656286  35.9071374  76.5736771   7.5328606
  28.1392646  32.3177505  81.2888527  27.7686191  31.6555643  81.8722534
  28.7327099  32.8220940  81.8453503  28.4375548  43.1735229  86.6344261
  29.2301631  42.8432083  86.2114620  27.8818440  43.4614801  85.9102058
  22.0063138  20.0013828  96.2446499  21.9130540  19.0831423  96.4983654
  22.1883965  19.9730372  95.3053570  35.2584767  46.6652203  69.8501539
  35.7792664  46.9288015  69.0915155  34.3573546  46.8785715  69.6078777
  42.8163719  34.5752788  79.5738363  42.7265882  34.3595791  78.6455870
  43.4195423  33.9153838  79.9158192  18.6501658  52.8970194  80.6939507
  19.2354763  52.1867990  80.9570694  18.8353658  53.0279255  79.7640085
   1.6595912  26.9232535  30.4827285   2.0403151  26.2825823  31.0834122
   1.0212355  26.4240789  29.9732590   9.1427779  58.5087681  68.6129856
   8.4437311  58.7920713  68.0236578   8.6903381  58.2594013  69.4188070
  34.3048739  56.5195704  54.3966961  34.8820066  55.9845066  53.8518476
  33.6923099  56.9173241  53.7779951  47.8004408  76.1762810  34.4717169
  48.3446121  76.9590902  34.5572853  47.2375441  76.1900949  35.2457929
 114.3590057   0.3717564  28.3397222 114.4733990  -0.5284168  28.0350137
 113.7870443   0.7748459  27.6865697  38.4777093  31.0770798  92.2062588
  38.8671350  30.3044248  92.6156330  38.4404755  31.7268896  92.9081059
 105.9198475 109.9779606  21.7066455 105.0791454 110.4226589  21.8147421
 106.2469482 110.2862263  20.8615398  19.6048176  28.2199383  87.8981400
  19.9082828  28.8940215  87.2900581  19.0680718  28.6942458  88.5330868
   6.5060139  57.4583721  91.4693546   6.4031726  56.5358067  91.7028713
   7.4358958  57.6382780  91.6078663  60.3048611  94.6432972  11.0209262
  60.8411121  95.1470757  10.4086578  59.7448444  95.2956676  11.4416647
  31.0580492  32.3193049  83.1584644  31.3622355  31.4771605  82.8200912
  30.4187584  32.0896530  83.8328552  62.4538231  41.8444204  91.4471531
  62.6536274  41.7573738  90.5150986  61.5771675  42.2280979  91.4693642
  45.7168150  49.7503710  87.0073414  46.2841797  50.4192781  86.6240692
  44.8394346  49.9738312  86.6967010  71.8876171  27.0726681  79.2007732
  71.6669941  27.9938245  79.3387175  71.4362764  26.6099644  79.9067688
  21.3146758  34.6426702  94.3831730  20.5675697  34.3624878  93.8544273
  22.0533586  34.6400023  93.7744236  19.5562935  52.8428650  85.9302711
  19.2508757  53.7479496  85.9917068  19.3404865  52.5774288  85.0362873
  14.3272579  59.9405527  84.8209095  13.9360690  59.4480133  85.5424404
  14.2242277  60.8580303  85.0736046  83.4184074  94.9527168   2.1778864
  83.4987164  95.7567787   2.6909846  83.9027309  94.2981243   2.6810467
  12.7766144  47.2534132  84.8233509  12.1349287  47.8160334  85.2568626
  12.5224376  46.3646364  85.0717354  92.5182724  45.8089447  80.2480698
  92.3602390  45.6564331  81.1797333  91.7964363  45.3616714  79.8063278
  24.9084949  57.3368931  43.3259583  24.4160104  57.9743385  43.8430214
  25.5411935  56.9667435  43.9415169  22.0012641  13.7325001  78.5620260
  22.4511027  13.5190582  77.7445221  22.6525807  13.5678041  79.2438602
  22.6620650  12.8645504  21.7912602  23.1519175  12.5806153  21.0194707
  22.5190163  13.8008571  21.6530585  30.1868248  77.1604156   6.5250045
  30.8882308  76.5531301   6.7605150  29.4337463  76.8670321   7.0378721
 111.4524555  68.7542772  82.2114468 111.0135841  69.2146540  82.9267502
 112.1671963  68.2791376  82.6352596  99.8807335 111.6318893   5.3516436
  98.9760017 111.7940903   5.0844544 100.2043533 110.9871483   4.7224998
  28.6626172  49.7797251  61.7109299  29.2879152  50.0758934  62.3723841
  29.1459107  49.1326237  61.1971998  23.1593561  14.0783989  86.3368034
  23.1070566  13.6274934  87.1795273  24.0868998  14.2927146  86.2369919
  66.2874889 108.5146523   9.2178386  66.2659407 107.6599121   8.7875003
  65.4967213 108.9576912   8.9102143  25.4446816  38.9561129  42.9794455
  25.3428388  39.8756266  43.2251215  25.8773088  38.9827204  42.1260071
 105.2259159  37.3905945  81.6875458 106.1475658  37.3473215  81.4327431
 105.2137852  37.0864558  82.5950623  65.2013016 101.5740585  31.4736557
  65.0186777 102.0412445  30.6584120  64.4640923 101.7910099  32.0443439
  31.5287232  89.3667030  33.8059211  31.5168524  88.7336826  33.0880284
  30.6173635  89.6457005  33.8943315  15.3503358  44.5183706  95.4627132
  16.0757160  44.8543453  95.9891796  15.7571959  44.2469072  94.6399021
  16.0997069  52.9485035  84.7134209  16.9314611  53.2439423  84.3431091
  16.1520433  53.1856680  85.6392956  19.1801405  37.1906972  95.2008057
  18.7575781  36.5456104  95.7678413  18.5416341  37.9000568  95.1276684
  31.9098425  94.5848751  42.6130247  32.5670815  93.9475632  42.3335409
  31.4094758  94.7764397  41.8198204  88.0230808  99.3894196  19.9652421
  88.4480381  98.9667797  19.2189026  88.7470055  99.6823788  20.5187201
  51.3824558  90.5293083  21.2575793  51.2342834  90.4054070  22.1950889
  50.7175875  89.9848461  20.8359909  97.5833988  10.2449000   3.0880007
  97.5998592   9.4531083   2.5503874  97.0016193  10.0277615   3.8164335
 114.0158844  59.3158054  43.5702229 114.7173309  59.3069315  44.2214680
 113.2584572  58.9524746  44.0290546  10.5942249  47.7800894  81.3897800
  10.2735674  48.0835199  82.2390938  10.3218150  46.8635893  81.3444233
  24.6325278  56.3174009  87.4323273  24.5288396  55.7164240  88.1700993
  23.9212418  56.0875940  86.8344212  52.4934053  23.3352852  81.1457348
  52.2549486  23.5421467  82.0493793  53.3142519  23.8058901  81.0009098
 108.7624550  31.7758155  77.6243782 109.4272423  31.8885493  76.9449806
 108.2691574  32.5960636  77.6152468  41.8107700  42.9275179  65.9952497
  42.3478937  42.1635246  65.7853746  41.7752457  42.9398727  66.9517136
  63.6455679  97.9993534  33.6381984  62.7289391  97.7245617  33.6607313
  64.0009356  97.5838375  32.8525209  67.7241278 100.1228619  15.1929712
  68.5108519 100.6499195  15.0532699  67.0032454 100.6931114  14.9257958
  25.5503297  32.8024673  79.6853447  26.4405537  32.6424503  79.9985933
  25.6594419  33.0392432  78.7643337   8.8115329  58.0990505  59.3712187
   8.8624161  57.3486090  58.7792063   8.9821845  57.7318859  60.2385664
  95.5656433  78.9267254   8.7014145  96.1859989  78.3083439   8.3154106
  94.7253990  78.4687996   8.6785829   1.1787867  65.7331944  51.2840414
   1.5376472  64.8458099  51.2833214   1.6344443  66.1752367  52.0004225
  77.6346493 108.1105232  16.7746150  78.5882473 108.0302620  16.7535436
  77.4291086 108.2837009  17.6933050 112.2133064  92.5179195  35.3846169
 112.7591324  91.8586731  34.9560118 112.8331757  93.0660629  35.8657980
  27.3703837  52.5100183  61.8656301  27.9967761  52.8520727  61.2277746
  27.6372242  51.6005468  61.9993877  17.6693058  40.1581001  75.5109835
  17.5574100  40.1727915  76.4615059  17.0828247  39.4634247  75.2114868
  60.9134436  77.4182224   1.9727504  61.4188862  76.8286371   1.4131543
  60.5634737  78.0766821   1.3725933  50.9459448  32.5339890  51.9407892
  50.5792379  31.6526961  52.0120525  51.2757969  32.5843358  51.0436296
  36.1571121  38.5454369  76.5160990  36.3728428  38.6803937  75.5933428
  36.4981651  39.3230152  76.9580078  97.6707363 102.0465755   6.5462148
  96.7705631 101.9281006   6.2431020  97.7551365 101.4459038   7.2866887
  42.9670715  37.9458165  94.2822170  43.2744694  38.2041311  93.4133053
  43.1820059  38.6907506  94.8435593   8.0151552  39.3391395  53.5147333
   7.3651487  39.2134833  52.8234053   8.1819421  40.2816868  53.5182238
 117.5829399   0.2482937  17.1518946 117.6239527  -0.3927948  17.8615141
 118.4923399   0.3554581  16.8730748  18.7410784  17.5229669  87.9237556
  17.9149342  17.0466697  87.8409386  19.1488826  17.4469531  87.0611095
  65.7778025 106.4735603  31.3975143  66.2445974 106.9044018  30.6814742
  64.8801422 106.3827419  31.0778499  69.5984459  78.7034702   3.1928763
  68.7218332  78.5806704   2.8285977  70.1578712  78.1295967   2.6694769
  52.9369402  30.1141691  79.9177742  52.5407505  29.9661779  79.0590763
  52.6297474  30.9829545  80.1767635  43.0437374  33.8715148  76.8795633
  43.8162661  34.4366932  76.8817711  42.4078035  34.3372393  76.3365030
  31.3580966  89.3578720  76.9465780  31.1813664  89.2070103  76.0180140
  32.2912931  89.1697121  77.0464373  29.5350194   9.1532528  51.2567234
  28.8679600   8.5752684  51.6271257  29.2060113   9.3706810  50.3845358
  22.8387904  47.1992731  73.2051325  23.3175159  46.5767527  72.6578426
  22.6191497  46.7045784  73.9946032  93.3132076   5.6180310   1.0719045
  93.8561058   5.1861465   0.4123819  92.7284813   4.9296942   1.3889405
  32.5237441  49.4288254  71.6385078  33.4429479  49.1641712  71.6030788
  32.2065592  49.3133354  70.7428026  41.5115452  26.0035706  72.0187330
  42.2277784  26.3696957  72.5375748  41.0451746  25.4291558  72.6260042
 106.2132931  78.0729294   0.7884642 105.6955242  77.3514032   0.4313233
 106.0750198  78.7939262   0.1742378  61.8481874  40.0537491  83.8493729
  61.2713432  40.7267523  83.4880543  61.2645531  39.4782972  84.3437958
 108.4511280 103.0718708   4.1585657 108.3976364 102.3176098   4.7454748
 109.3598175 103.0773067   3.8577518   1.0130702  83.2431793  84.1490650
   0.3383961  82.7595806  84.6257019   1.7997301  82.7046871  84.2352200
  18.5340440  38.9913654  83.8551712  19.3979537  39.1251874  83.4653187
  18.6954379  38.9848256  84.7986412  20.5295968  41.1315536  78.6843681
  20.6333375  40.1961946  78.5095072  20.8454895  41.5603733  77.8890371
 118.1324673  51.0928249  93.4009933 118.5680199  50.9411907  94.2397594
 117.9648876  52.0351028  93.3850288  74.3502140  76.8861485  28.4614229
  75.2634811  77.1699858  28.4212184  74.2466354  76.3049841  27.7079296
  52.5943041  30.3315306  69.1423798  53.3042145  29.7905564  69.4882202
  53.0373573  31.0173059  68.6427259  18.4461737  39.2240334  71.1655664
  17.7776778  39.6095848  70.5992699  17.9903328  38.5227990  71.6310930
  24.4086647  40.9028530  93.2174206  23.5627723  41.1534929  92.8461075
  25.0538278  41.3235378  92.6490784  73.1525183 100.0731659  13.6659169
  72.7107763  99.4189167  14.2072606  72.4858761 100.7411098  13.5056758
  13.3239400  42.4895620  81.1507511  13.1964386  43.1810999  81.8001747
  12.7976787  42.7656794  80.4003906   3.9854017  46.5271235  75.5013466
   3.4712955  45.7728767  75.2131796   4.7522420  46.5272617  74.9284697
  20.0381064  47.4462843  80.0176525  20.9773397  47.5963736  79.9101925
  19.9818087  46.6645050  80.5670929   8.3422554  72.0428133  77.3162127
   8.5938871  71.1554861  77.5722647   8.6207741  72.5917053  78.0492687
 112.6419830  34.4404364   7.0732790 111.8302250  34.6516895   6.6121393
 112.8617477  35.2407336   7.5502068  47.2468281  36.2475514  93.1416416
  46.8499804  36.2962937  92.2719479  47.6499176  35.3799176  93.1726933
   6.3318437   8.4153771  40.3364658   6.3227838   9.3322259  40.0616217
   5.4143006   8.2100320  40.5158520 105.6312656  45.0914621   9.5537204
 106.1635399  44.8367262   8.8000423 105.0824165  44.3270111   9.7286755
   3.0262366  24.5852113   3.6580527   3.4151971  24.1221738   4.4000357
   2.9750052  23.9268732   2.9650882  44.8308372  52.9488230  90.2357674
  45.1837111  52.1227026  89.9052429  43.9313316  52.7409744  90.4885769
  31.2993789  47.5392246  63.6072111  31.0399127  46.8630648  62.9813433
  30.4814053  47.8009224  64.0298986  82.7709484 101.5291119   2.5900614
  82.2479725 102.3287773   2.5329742  82.1491528 100.8554173   2.8652576
 100.2540970  15.3821957  18.8603258 100.1880455  14.5236611  19.2784023
 100.9240341  15.2693295  18.1860292  58.0135345 107.7122974   3.5203859
  57.7574539 108.5495758   3.1335676  57.9983330 107.8699589   4.4643900
  23.6919522  33.2586503  92.6394081  23.6163568  32.5215554  92.0334339
  24.4328475  33.0317020  93.2013702  31.2933445  36.6600227  94.8567200
  31.0913539  36.2467861  95.6961727  30.6791067  37.3916316  94.7959614
  73.9494371  12.7795637  15.2669346  73.1909084  12.2528911  15.5188894
  74.6802330  12.1613657  15.2648664 107.3819351  18.9367330   3.9603621
 106.8088341  18.8722289   3.1964108 108.0243206  19.6051693   3.7221110
  63.5186100  75.1484394  73.3556032  63.9564753  75.6667709  72.6804495
  63.1022024  75.7971096  73.9231157  10.5876219  90.9243870  77.8095245
   9.8242712  91.1313820  78.3486700  10.2512443  90.9101772  76.9134903
 118.1083775  68.3756304  71.6563654 117.4823093  68.3160400  72.3779774
 118.8209343  68.9136934  72.0013046  77.8390360  57.9545164  93.3894634
  77.6512718  58.3286047  94.2502975  77.7217913  57.0118475  93.5072136
  48.8224411  16.6573322  40.8431625  49.3147802  16.7563879  40.0282860
  49.3888044  16.1252153  41.4020157   8.2495517  12.0910764  12.2442722
   8.8619280  12.2356069  11.5229273   7.5521076  11.5576577  11.8631327
  70.2554798  62.7169991  71.4502239  69.9431896  62.4378157  70.5895472
  71.1900282  62.8812456  71.3242292  25.0353599  20.5547380  26.7491436
  25.4937816  20.2201033  25.9783626  24.9526405  21.4948559  26.5892339
 117.4478722  64.1556120  82.9268265 116.8191051  64.7544527  82.5239849
 118.0540943  64.7266769  83.3986378   5.5724245  40.7110214  17.7765894
   6.0131693  39.8615837  17.7973473   6.0956603  41.2665272  18.3544028
  45.1257324  98.7054825  81.3443375  44.6395636  99.1108704  80.6263256
  45.0146770  97.7646255  81.2076283  27.3845053  12.5013685   3.2100129
  26.5518594  12.9072165   3.4512991  27.9337883  13.2321119   2.9262283
  73.4055853  66.6108513  86.1937523  73.2579470  67.3803854  86.7435360
  73.6763144  65.9271145  86.8064880   6.7020708  46.1460209  23.3218193
   6.8879008  46.6319180  22.5183272   7.5603986  45.8548117  23.6295581
  61.2324047  96.3834476  81.8842125  62.0835876  96.8212795  81.8804741
  60.8003950  96.7064381  82.6749611  57.3693562  71.5749788  83.2064629
  58.2897902  71.5304279  83.4653950  57.3925924  71.8104029  82.2789574
  61.5455341  91.3391972  84.8192883  60.5965519  91.4340496  84.7376728
  61.9031763  91.9300842  84.1565895  16.5309775 110.4028130  40.1631784
  17.3406959 110.5646801  39.6790457  16.5970802 109.4894886  40.4419279
  23.0651355  32.7164793  31.4256430  22.8608036  32.8255224  32.3544002
  22.2503185  32.3984075  31.0368776  11.5237892  27.4089789   4.0176827
  12.2726464  26.8439937   3.8273263  10.9820342  27.3621035   3.2299411
  75.7160187  56.8110085  80.4270172  75.0526524  57.0794630  81.0627174
  75.8924198  55.8940887  80.6376743  19.2728531  22.9150796  16.8181515
  18.9732313  22.9793930  17.7249706  18.9903867  22.0458817  16.5336478
  83.1972313  26.1451149  18.5846126  82.5919914  25.4163456  18.7217653
  82.9268265  26.5271354  17.7496445  58.6881113  81.9467831  78.0473471
  58.6762190  81.6655254  78.9622116  59.3840694  82.6027489  78.0074644
  51.5395832  89.5831680  87.5112343  51.4313650  88.9213276  86.8282318
  52.4870396  89.6555996  87.6265907  56.8941164  64.2595720  93.1972694
  56.5613127  64.8083830  92.4871445  57.1632385  64.8807096  93.8740253
  89.5190430  11.8655801  75.1644945  89.1445065  11.7999351  76.0429287
  90.0197506  11.0569561  75.0565672 105.0121975  32.6492953  42.7487040
 105.2869797  31.8072796  42.3857450 105.8300781  33.0856633  42.9872131
  20.0021911  81.8480587  77.1900463  19.0659857  82.0187283  77.0869589
  20.1326323  80.9841347  76.7990875 110.3563118  10.1233339   1.9047008
 109.7282696  10.8107984   2.1264800 111.1358929  10.3366029   2.4175361
  52.2483826  86.7942429  65.0377464  52.0630121  87.1313667  64.1612673
  53.1794596  86.5730953  65.0173378  15.6587577  38.7730622   5.7838631
  16.1832786  39.5673203   5.8851749  14.7871423  39.0206623   6.0924274
   1.2636805  16.4693689   3.6753660   0.5592342  16.1171210   4.2193407
   0.8135454  16.8827057   2.9386413  66.8979168 109.7844410  75.4349709
  66.8660975 110.0500870  74.5159197  66.7714071 108.8358593  75.4146242
  70.0451994  82.5719643  63.0033493  70.8465052  82.0653057  62.8713083
  70.0467491  82.7836323  63.9368534  65.4413080  79.1863012  86.5577888
  64.7497034  78.5333681  86.4500904  65.8105659  79.2909384  85.6809044
  59.7683239  62.8437996  82.0375538  60.6605148  63.1379032  81.8538952
  59.8636484  61.9201040  82.2697735  31.1982262  22.8330472   0.6524152
  31.2253010  22.5054506  -0.2465754  30.2787649  22.7570012   0.9074563
 111.1139488  10.3818417  30.5606556 111.5910721  10.8166301  31.2674403
 110.2084064  10.6726277  30.6686974  13.0979120  42.1544555   0.0762624
  14.0134251  41.8837264   0.0071496  12.9751885  42.3490909   1.0053892
  11.3053596  47.8351545  26.8604898  11.3369656  48.7554502  27.1218157
  10.4146707  47.5562954  27.0729613  53.1238461  71.9998598  96.0291958
  53.6236525  72.6230526  95.5018902  53.1527376  72.3591185  96.9159508
  20.8322382   2.0997219  17.9492176  19.8947394   2.2916359  17.9269195
  21.2504697   2.9165480  17.6769865  75.0481272 105.9184837  82.2257805
  75.8488035 106.0048485  81.7083931  74.8419714 106.8123722  82.4990749
  58.2288074  79.3800449  76.6988897  58.6440659  80.1814556  77.0175219
  58.8521385  78.6858797  76.9129515  48.2383490  23.8843966   3.2592237
  48.8377714  23.2296133   2.9011968  47.5628710  23.3727503   3.7043929
  65.5804634  88.9360142   5.4274964  64.9512434  88.7791920   4.7234222
  66.4040947  89.1203880   4.9759808  10.9402156  13.9297223   7.9966927
  11.8795180  14.1125047   8.0198002  10.8813179  13.0114448   7.7330065
  23.5932684  77.7603674  70.9402418  22.9257393  77.1433926  71.2401962
  24.2849302  77.7041531  71.5995359 109.0443611   7.8805315  43.6633873
 108.9420319   8.5916489  44.2959023 109.4798660   8.2871491  42.9142332
  50.5994701  15.4291868   5.6314033  50.1543474  14.8390675   5.0232464
  50.0604630  15.4093230   6.4221674  58.3167696  65.8900452  90.0813770
  57.8949308  66.5593719  90.6201553  59.2452812  66.1222696  90.0943470
  69.5789099  46.3299561  76.0464907  69.7854567  46.8770790  75.2887154
  68.6378098  46.1696243  75.9767580  34.9619818  45.4671383   3.0304703
  34.4068408  45.0877285   2.3492225  35.4255986  44.7186565   3.4060574
  75.4355717  72.4730635  69.5671988  75.4719591  73.4194565  69.7059441
  76.0554886  72.1139193  70.2019835  19.7019744  33.1564450   7.1127295
  18.9545929  33.6915541   6.8456888  20.3212547  33.7812376   7.4900293
  39.6674728  82.1904373   3.7141466  40.4466391  82.7439213   3.7669170
  39.1269660  82.4665546   4.4543126  77.9517746 110.8791065  78.7185431
  77.2733593 110.2429390  78.9449883  77.9085398 110.9460640  77.7646637
 103.1783009  21.6791487  22.4700809 102.8689098  20.9013677  22.9343748
 103.3236408  21.3802505  21.5724373   0.5264177  53.2919598   6.9309551
   1.2646568  53.3420181   6.3237244   0.7126005  52.5242996   7.4715716
  77.7514553 106.1055470  74.2665863  77.0558119 105.6463623  73.7959909
  77.7250051 105.7390594  75.1504517  72.1505594  94.8211479  77.0598078
  71.2849522  94.6215725  77.4163532  72.4949551  95.5041599  77.6352310
  60.6202888  81.1099339  58.5430908  60.5413628  81.1286831  57.5893307
  61.4712286  81.5105724  58.7209225  18.7598658  67.9718065   0.6038219
  17.9741919  67.6206779   1.0229348  19.4703078  67.7562284   1.2079985
  62.0862198  76.7607307  94.7661972  61.5457296  76.9010353  93.9887524
  62.1170139  77.6164055  95.1941013  45.1017380  25.8015585   2.4233057
  45.2508736  25.3813863   3.2703274  45.8290243  26.4168119   2.3297858
  86.1661625  95.0296116  77.6901960  85.4411793  95.5444717  77.3358679
  86.9227600  95.2872181  77.1634817  54.5142984 109.4530010  76.2572432
  54.4312859 109.0178680  75.4087162  53.9000940 108.9884663  76.8257427
  74.9576950  86.4946461  65.4160547  75.6248379  87.1716881  65.3030729
  74.9505377  86.3201237  66.3571835   0.1241822  15.6092966   7.8188312
  -0.1753659  16.4732134   8.1019396   0.3451616  15.1542497   8.6314398
  88.4490776  79.7496128  88.2643127  87.9601192  79.2141008  87.6395035
  88.2014561  80.6498623  88.0534363  42.7893305  66.4079762   9.9636781
  42.2318411  65.7131767  10.3139532  43.4244728  65.9505510   9.4126940
 103.7459755  11.1894119  75.1533127 104.0799046  11.6937184  74.4114208
 103.8402081  11.7762315  75.9036398  68.5192680  67.7685261  85.9073257
  68.9159584  66.9257164  85.6870079  68.3926821  67.7331114  86.8554592
  74.2663050 107.4051571  54.2987299  73.3406734 107.5390434  54.0949774
  74.3615341 106.4551640  54.3670702  92.0748615   1.2148816  77.8281546
  91.9429779   1.2945093  78.7728786  91.8616581   0.3024433  77.6326227
  85.6004143  89.1279697  80.3073215  86.5360641  89.1191292  80.5090904
  85.4265118  88.2615376  79.9395275  62.4329901  63.2119274  82.3143864
  62.9644442  62.9331255  81.5686893  62.7041245  62.6369810  83.0300331
  23.3769059  26.8079209  36.3157201  22.4866152  26.5438986  36.0835385
  23.6815667  26.1242342  36.9123673  59.4747925  96.0875511  68.5427332
  59.6676254  96.9528866  68.9036226  58.7019539  96.2234402  67.9945707
 114.5617294  22.9405999  86.7314720 114.6196842  22.7816701  85.7893372
 114.0527344  23.7476921  86.8073559  37.1994448  54.2285824   3.4993023
  36.6342473  53.5010338   3.2395735  37.5947189  54.5288086   2.6808554
  48.6947775  37.9632163  18.1808853  48.7130642  37.3024392  18.8731766
  49.6027184  38.2569432  18.1060934  78.0710030  64.6684408  74.1007996
  77.5275707  64.3705988  73.3712769  77.4442339  64.9595165  74.7631168
  10.3003609   6.5226203  85.2521324   9.4347161   6.1254752  85.3478718
  10.7813728   5.9157968  84.6894455  76.1661434  79.8742342  84.8341465
  75.3650808  80.3762913  84.6842575  76.7709780  80.1809788  84.1586304
  64.5355129 101.1765766  56.5953445  64.9556637 100.3935909  56.2395000
  64.4512558 101.7650986  55.8451605 109.4665623   5.2163535  83.7225437
 109.1975117   6.0980487  83.9803314 108.7614536   4.6496695  84.0354729
  63.3250475  75.2117062  65.7660055  64.0333939  75.7536411  66.1135483
  62.6530886  75.2299452  66.4474583  51.0990858 104.4271183  92.4140453
  50.8963537 103.7864113  93.0956841  50.6141138 105.2114391  92.6706886
  41.5494204  52.4690580  96.8291473  42.2685719  52.0954704  96.3197517
  41.0701561  53.0127287  96.2038803  35.0222564  23.2898903  17.4500942
  34.0696001  23.2010555  17.4220240  35.1709223  24.2159462  17.6412690
  18.4479964  43.2442856   5.0608110  18.4782386  43.3364010   6.0130882
  19.3184865  43.5123396   4.7664875  93.4942245  17.7493489  69.8590279
  93.6049366  16.8746936  70.2317905  94.3856239  18.0868626  69.7711802
  23.6690331  21.6375351  21.3925505  22.7998567  21.3827705  21.0829401
  23.6183095  21.5533662  22.3446918  62.7930164 100.3104782  71.0442686
  63.5689640 100.6793880  70.6223202  63.0673456 100.1433468  71.9459581
  17.8959572  43.5263205  15.2743137  18.5624981  44.2120123  15.3164768
  18.0532825  42.9912043  16.0522187  38.4291053  19.9312520   9.4896483
  38.8214803  19.3606544  10.1504755  37.9925919  20.6174660   9.9944222
   4.7191045  22.8313613   9.5378661   5.2439177  22.5409746   8.7918913
   4.3330824  23.6591029   9.2514026  13.5006487  25.4614162   3.5499769
  12.9030657  25.3876638   2.8058755  13.1405318  24.8650432   4.2063978
  21.6694593  35.0113988   1.6702770  22.0162678  34.8527837   2.5482276
  20.9591675  34.3768454   1.5750837  49.6307993 108.0073643  74.7845459
  49.7261047 108.9296818  74.5468760  48.8970232 107.6977825  74.2535448
  33.6998391 103.8508511  93.4117985  33.9380813 103.1813145  94.0530396
  32.7435493 103.8808250  93.4408665  12.8284299  31.3655400   7.2254348
  12.0662558  31.6342306   6.7124742  12.6789439  31.7430806   8.0922389
  89.6088791  72.6851654  69.8023510  90.4362488  73.0860138  69.5358706
  89.0629387  73.4221601  70.0762510  72.9726458  95.9688759  90.8603477
  72.8418303  95.0902462  90.5038071  72.4701595  95.9740257  91.6750336
  46.5711260  36.0959077   1.6406164  46.4039707  35.1739788   1.8364201
  47.5180435  36.1450768   1.5096292  57.6331806  82.6011658  96.2394142
  57.6375198  83.1460190  95.4524231  56.7232513  82.6162052  96.5361214
  80.6962776  78.1206131  84.2570782  80.3182220  78.9682198  84.4913197
  79.9560928  77.6111650  83.9271927 114.6726990  99.5381260  49.7315884
 115.1495647  99.3780422  50.5459642 114.2163277  98.7153339  49.5555639
  88.7518787  79.9682808  93.3197880  87.8746891  80.2130413  93.0250835
  89.3365765  80.3168201  92.6468277  78.7271070  71.2995338  88.8940525
  78.5724592  72.1634007  88.5118866  79.5374966  71.4001369  89.3934345
  30.8335459  25.6942657   0.5111761  31.1334383  24.8016647   0.3392667
  30.3213751  25.9281162  -0.2629214  44.9227667  84.0589619  53.7377739
  45.0689173  84.7300911  53.0710936  44.8941183  84.5432758  54.5629168
  68.4124708  73.9805603  43.5228300  68.3969545  73.9237976  44.4782162
  68.4876490  73.0723143  43.2301235  83.3975220 106.2380123  44.8496723
  83.3813381 105.4808140  45.4350138  82.4784088 106.4887524  44.7569466
 104.6153450  91.9392300  85.9676743 104.2129707  92.2521877  86.7778492
 105.3742599  91.4328289  86.2572289  96.2108231  94.4691467  91.0127163
  95.9201336  94.1013622  91.8472672  97.1663857  94.4318867  91.0544300
  73.4933567  86.0097790  73.6741734  73.5740042  86.9633293  73.6957979
  74.2414331  85.6945801  74.1813803  26.0294199  66.3260794  -0.3196188
  26.1142707  65.7996273   0.4752891  26.0775876  67.2316980  -0.0133987
  60.1367521 102.6292515  83.0005550  59.6996403 103.4793854  82.9512119
  60.5686283 102.6312065  83.8547802  95.5953121  19.3370545  59.5786476
  95.1782131  20.1754665  59.7769451  94.8846245  18.7886238  59.2464161
  82.3103619  96.0276127  41.7161226  81.7420292  95.5619717  41.1026001
  83.0692577  96.2840748  41.1921644  64.3759441  82.8265285  93.6337757
  64.2533875  81.9747925  93.2145214  65.1035547  82.6920986  94.2410183
  71.7099810  90.9955692  86.7071819  71.9622755  90.9952164  87.6305389
  71.1240768  90.2438259  86.6187000  13.3768678  45.0103760  15.1570237
  12.7906740  45.5993652  15.6321013  13.0102909  44.9687147  14.2737806
  69.2791271  48.7814045  68.0390263  68.7965965  49.5852900  67.8462553
  69.6947002  48.9485121  68.8849640  66.5928888  84.5027828  73.4314919
  66.7106390  85.4301739  73.6371851  67.2538900  84.3197346  72.7638102
   2.3149435  83.0961895   0.9770266   1.9544147  83.0348396   0.0924429
   3.0496165  83.7042141   0.8946072  57.7381229  94.0419769  78.9517069
  58.2885933  93.8779449  78.1860018  57.7185726  94.9955368  79.0327883
  28.8998652 100.2824020  59.4888830  28.7355208 101.0751152  58.9781809
  29.5643234 100.5420971  60.1270723  76.8180418  95.1820564  71.6395617
  77.1001577  95.2543259  70.7277441  77.5323725  95.5726242  72.1429682
  83.7531185   8.3677870  90.6578922  83.5491848   8.9050144  89.8923683
  84.6742725   8.5522592  90.8414364  50.4782963 103.3854103  89.6520615
  51.3659811 103.3328247  89.2978287  50.5935383 103.7329292  90.5364704
  75.9230232  93.5816193  74.9858809  75.7751942  93.0627155  75.7765245
  75.2331352  94.2449570  75.0022745  62.2490931  60.8584213  47.7368402
  62.0722771  60.0690842  47.2250652  61.4726925  60.9666443  48.2861328
  18.7918115  28.0437803   6.6568828  17.9796529  27.7682090   7.0819598
  18.7361908  28.9989972   6.6305250  81.5114689  90.3298283  83.9737701
  81.4565468  89.5355415  84.5051098  80.6447220  90.4123688  83.5760784
  82.5850105  59.7872782  39.2859435  82.2774506  59.0279913  39.7810435
  83.5379791  59.7588682  39.3713093 102.5761318   5.1069891  45.1612425
 102.7992249   4.7480440  46.0200930 103.1466961   5.8694768  45.0647736
 108.7337780   4.0651274  94.0916157 107.9530048   4.3855283  93.6399841
 109.2164326   3.5811514  93.4215069  31.1497951  27.9197574  14.5473182
  31.8025780  28.5281563  14.8936677  31.5537453  27.5587487  13.7581861
  61.8947840  84.1238976  60.6987000  62.0832872  83.3105659  61.1668634
  61.7427158  83.8499165  59.7942400  12.5306642  16.7820776  25.6904507
  13.2557964  16.3479400  26.1398268  12.6372087  17.7090716  25.9039068
  50.1181364 100.0875854  91.8250370  51.0418320  99.9729729  91.6017056
  50.0554514  99.8049164  92.7373886  26.1945545  20.6243280   0.4688138
  26.2486660  19.9816659  -0.2384978  25.2557861  20.7436469   0.6127138
 110.2931786   7.9079634  52.0235300 109.3395042   7.9772705  51.9795322
 110.5958080   8.8128424  52.0999479  22.7641606  22.8521705   2.3690961
  22.5512719  23.7423325   2.0888767  22.6231503  22.8589249   3.3158284
  65.8920860  29.8906779   7.2257107  66.3300419  30.5268526   6.6602844
  66.6065407  29.4105220   7.6443285  57.4918318  73.7170124   5.3890687
  57.4138546  73.2892084   6.2417918  57.6637459  74.6354675   5.5967128
  69.4160175  76.7922878  75.4656982  70.2674818  77.1798325  75.6682968
  69.3423271  76.0494184  76.0648155  49.9762535  38.4648037  10.7999408
  50.0436878  38.0539203   9.9380481  50.8442974  38.8365221  10.9566450
  36.5277922  43.6170581   1.0992879  36.3684714  43.4099105   2.0201177
  37.1695482  42.9662708   0.8149499  43.6354876 101.9930649  78.7942410
  43.3967495 101.8969727  79.7161961  43.3291340 102.8684616  78.5574770
 116.7388344  14.9919689  85.6276226 116.1031151  15.7065177  85.6664753
 117.2369576  15.1578045  84.8272419  41.1681747  48.0088043  93.4448433
  41.0084438  47.0714760  93.5549831  41.7798471  48.0628777  92.7105713
   5.6078416  18.9334512  85.5950928   5.4690319  18.0355144  85.2939701
   5.1026887  19.4713235  84.9853802  61.8916702  68.4548473  87.9749393
  61.7391586  68.0808496  87.1071339  61.3973331  69.2745161  87.9727459
  13.8929427  35.2061987  32.1062946  13.1818342  35.7934141  31.8499136
  14.6588647  35.5390763  31.6385484 101.9517994  15.4224169  16.6868424
 102.6999378  15.8254111  16.2462556 101.2376690  15.4858935  16.0526311
  94.3321228   2.9442143  77.5671768  93.4340763   2.6134709  77.5483942
  94.8680878   2.1972454  77.3006964  27.4112797  38.6566162  25.7958436
  27.6834035  38.3702755  24.9239564  26.5246534  38.9950299  25.6709290
  51.5042686   7.6412559   8.7976861  50.8984709   6.9033813   8.8668430
  51.2678099   8.0689549   7.9746473  12.4434757   9.7568852   4.5510539
  13.3833981   9.6372956   4.4151306  12.1864271  10.4021955   3.8924700
  27.5391054  41.3571215   7.5943536  27.2761464  40.4861498   7.8918362
  26.7215300  41.8532419   7.5535351  53.0503416   8.5124892   3.3862287
  52.6085043   8.5396039   2.5375369  53.9040804   8.1220269   3.1994236
  53.2333136  92.1375275  75.8212852  53.2866812  92.9612255  76.3059425
  53.0564117  92.4018574  74.9184752  67.0261908  91.1656761  67.9638052
  66.5266466  90.4321861  67.6050901  67.9374027  90.9596252  67.7553082
  75.4336309  79.9384403  80.5889225  75.4035425  80.6407547  81.2386131
  76.3399935  79.9355650  80.2811337 113.2498646  28.8374329  18.5625422
 113.4942532  29.5972180  19.0909660 113.9883041  28.7127709  17.9663968
   6.2861216  49.9026155  16.7276621   5.7982868  49.1773653  17.1178675
   6.4398456  49.6288252  15.8234286  70.4633236 108.7424946  81.5889454
  69.6406078 109.2285728  81.5333557  70.5162382 108.2656860  80.7606411
  52.8035831  70.6945801  43.5324669  52.8460455  71.2296772  42.7399397
  51.8822908  70.4448509  43.6037779  21.7233157  15.3431976   1.4198326
  21.8507099  14.3950272   1.3886154  20.9420061  15.4974985   0.8888189
  72.8288507 110.1494408  56.9172001  72.5424862 109.2390156  56.9903755
  73.0454588 110.2587032  55.9912539  27.0058203  46.3506746  22.9011631
  26.1875868  45.9829807  23.2351160  27.5933909  46.3529539  23.6567998
  59.0345287  93.3634949  76.4767218  59.1062069  94.2416286  76.1026049
  58.2036924  93.0271339  76.1408472  76.5249348  87.2298336  68.3169222
  77.4355936  87.0982075  68.5807562  76.0695934  87.4501419  69.1295481
 102.2790527  35.7145047   9.9750447 101.9043922  35.2953911  10.7497752
 103.1448936  36.0092473  10.2572930  74.1682053 108.6082935  83.9115810
  73.6842871 108.0531025  84.5229912  73.5363150 109.2746639  83.6415863
   3.9530104 110.2450275   6.8925661   3.2670188 109.8923588   7.4593782
   4.4139284 110.8799076   7.4409395  48.2640028  93.6349583  79.0663004
  48.0524015  94.4751072  78.6593533  47.4330568  93.1600571  79.0812874
  32.3116016   8.3607322   0.9296110  31.7288136   7.6086283   1.0341615
  32.9645824   8.2557702   1.6215862  46.4916277  82.2760677  80.9317493
  46.0380793  83.0299568  81.3088131  47.3409843  82.2622871  81.3729286
  80.8907127  93.1169987  73.4813738  81.7880440  93.2780743  73.1896925
  80.9086227  93.2962608  74.4214678  49.9661744 107.0594785  96.0092865
  50.1177371 106.1806723  96.3570878  50.7959783 107.3004958  95.5974982
  69.1230583   2.8041583  90.4423714  68.8579845   2.2677736  91.1895370
  69.4452715   2.1742748  89.7976589  11.1708450   9.6088451  23.2249641
  10.6798279   9.4239521  24.0255570  12.0762122   9.7126067  23.5178399
  39.5134187 102.3667431  75.6340170  39.5531011 103.2295895  76.0465145
  40.4011631 102.2152710  75.3096724  29.5631576  23.2103252  23.3301020
  28.6144185  23.3124614  23.2546449  29.8522305  23.9949775  23.7959242
  76.8661070  84.0638638  90.5172157  77.2264194  83.7419033  91.3435078
  77.2725344  83.5132504  89.8479843  55.8741856  45.2951765  10.6705546
  56.2352800  46.0441589  10.1963508  56.3230181  45.3079128  11.5159070
  57.9862595  93.7887192  86.2952995  57.2556734  94.2573166  85.8917046
  58.3479452  94.4087410  86.9285393   9.9991769  21.6987801   8.6211836
  10.9200621  21.7800283   8.8693768   9.8934841  20.7754803   8.3918756
  86.9443226 100.9885025  64.3809080  87.8558350 100.7395554  64.5338631
  86.7355156 101.5860462  65.0989389  68.9742613  74.1235018  74.5855188
  69.4753027  74.8770714  74.2735720  68.1085634  74.4784737  74.7875118
  55.1925039  96.0601139  80.5625057  55.5417013  95.3618908  81.1163712
  54.4556999  95.6562424  80.1039791 110.6883430   4.1470310  86.6200638
 111.5057182   3.6497062  86.5917969 110.0119591   3.5093296  86.3918591
  84.3126202  75.7923985  64.4576740  83.3560562  75.8072853  64.4893217
  84.5283318  74.9130774  64.1470385  86.2452698  95.1632786  73.7412262
  86.0623264  94.8868847  72.8432417  86.7521286  95.9695625  73.6451006
  72.8496361  69.0096569  87.5518894  73.4984112  69.6666956  87.8041267
  72.1714783  69.0721226  88.2245159  13.5704398  33.5101652  11.4338100
  13.3656132  34.4446969  11.4033294  14.3081486  33.4069252  10.8326781
  76.6949177  92.7337837  65.8972359  75.8274508  92.9616928  66.2315893
  77.2842503  92.8877068  66.6356277  87.0872498  69.7115135  53.9278555
  87.1537018  70.4959917  53.3834219  86.7047215  70.0213861  54.7487593
  64.7704744  67.3290920  58.1106091  64.7071457  68.0687809  57.5063848
  64.4031620  66.5907431  57.6246500  67.8678226  74.0255165  79.1585207
  67.1808815  73.5388756  78.7029743  68.4239292  74.3670988  78.4583092
  71.9819784  81.5811920  75.0474977  72.3638487  82.3732090  75.4258204
  72.5767851  80.8790588  75.3110218  95.1015091  80.0615406  90.2243328
  94.4650936  79.5632410  90.7370758  94.8277950  80.9733772  90.3236389
   1.3886127  15.5590177  90.0518036   0.4509848  15.3828120  89.9740982
   1.4665015  16.5038657  89.9197865  83.2323742  13.2403743  38.8411450
  82.5808239  12.6372600  39.1988659  83.4708405  13.8008487  39.5795465
  43.3360624  56.1300898   7.9663759  43.9224195  55.7235861   7.3282743
  42.4847269  56.1520529   7.5293678  30.0228000  61.2493324  18.0826783
  30.0601244  60.3989077  18.5204208  30.1600289  61.8860054  18.7841392
  67.7923918  49.3921995  94.4117832  67.9106045  50.2752781  94.0618801
  68.6638594  49.1353130  94.7130871  40.7452917  38.3172822  15.8049905
  40.3585100  37.4417472  15.8131826  40.2517939  38.8033271  16.4656365
  30.3279996  57.0172977   0.8845018  31.0997558  56.8365574   0.3478873
  30.1971531  56.2170219   1.3930997  87.6392841  26.2529778  79.8331547
  86.8813610  26.0583854  79.2818594  87.8661251  25.4135966  80.2334213
  70.8706284  93.7526989  83.0581951  71.0919428  93.5159302  83.9588547
  69.9302197  93.5872269  82.9912281  46.9749403  84.4696522  87.2428608
  47.4222803  83.7421989  87.6751995  46.6667652  85.0222015  87.9611492
  37.1547580  47.6366377  22.1707869  36.3935065  47.6490831  21.5906382
  36.8938017  48.1723642  22.9198766  14.6039641  25.1759362  94.7014332
  14.7243941  24.7125983  95.5303097  14.2661774  24.5105290  94.1019630
  82.2752953  72.4467516  84.0475464  83.2176971  72.6134872  84.0301800
  81.8974781  73.2455492  84.4155121  64.4568682  93.8193417  85.2431583
  65.1061773  93.7161827  85.9388447  64.3353367  94.7657681  85.1673889
  53.6098194  85.7510376  96.3940811  53.3738756  86.5667343  95.9522724
  54.2766619  86.0078144  97.0309544  68.3737659  85.0116539  88.1061745
  67.4765253  84.7119999  88.2524776  68.8766575  84.2076015  87.9764462
  65.3990126  52.6835680  90.0957775  65.4236412  52.2625589  90.9550571
  64.4668198  52.8032303  89.9143124  39.7757292  36.2620974   3.0329430
  40.0075626  36.6561890   2.1920045  40.5493402  35.7563066   3.2818106
  56.5213156 100.0361156  52.3753977  55.9176588  99.7476578  51.6908407
  56.2247276  99.5810986  53.1635809  95.0075722  94.5902634  61.6886234
  94.0750027  94.7268581  61.5216017  95.4133892  95.4327869  61.4844179
  52.3115778 106.2018204  58.6390972  52.9794931 106.1387062  57.9563570
  51.4830446 106.2372875  58.1610680  60.9039068  89.7584915  56.2042761
  61.4751387  89.0713501  55.8611155  60.1065063  89.2983723  56.4663363
  75.7248831  83.1716633  69.8318672  76.1533022  82.3956108  69.4707251
  76.0512972  83.2293987  70.7298374  58.4215832  76.3030958  80.2604771
  57.5025845  76.4568567  80.4796314  58.6268902  76.9712496  79.6065235
   6.4139903  91.9777012   6.0801160   6.7040354  92.2535706   6.9495982
   6.1118239  92.7837276   5.6614965  27.3148823  33.1881809  11.4254427
  27.2624159  33.1022191  12.3773301  26.8114829  32.4464202  11.0898638
  64.0998173  43.7409401   3.4558338  63.9661837  43.3571768   4.3224931
  63.2584906  44.1430044   3.2396114  28.3009458  66.5952969  10.8313763
  28.0392170  66.1952734  10.0020933  29.1898155  66.9135761  10.6737661
  11.6294599  71.8724442  -0.1154032  11.1652803  71.6980028   0.7033394
  12.4585545  72.2648191   0.1582291  78.3198643  91.3738060  77.7646351
  77.3863316  91.1656475  77.8023434  78.6104965  91.3368416  78.6758947
   1.4171079  43.2298231  15.3422916   1.6093749  43.7528229  14.5640016
   1.6493599  42.3352814  15.0931168   8.1258661   0.0643410  74.4925594
   8.7667847  -0.0522623  73.7912321   8.2308239   0.9763016  74.7637463
  79.5878029  67.0179558  93.4898663  79.9254465  66.3571501  92.8852463
  79.5497465  66.5715170  94.3357182  16.5721428  42.2883892  28.7002492
  17.3375773  42.2338963  29.2724133  15.9285998  42.7830458  29.2075944
  44.8389769  27.9665065   4.6112952  44.6817160  27.0409155   4.4247937
  44.0883017  28.2349992   5.1410431  60.3379107  91.2488651  94.3119717
  61.1567831  91.4320660  93.8514042  59.7646189  91.9798374  94.0812111
  78.7932634  89.2938137  40.3396702  79.2732811  89.4060802  39.5191765
  79.0492535  88.4252548  40.6500101  53.7079668  87.1138000  78.0937576
  54.0532732  87.9427338  77.7623081  53.2159042  87.3558998  78.8782883
  58.3496237  84.8943901  72.2354460  58.8226223  85.1575565  73.0249071
  58.7096071  84.0350819  72.0158100  59.4583797  99.7143364  89.5681381
  60.1019001 100.4210567  89.6197510  59.0774393  99.6727467  90.4452801
  95.9665108  29.9496889  16.5999162  95.1132393  30.3825998  16.6272664
  95.7902050  29.0978479  16.2005198   0.3435360  24.1680026   8.3030242
   1.0707335  24.0054917   7.7021867  -0.2121038  24.7965288   7.8420991
   4.9237263  20.0903082   3.3214238   4.5980173  19.2044401   3.4807464
   5.4856783  20.2777171   4.0733016 111.4216423  99.5952225  95.7363892
 111.0367680  99.8480892  94.8972416 111.3975334 100.3950500  96.2616730
  27.4182677  17.6383531   2.8290775  26.7897725  16.9251871   2.9414240
  26.9640088  18.4125233   3.1615546  11.0225224  21.1777234   1.5800646
  11.9121897  20.9120202   1.8127134  10.4581249  20.5787277   2.0688289
  71.6170883  10.1565814  88.7248325  71.5397739  10.9681439  88.2232094
  71.0591078  10.2940750  89.4903278 100.7781696   7.5444764  72.2657537
 100.9488297   8.0459344  73.0630255  99.8570633   7.2930562  72.3334980
  56.6402578  97.0829296  89.7852898  56.2649488  97.5824261  90.5104637
  56.7044878  97.7135181  89.0680313  82.1309185  77.5572491  87.3222733
  81.6394520  78.3604765  87.1504688  82.9409218  77.8558731  87.7357292
  64.3916988  61.2138414  64.0358400  63.7061024  60.7247114  63.5809278
  64.9757671  60.5401134  64.3839598  93.5552311  78.0126953  54.6233606
  93.4182262  77.3086357  53.9895153  93.7010288  77.5614119  55.4548216
  79.6648598 102.3841953  57.8567505  80.0130367 103.1240177  58.3544207
  80.4306507 101.8428612  57.6650429  63.5042334  80.8077335  76.3847637
  63.5496330  80.7897186  77.3407173  64.4184351  80.8294201  76.1019325
  11.7869103  25.8071494   1.2311566  11.2735200  25.2965832   0.6050700
  12.0372081  26.5954185   0.7492691  88.3296585  55.3327751  58.9176178
  88.8368511  54.8041773  58.3015251  87.4437428  55.3388548  58.5551977
  72.8088903  70.8604145  61.5525055  72.5457478  69.9406147  61.5834761
  73.4058142  70.9137630  60.8061314  37.0035911  18.0381250   5.4003936
  37.1222949  17.2855687   4.8209104  37.1316123  18.7990832   4.8340148
 101.5355682  89.2473316  56.3105106 101.8940163  89.3017197  57.1963978
 102.2630119  88.9272213  55.7770348  45.9273863  99.3170071  73.2602215
  46.1803007  98.5898113  72.6914930  46.7243004  99.8396969  73.3493900
  22.3549294  45.5812740  38.1726813  22.2463417  45.4233217  39.1104937
  21.8711376  44.8702335  37.7524447  98.6948013  86.0048580  92.6907444
  98.5423565  86.4308071  93.5342789  98.1914616  85.1920795  92.7384090
  64.3372393 105.8762455  66.9139385  65.2943993 105.8769512  66.9048882
  64.0903425 106.4352131  66.1771631  26.1349058  50.4649925   7.2188830
  25.9679222  51.2396526   7.7557719  27.0136929  50.1827335   7.4724525
  63.1397581  95.3348923  71.7695951  63.5956526  95.7717705  72.4889946
  63.4411907  95.7901764  70.9834051  40.8029222  84.2156315  56.1702919
  41.3742161  83.4531116  56.0785294  40.2274847  83.9969540  56.9032907
  85.8986378  61.0299683  67.8094387  85.1975822  61.6180754  67.5285769
  86.4290142  61.5575552  68.4065866  75.8804131 107.0014095  71.2656355
  75.8891296 106.4374256  70.4922771  75.9442711 106.3959980  72.0043039
  30.4758811   7.3568577  85.1476097  31.0853672   7.4910724  84.4218445
  30.8376145   7.8788257  85.8638000 103.6449051  17.7205324  56.8436432
 103.5068035  16.8318081  56.5160370 103.8096237  18.2424021  56.0583067
  95.8270073   3.2793766  72.7484322  94.9360657   3.1309921  73.0653667
  95.8824062   4.2268926  72.6244354  47.2359276  57.8518057   6.3437283
  46.7119265  57.2532749   5.8113593  48.1389332  57.5645161   6.2085503
  37.1178651 101.9783115  18.8598096  36.4634657 102.6569366  18.6941016
  37.9579186 102.4261665  18.7599802   3.0931622  92.8297043  77.2164297
   3.6157316  92.6282692  76.4401722   2.1872795  92.8057671  76.9081497
 100.0727940   1.0342202  88.9694309  99.5094299   0.8196299  88.2259178
  99.4814873   1.0472676  89.7220421  13.1642580  11.5788496  62.6265907
  12.3798656  12.1085572  62.4838638  12.8319240  10.6929696  62.7715063
  32.9847765  51.7289543  88.0030632  32.6453209  51.3518810  87.1913815
  32.9593611  51.0072994  88.6313915  83.6432362 101.1535168  83.5176945
  83.8074398 101.4642811  82.6273632  82.7331257 100.8573151  83.5039711
  73.0710411  92.1578121   1.4216633  72.8771782  93.0774784   1.2403706
  72.3706150  91.6744900   0.9834477  88.8267231  96.6199875  53.0841541
  89.7027397  96.3147736  52.8482103  88.8456059  96.6873360  54.0387964
  89.5120811 105.5053520  88.4374142  90.2970600 105.7538223  87.9492474
  89.2316628 106.3132858  88.8673496  46.3870525  99.3513489  61.0205364
  46.4299107  98.3955288  61.0491180  45.5680752  99.5407867  60.5626965
  79.2840767  95.2056885  80.5138683  78.8675833  95.9709454  80.9102917
  80.0415039  95.5597496  80.0478554  19.2938280  41.6050386  85.8540058
  19.6219909  41.8332767  84.9842644  19.6675491  40.7420015  86.0321331
  78.5694361 105.2444649  83.3170891  78.7589598 106.1694241  83.4744740
  77.9819202 104.9955845  84.0306091 100.1152039  81.7654228  76.5236855
 100.1403236  82.7205181  76.4653921 101.0151863  81.4909744  76.3477850
  82.9839420  95.7697773  46.6203690  82.5848103  96.6136169  46.8321705
  82.7131462  95.5962944  45.7188082  69.3786860 106.8398190  45.3208160
  68.4885073 106.5926170  45.5712271  69.3581629 107.7957439  45.2760172
   2.5832915  36.6257501  80.0833797   2.0212235  37.2037220  80.5993843
   2.6126030  37.0312500  79.2168045  13.0592096  61.9931841  28.5613608
  12.3890030  61.3820028  28.2555628  13.8691723  61.6825438  28.1567693
  93.3482838  28.1357813  96.3099575  93.7816811  28.8550878  95.8506107
  93.7455273  27.3448896  95.9453773 114.3745899  88.2465363  75.4570532
 113.4745121  87.9267216  75.5188131 114.3566227  88.8744926  74.7348499
  41.7182350  40.6217718   3.0985451  41.2924957  39.7757649   2.9597965
  41.7899704  40.7006550   4.0497881 107.1586323  13.9444971  89.9360371
 106.3685322  13.5638285  89.5525455 107.4940777  13.2633376  90.5189037
  88.4985828 107.3298550  82.1325779  89.3776417 107.3968792  82.5054073
  88.1692791 108.2286263  82.1325207  51.2161303  63.9012337   3.7779921
  51.8423033  63.9475346   3.0554971  50.9686804  62.9776049   3.8216594
 107.0914078  28.6946154  81.7141247 107.2015572  29.1484571  80.8785820
 106.2557793  28.2355809  81.6290188  85.5029297  73.7875986  44.7833061
  85.7078075  74.6476555  44.4164896  85.6579113  73.8848305  45.7228565
  44.8907089  16.0591006   0.9981592  45.3352308  15.6334090   0.2650698
  44.8274803  15.3781986   1.6679400  89.4820404 103.8071537  62.1419525
  89.4773960 103.4759903  63.0400276  88.7856102 104.4636154  62.1251488
   6.2341946   2.5175411  72.6686954   6.2371451   2.5544977  71.7122126
   5.8110189   1.6840889  72.8748798 113.8282871  89.4906139  91.3223362
 113.2856750  89.8170280  90.6045246 113.7333202  88.5390377  91.2807941
  43.8787079  85.3504944  37.3494601  43.3400631  86.1417294  37.3555899
  44.7553205  85.6556988  37.5831914  75.8525991  83.3022308  94.3139362
  76.5994358  83.5454750  93.7668514  75.2037144  83.9869499  94.1516209
  72.0965481  96.1644363  74.5920563  72.3968554  95.9272194  75.4694271
  72.8554344  96.0104465  74.0293741  96.0839367 100.0472260  87.9192352
  95.7714653 100.7090187  88.5361862  95.2867985  99.6848011  87.5326538
  35.9209681  55.8747339  24.2921805  36.1578631  55.0054026  23.9691067
  35.3832436  56.2508965  23.5953379  81.2925625  17.6432204  68.8695860
  81.3563824  16.6909885  68.7960005  81.8615341  17.8651559  69.6066427
  70.3597307  55.7228518  85.6718922  70.5070210  55.6216812  84.7315216
  71.2153053  55.9694815  86.0231686  81.3803768 103.5970497  87.1308708
  81.1530972 102.7274799  86.8015957  80.5527687 104.0779686  87.1283245
 108.5994339  90.4554367  94.2514992 109.0542126  91.2684155  94.4716549
 109.0016270  90.1706600  93.4309101 105.2780628  16.1175811  93.5004139
 106.2207127  16.0615611  93.6569405 105.1750946  16.8777442  92.9278946
  29.1791153  40.0432253   4.6781880  28.5217667  40.7345247   4.5992601
  29.6139479  40.0277185   3.8255969  78.5670137  71.8765354  92.8542709
  79.2732191  71.3910484  92.4278736  77.9833984  71.1993456  93.1963825
  92.3073483 103.7473583  87.2725296  92.0787048 103.3359718  86.4390373
  92.1709442 104.6829510  87.1232319  64.1161394  80.3193951  79.7101688
  65.0313473  80.0740433  79.8458958  63.6513805  79.9298763  80.4507828
  46.5944481  86.2475395  38.1371832  47.5145054  86.0397243  37.9742956
  46.5732718  87.2019196  38.2074237  94.9038792 101.4140034  79.6001244
  94.7881794 102.3449993  79.7900772  95.8498859 101.2757874  79.6468353
 112.0874500   9.6413916  40.2064180 112.1830654  10.5914366  40.2735424
 112.9719925   9.3015003  40.3416729  85.8451462 107.4057961  89.7255325
  86.2802887 107.6996708  90.5258560  86.1631298 106.5125656  89.5941734
  64.2119265  84.4790554  77.9364300  64.8602295  85.1377201  78.1856203
  64.3740702  84.3233967  77.0059919  99.4919491 106.8178940  79.8819160
  99.1594791 107.6013088  80.3200436  98.8851833 106.1237812  80.1393414
  66.2291956  90.9793472  89.6902943  65.7930088  91.7030048  89.2405319
  66.0970879  91.1611843  90.6207371  18.0125487   5.2399766  92.2031307
  18.0376518   4.3844220  91.7746162  17.5432444   5.0837183  93.0226231
  25.0064254  17.0068181  68.8477278  24.1215944  17.1804667  68.5265541
  25.5813003  17.3808515  68.1800079  65.5102348  77.5691843  75.9885406
  65.4087114  77.0254517  76.7697430  64.6210098  77.6681137  75.6483603
   5.0705111  50.2854919   3.9435172   5.0827867  49.9096823   3.0632618
   4.8593333  51.2090302   3.8067326  73.2737017  82.5657558  48.7367678
  72.5163794  82.2928715  49.2546749  73.3835554  83.4938335  48.9437485
  59.9584961  84.6570015  65.2258396  60.8596468  84.9320602  65.0570250
  59.6833992  84.2276192  64.4157839  79.2768002  74.7839451  64.1455841
  79.1007900  73.8470697  64.2322826  78.7866402  75.0487089  63.3672047
  88.4291744  63.5749578   5.2395260  87.9499245  64.2394447   5.7345170
  89.3372631  63.6711168   5.5264920 106.6618919   2.7178517  91.1429691
 107.4549580   3.1311262  90.8016682 106.8881321   2.4690515  92.0391464
  59.2518663  89.9976540  51.8245506  59.8234415  89.3705368  51.3815403
  59.2022800  90.7418537  51.2246037  58.0800819  88.5816383  47.5427341
  58.9990044  88.7500191  47.7512026  58.0598021  87.6630783  47.2742891
  33.6977005  57.7632189  11.9105279  34.4211841  58.3642912  12.0880556
  32.9283834  58.1997490  12.2763479  69.4150734  89.3284607  80.9023285
  69.4898272  89.2815781  79.9492025  68.6016893  88.8649654  81.1018658
  43.8661146  20.9480333  28.2459307  43.7747669  21.7766356  28.7163615
  44.5183039  21.1277223  27.5687337 108.2175446 106.3327980  72.8771353
 108.3711147 105.9571838  72.0102072 108.8621998 105.9053326  73.4409904
  60.0835609  68.6883354  50.8137608  60.1165104  69.5416880  50.3813982
  60.8343554  68.2114649  50.4600239  75.1702213  90.0125599  67.1997023
  74.5852327  90.7644558  67.1065187  74.8688555  89.3910503  66.5370321
   1.6881706   8.5385805  67.8282213   2.5608075   8.2271242  68.0684948
   1.3859241   9.0213251  68.5975266  97.1748161 109.4884300  59.1251755
  96.9064045 109.4101238  58.2097197  98.1313229 109.4650078  59.0971613
  72.0070076 108.7633419  66.0727930  71.3757038 109.4735241  66.1882687
  72.8526974 109.2049313  65.9950542 106.6871071  98.6398602  95.4809093
 107.1275234  99.4317245  95.7894897 105.8693409  98.9551163  95.0960732
  82.9823971   0.4068778  85.7002449  83.1268501   0.5987750  86.6268158
  83.5695839   1.0046203  85.2374840  61.1491203  29.1767406   6.3268870
  60.9603930  29.6223021   7.1527731  62.0950556  29.2708230   6.2146932
  12.5854552   5.3520662  50.1183605  12.3194647   4.4335446  50.0759459
  12.2692609   5.7310998  49.2982483  22.8905463  62.1416187   7.2176236
  23.5786796  62.6805067   7.6078814  22.2776222  61.9795179   7.9347557
  23.5692716  12.7831435   7.8639394  22.6231337  12.7122056   7.7373600
  23.8841629  11.8799520   7.8275961  75.9977007  54.7367144  72.7671862
  76.0448933  53.7903118  72.9025650  76.8868876  54.9874830  72.5167990
  50.3965378  12.0744324   2.3622057  49.8963499  12.8523469   2.1154445
  49.7444868  11.4762342   2.7271920  74.5589066  93.3773422  48.4690809
  73.9263487  93.9376736  48.9186668  74.6296453  92.6016521  49.0254354
 103.1179237   4.0738967  64.3935013 103.3556843   3.6665890  65.2264500
 102.3394871   4.5933899  64.5944881  62.0946693  14.5583880  24.4341183
  61.7534924  13.9045048  23.8239837  62.7810431  15.0095224  23.9425850
 114.4669247   7.1523690  75.1357651 113.5422611   7.2047561  75.3775835
 114.8157406   6.4427561  75.6752157  71.3673496 108.2408142  48.0813456
  71.7751980 108.0252266  48.9200401  70.8000612 107.4935055  47.8917599
  55.7524347  92.1476460  50.8683014  56.6191864  92.4045467  51.1829138
  55.6362534  92.6413631  50.0565290  55.4620075 110.4369926  42.8200054
  54.8594379 111.1613178  42.6512003  55.0647449 109.6868801  42.3775816
  86.1623287  80.4145527  91.8575001  85.5618191  80.4463768  92.6022243
  86.3106632  81.3324261  91.6300297  90.6075287  13.8674593  71.4868307
  90.3796196  13.8307953  72.4157810  90.4542637  14.7790682  71.2384129
 114.2413521 110.5249214  62.6360321 114.2382050 110.5777454  63.5917664
 113.4412575 110.9771538  62.3685265  88.1245327  91.9433498  71.5185928
  88.1685543  91.2771606  70.8326769  89.0344143  92.0715141  71.7867517
  65.4304695  86.8907738  68.8216114  65.7311010  86.0220242  68.5549021
  64.8944950  87.1941566  68.0888653  97.0702171  70.9914017  92.3366833
  97.8496170  71.5444803  92.2831249  97.3975182  70.1023865  92.1997166
  53.0210209  54.7012377   5.3062660  52.8819561  54.8318481   6.2442601
  52.4038744  54.0099096   5.0666159  35.8697152  94.7402191  60.6206465
  36.1271524  94.4164371  61.4838505  35.2698374  95.4629707  60.8050585
  27.3315597  17.8097165  94.4325161  27.4218965  18.5680068  93.8553905
  27.4707103  17.0552015  93.8601685  74.3718529  61.7100906  67.1850395
  74.5989799  62.4140453  66.5775108  74.8088503  61.9489002  68.0024958
   7.7248043  41.5200233   2.9643077   7.2842580  40.6721067   3.0207682
   8.0341923  41.6889143   3.8542435   1.2885548  12.6744068  52.2651482
   1.6252072  11.9728553  51.7077255   0.6090184  13.0942154  51.7376804
 103.8074875  19.4397712  83.2815075 104.5727158  19.9765956  83.0754185
 103.1731319  20.0569320  83.6461258  49.8946953  84.3940544  53.0183697
  49.9344778  84.5985126  52.0841074  50.8079529  84.4042492  53.3048868
  38.9147711   4.6944949  87.9026508  38.3620071   5.4356766  87.6550007
  38.9398217   4.7234377  88.8590908  95.0620651  22.5879431  55.7771015
  95.7298756  21.9051552  55.8408928  95.2106285  22.9890108  54.9207687
  87.9028511  74.8956633  64.5650864  88.6716461  74.3892813  64.3028641
  87.6258945  75.3422308  63.7650204  82.8459072  90.8202934  46.7608643
  83.3583546  90.2844524  46.1554623  82.6994324  91.6404819  46.2896204
  47.9591560  42.8546524   0.6522241  48.8101292  42.9893112   1.0692848
  47.9129934  43.5324049  -0.0221273  77.6267624  90.8459663  68.5493851
  77.5922012  91.7822552  68.7453270  76.7100477  90.5867577  68.4562778
  11.6929913  43.3159637  13.2975686  11.4999926  42.4649000  12.9042816
  10.8970416  43.5438538  13.7779450 113.6116791  57.0596361  73.3294439
 113.6483955  57.7716732  72.6907825 113.0372238  57.3877764  74.0212250
  38.2469606  51.2118721   2.4571808  37.3441482  51.4002132   2.7134806
  38.1897712  50.3950167   1.9614911 105.0979042  22.8253579  51.4159775
 105.5924702  22.1616077  51.8966818 105.7354546  23.2103205  50.8146715
  35.6383896  41.7167997  26.4077497  35.5356622  42.5119495  25.8848572
  35.9413338  42.0284462  27.2605896  67.4924994  57.9642439  80.0641441
  67.4764490  57.5563860  80.9299564  68.0371714  58.7433195  80.1764488
 104.6836567  28.6254311  74.5594406 104.9008179  28.9476275  73.6846495
 105.0770855  29.2638350  75.1543188 118.1152915   7.5796741  81.2896729
 118.2736167   7.0644724  82.0806980 117.2738408   7.2624826  80.9616756
 114.5873547   3.0536011  89.9874496 114.9003410   3.8512015  90.4141903
 115.0034809   2.3423222  90.4744339  34.8337793  20.5223393  78.8757992
  35.4382396  20.3422785  78.1557751  35.1994753  20.0450373  79.6205711
 103.8355637 108.4525776  86.0486317 104.6176243 107.9293251  86.2242126
 104.1719246 109.3256283  85.8464813  50.3019333  39.5392394   2.2017430
  49.5440245  39.8876905   2.6712018  50.5123138  38.7244081   2.6578367
  43.1100416  93.6309433  78.8873768  42.7833033  93.6712551  77.9885721
  42.5731468  94.2625618  79.3659544  13.2050610  97.4560642  16.0867703
  12.5549579  97.2580528  16.7608523  14.0395641  97.4695683  16.5554440
  70.2061844  93.6418438  88.0064106  71.0113955  93.6342335  88.5239220
  69.7586107  92.8309155  88.2478809 117.7655602  10.4684007  92.9607201
 117.7820015  10.9670520  93.7776089 117.7269363   9.5534647  93.2393551
 101.3605213   6.1098087  88.1349945 102.1562290   6.4668041  88.5295010
 101.6668129   5.3803658  87.5961685  47.1812820 103.1619835  39.8829627
  46.5131807 103.4369564  39.2550588  47.9951477 103.1552505  39.3791652
  15.3488350  80.6083107  14.0735054  14.6339273  80.0287819  13.8102758
  15.2404130  81.3861942  13.5263467 102.4740696  90.8964825  77.2501040
 101.7877007  91.5203953  77.4864435 103.1851673  91.0785866  77.8644466
 107.4914074  13.6643326  64.2779636 108.0399895  12.8805864  64.2457724
 107.5266457  13.9439464  65.1927328  46.1059380  55.8679819   4.4940776
  45.8828974  55.1653624   5.1046604  47.0627642  55.8674192   4.4674760
  73.8235950  88.6127663  73.0263662  74.3196774  88.8125420  73.8202333
  74.0260792  89.3333435  72.4297094  57.3002529  89.9122429  77.8826094
  57.8494120  89.5551586  77.1846533  57.0140648  90.7631683  77.5505638
  77.3197222 104.5945358  89.1648865  77.2002268 103.6699009  89.3816853
  76.7515755 105.0598621  89.7788239  34.9339199  85.7648087   5.6186056
  35.2962303  85.5592823   4.7567919  35.3547883  86.5884113   5.8651501
  37.8343487  64.0759420   8.4736598  38.3112597  63.4337425   7.9479492
  36.9157171  63.8210535   8.3877641  68.1467688  25.2575401   1.4271039
  68.7803900  24.6618083   1.8269224  68.3856356  25.2744487   0.5003423
 117.0638561  59.8056746   6.0121995 116.8885326  59.3465519   6.8336010
 116.1985493  59.9510241   5.6296438  94.2188454   5.3810477  60.3122044
  94.4831944   6.2458307  60.6260538  94.7060966   4.7674489  60.8620310
 111.5662289  17.6483047  83.0567455 111.4239311  16.9224417  82.4491978
 111.3324451  17.2924435  83.9140224  23.2026577  67.1048403  11.7845070
  23.4349728  67.8786039  12.2978842  23.1953573  66.3890886  12.4200177
  54.9938297 103.9454269  59.3413162  55.4562378 104.1599941  60.1514816
  54.9488592 104.7741985  58.8645077 108.7147236  32.6211834  51.9873714
 108.7482643  33.3968925  52.5471735 107.8249836  32.2854424  52.0963717
   6.1725271  64.6778297  17.2892118   6.0074705  64.7272110  16.3476443
   6.6399431  65.4878426  17.4932444  60.7092524  69.9932003  79.0310621
  60.4394484  70.6342983  78.3734655  61.4725399  69.5622921  78.6464310
 100.4541397 106.2341213  73.5029840 100.6955338 105.3085613  73.5390854
  99.6434212 106.2505436  72.9943609  26.3067198  48.8938284   1.1035455
  25.8806419  48.2766914   0.5087089  26.9640422  49.3322754   0.5632450
  48.9986753  83.6630249  48.1931877  48.5139370  83.8192463  47.3827267
  49.8986053  83.5057259  47.9074955  49.8753738 110.7523155  74.0372753
  49.2706013 111.4590931  74.2630053  50.5910921 111.1881351  73.5746241
   5.8600855  76.1085320   1.9205007   6.0615021  76.0534906   0.9863521
   6.5116549  75.5463076   2.3395383  32.6319551  83.0099869   4.6196529
  32.6704407  83.8880730   4.2405567  33.5385323  82.7031326   4.6056959
  33.6606026  64.0285492   6.0962617  34.0495062  63.7242985   6.9162726
  32.8451180  64.4539690   6.3612807 104.0584755 101.4548492  77.0355225
 104.0424919 101.6663265  76.1021137 104.2575741 102.2862339  77.4660921
  72.6309299 105.0527954  95.7760143  72.9636002 104.5817089  96.5399742
  73.3522463 105.6252575  95.5148125  41.8915701 109.7847748  71.8599892
  41.3328505 109.2671108  72.4397135  42.4513721 109.1396332  71.4279604
 102.4947739 108.5491562  56.0230732 103.0702209 107.9896450  56.5446568
 102.4994183 109.3900204  56.4804029  36.3965106  23.8255715   2.1514603
  36.5344715  24.6618986   2.5961578  36.5487528  24.0182614   1.2262985
  55.5281210  89.2893791  82.7485466  55.1397991  88.9763451  83.5655212
  56.1485481  88.6040783  82.5002384  84.5744610  94.8483276  87.7596188
  84.4015026  94.0302944  88.2256031  83.7932873  94.9890041  87.2246361
  66.9377279  93.7928677  69.3142223  66.7730999  92.9910564  68.8180161
  66.1368942  94.3069649  69.2112255  50.2345896  84.4746876  50.4352188
  51.0657597  84.1460514  50.0925970  49.5821381  83.8478184  50.1228380
 108.6782551  91.7717838  73.1546593 108.1662083  90.9691906  73.2540226
 109.4942188  91.5948105  73.6227608  73.2950783  98.1419373  51.5136814
  72.8747368  98.2003975  52.3716593  73.1329393  98.9940739  51.1089706
  27.8249884  30.1179981  22.5251937  27.8928638  30.7018018  21.7696810
  28.3797669  29.3708372  22.3011351  92.1828556  70.1905251  71.9076872
  92.4973392  70.8425188  71.2813997  92.8593826  69.5133638  71.9085026
  24.4102788   3.3764067  81.4921951  24.6221852   4.2604136  81.7919540
  24.1177964   3.4936669  80.5883503 114.5380497   2.0754036  75.0739431
 114.5862579   3.0239877  74.9552202 114.8968792   1.7140383  74.2634535
  91.4761543 108.6063576  81.3945103  91.7906189 107.7650833  81.0634327
  91.7025948 108.5975266  82.3244953  90.9479046  67.5973797  62.3426104
  90.1393509  67.8940010  61.9248962  91.6453266  67.9295301  61.7773533
  39.7811711  21.8341115   0.1858110  39.5108521  22.7481845   0.2731676
  39.1938984  21.3538459   0.7694978  98.1280613  73.5096407  63.3974457
  98.4855270  72.6393652  63.5736990  98.8908482  74.0878534  63.4046412
  28.8753009  53.8859320  15.0447881  28.6283827  53.6596251  15.9414756
  29.4330025  53.1619930  14.7599804  49.0699053  70.7067204   7.4790889
  49.9147511  70.2873516   7.6421803  48.6942577  70.2131224   6.7500639
  32.8995633  72.0665073  22.1104646  33.3142185  71.6712904  21.3435912
  32.0950103  72.4593496  21.7719364   0.8455550   1.5762766  85.9307957
   1.6852461   1.8767890  86.2784195   0.3482234   2.3797396  85.7780457
  25.6912518  35.9621930  25.7746434  24.8282099  35.8209920  26.1638093
  26.2477756  36.2147355  26.5113497 100.1924038  13.4697318  80.1535797
  99.5768166  12.7375495  80.1189995 101.0216618  13.0730462  80.4204082
  84.8909569  53.2967615  83.6329174  85.1612091  53.8337135  82.8880215
  85.6879139  53.1887341  84.1519642 107.1405029   1.8766853  69.0397644
 107.6249981   1.0783362  68.8296795 107.5381279   2.1915385  69.8515511
  39.0518284  52.7756977  19.3910873  38.9637327  53.3102942  20.1801848
  38.6878014  51.9250345  19.6362221  78.1332922  77.9318810  82.9159451
  77.7286053  77.8378439  82.0536137  78.0407286  78.8616323  83.1238556
  52.2222185  87.1989441  80.4132462  52.8135347  86.5766621  80.8367348
  51.4144850  86.7047119  80.2734756 109.6735001  81.8095207  84.0171242
 109.1513157  81.7666245  83.2160473 109.9851227  80.9140015  84.1481400
 102.0919037   2.9303950  80.5538750 101.8757153   3.1937698  79.6593809
 101.9967461   1.9779375  80.5527401  82.3355675  21.9527197  20.5225515
  82.1416473  22.8189540  20.1644063  81.6732311  21.8201995  21.2007761
  63.0330801 110.1232052  89.0694237  62.9651451 111.0705757  88.9506340
  63.7416983 110.0114918  89.7031498  24.1723442  59.3660784   1.3576515
  24.8522758  58.6974764   1.4406711  24.5267129  60.1265621   1.8184344
  96.0965919   9.5462734  45.8939219  96.4875698   9.6618199  46.7599583
  96.8250084   9.6653718  45.2844572  88.1568718  12.2722054  77.5731993
  87.9854298  12.4582684  78.4963560  87.9046917  13.0746198  77.1162891
  33.9014244 105.2941513  73.3485174  34.0027142 105.6051826  72.4489403
  34.3561149 105.9473038  73.8803911  49.9314594  24.6043849  24.1078830
  50.1577950  25.3143430  24.7086859  50.4979086  23.8787866  24.3703270
  58.2252836  96.8221474  79.8275518  58.1056261  97.7523613  79.6362162
  57.6652813  96.6597939  80.5866718 100.9065819  12.7960992  68.3576727
 100.4403400  13.4483397  68.8805771 101.4304638  13.3110714  67.7440071
  69.5323753  96.3465309  90.7957172  68.7014246  96.7607594  91.0284424
  69.7067690  96.6444874  89.9029446  33.9758015  28.7165570  80.5936527
  34.0238118  28.5438681  79.6533871  34.3065739  27.9161859  81.0013676
  16.5391243   8.4911335  70.5462122  16.6488230   9.3288469  70.0962830
  16.6668475   7.8335190  69.8624992   9.4838953  13.7267649  82.4932289
   9.3914092  12.9911482  83.0986595  10.4241061  13.9054012  82.4752331
 111.6266823  11.1670947  85.6381226 112.0382500  10.7362330  84.8889923
 111.6927528  10.5282545  86.3478756  71.2798929  81.9152260  70.8939457
  71.0627651  81.0171318  70.6439114  72.0494413  82.1310902  70.3672314
  51.0973120 104.4074821  83.2901573  51.9099045 104.6542263  83.7317848
  51.3720322 104.1473103  82.4109173  75.3892565  92.1681309  81.7084789
  75.1356888  92.6496696  82.4959087  75.0107574  92.6714802  80.9876347
  28.4091306  51.7103481   9.7188836  28.5970235  51.0502291   9.0516716
  29.1231537  52.3426867   9.6379536  42.6402044  33.4157777  72.6144838
  42.4015141  32.5308871  72.8905725  42.2638702  33.5031319  71.7387152
  86.2711906  68.0810452  34.1180253  85.6292439  67.5627184  34.6032834
  86.1636925  68.9709187  34.4538879   5.4429394   0.5297331  86.8871498
   5.2365661  -0.1342232  87.5450230   5.3562713   0.0729329  86.0504532
  27.4352789 102.0543766  74.1520548  27.3601484 101.3075733  74.7460938
  26.6231179 102.0402622  73.6456633   0.5493168  28.0636024  92.4327755
  -0.3713443  28.1042266  92.1739960   0.5322715  27.7174115  93.3250141
  77.8435326 105.6756115  76.8172073  78.2548046 106.2248898  77.4845791
  77.2767115 105.0829029  77.3108101  31.3617182  65.0011635   0.8126889
  32.2434402  64.8524666   0.4710903  30.9921432  64.1237688   0.9118249
 114.5779610  19.7418010  89.2213440 115.4433918  19.7635031  89.6297264
 114.1811466  18.9326417  89.5438766  81.2229729 109.4517422  95.6427288
  80.7763290 108.8941669  96.2797928  80.9726715 110.3427124  95.8871746
  57.2780895  43.4988070   1.3784893  56.6615820  43.9220285   0.7809626
  57.1364832  42.5616693   1.2445077  78.9684916  35.1469588  58.3656454
  79.6355867  35.3683949  57.7158880  78.2848120  35.8051729  58.2408810
   2.1165560  13.4136295  93.9539623   2.6393160  13.0496883  94.6684551
   2.6941189  14.0522087  93.5357952 110.9317207  53.1040335  82.5307655
 110.1074982  53.0595160  82.0460987 110.6845188  52.9342604  83.4397793
  67.4024248  21.6534042   4.8358989  68.2064629  21.1374307   4.7765636
  67.6962948  22.5253391   5.0997132  81.8170643 109.8023319  88.6686420
  81.4796734 109.0662193  88.1582069  81.0348225 110.2348709  89.0110493
  35.6882930  42.4102736  20.9995651  34.9616194  42.1815300  21.5790915
  36.1500883  41.5840626  20.8569026  49.2115259  20.8251715  10.4074812
  48.9741945  21.2583971   9.5875895  48.4621620  20.2642632  10.6076396
  32.7034402  59.2437506   7.9786146  32.1786046  59.3267012   8.7747908
  32.2089672  58.6367083   7.4279535  98.6868000  28.6266541  70.2540064
  98.6629009  27.7773166  69.8132229  99.6017647  28.7365055  70.5128574
 108.6117935  36.0250545  87.1278858 109.5598412  35.9336233  87.2231579
 108.3083439  36.2906790  87.9959869  50.1978397 107.5071907  68.9064980
  49.7750759 106.7603111  69.3303776  49.8341942 108.2726097  69.3516207
 113.4615040  13.9314306  81.7800331 114.2774200  13.7587261  82.2498035
 113.4235954  13.2511163  81.1077499  29.6032715  31.2612438  52.3658562
  30.0933504  31.8513989  52.9383659  29.1871285  30.6393123  52.9627275
  84.1273022  93.8933182  72.0305920  83.7808704  93.4231281  71.2722158
  83.5274506  94.6295643  72.1504354  89.8612881  42.0100164  12.2538459
  89.1421604  42.6396847  12.2027898  89.8878384  41.7509270  13.1749320
  59.4657183  75.8048677   8.7630385  59.8799801  75.0397444   8.3640265
  59.3272591  75.5533457   9.6761638  77.1130323  88.7528133  88.6463833
  76.8427086  87.8890324  88.9579010  78.0042791  88.8592339  88.9789200
   9.7104090   3.0476350  66.7457819   9.1104865   3.1217206  67.4879646
  10.3712285   3.7218761  66.9037342 101.5764904   9.4670397  85.0372314
 101.1815834   8.6048549  85.1672935 102.4743366   9.2803252  84.7629547
  17.9055107  13.1306732  62.2115278  17.1258056  12.6551068  62.4981070
  18.2200694  12.6396167  61.4524841  13.8159823   6.8577164  77.0252562
  13.2584977   7.5732857  76.7196369  14.6514416   6.9978845  76.5796232
  76.4024639  98.8215637  68.7976456  75.8566713  98.8325214  69.5839119
  75.9183073  99.3493652  68.1626272  66.2301731  79.4613457   0.9659133
  66.3476610  79.0877628   1.8393365  65.4994965  80.0720215   1.0629110
  80.4156017  85.8215714  57.2342587  79.4948196  85.7657719  56.9787502
  80.3929901  85.9892559  58.1763840  47.4955606  20.4505301  61.2294149
  46.9337082  21.0885310  61.6693068  48.2753706  20.3969789  61.7819214
  19.8174262   2.5416040  76.3819170  20.1396537   3.4348530  76.2614727
  20.1175761   2.0717543  75.6038570  73.1984329  59.9734545   2.0059784
  73.9826822  60.4835796   2.2083493  72.4715090  60.5677176   2.1921636
   7.1030653  27.4389315  74.3358946   6.2673283  27.4219251  74.8022509
   7.5156224  28.2568502  74.6134520  70.0295639 106.3253689  72.1589661
  70.1379919 105.4956436  71.6941738  70.4345322 106.9759178  71.5853596
 101.8848324  97.6812649  37.6173258 101.1619091  97.6184940  38.2415628
 101.4885712  98.0509853  36.8283319  41.2914753   1.4872603   3.0883142
  40.4627991   1.7352727   3.4982073  41.5311956   0.6632131   3.5122395
   2.7054781  12.3267961  59.9163389   2.2481713  11.5803611  60.3035545
   2.5697857  12.2281992  58.9739466   7.2700560  27.2987866  93.2931900
   6.5116787  27.7925634  93.6050892   7.3343903  27.5201225  92.3641586
  49.9045467 106.4312649  89.4666767  49.3876362 105.8265209  89.9989510
  49.5436287 106.3424873  88.5845852  96.8815708  24.0030551  93.3335018
  96.7531872  23.5762072  94.1805840  96.6550541  24.9197292  93.4904385
 111.1745644  20.3136396  64.3878031 111.9860744  20.4894614  64.8640060
 110.8521843  19.4923365  64.7589779  47.3295593  28.6304665  67.3240900
  48.1852436  28.8054514  67.7157784  47.2095537  27.6859713  67.4228859
 110.9883118  13.7150550  94.9944019 111.6819954  13.7599814  95.6524372
 111.3736343  14.1110194  94.2127609  89.2139530  20.6223226  73.9535332
  89.6254444  20.2768016  73.1613731  89.9430943  20.7778287  74.5538712
  33.2855463  31.6114569  67.6502037  33.9710402  30.9596872  67.7969265
  32.7370834  31.5626192  68.4331703   4.5315483  95.4969120  64.0945578
   4.5577648  94.7251511  64.6601725   5.4489458  95.7502174  63.9923382
  11.3429058  91.3882637  11.7621601  11.4496791  91.7611027  10.8870459
  10.5778301  90.8178616  11.6877770  40.5613852 100.4342079   9.8041749
  39.8108745 100.0093842   9.3888533  41.2018108  99.7318649   9.9173069
  44.3610287  30.1148820  53.6635351  45.0334454  29.4844484  53.9216995
  44.6060133  30.3763628  52.7759314  50.3665638  60.5706692  11.9300306
  49.4124413  60.5955601  12.0026100  50.6719971  61.2195921  12.5639391
  65.8630228 100.9266090   8.8438332  66.2124825 101.3080597   9.6491903
  65.2666664 100.2402592   9.1430235  14.3389881   3.4595764  86.9673157
  14.4820368   2.6630640  87.4785233  13.7603605   3.9931184  87.5120640
  46.6537905  39.0889239   7.9552794  45.7458687  38.8546085   7.7629155
  47.1129322  38.2503057   8.0015230  46.9363976  51.2602329  13.5841084
  47.8806114  51.4018345  13.6522007  46.7783308  50.4568052  14.0798438
  24.3231940  53.5681629  31.6390896  24.5460606  52.7298689  32.0438457
  23.3836699  53.5083151  31.4660454  48.8251972 109.3752670  40.2635908
  49.3957424 110.0334358  39.8666978  48.8645363 108.6307907  39.6632171
  36.6232038  11.4951324  76.4805174  37.2574639  11.2638307  75.8019590
  35.8855271  10.9039259  76.3303900  20.2889872  52.2784948  31.1527371
  20.0397515  53.1558132  30.8621716  21.1889791  52.1709442  30.8450341
   9.9010056  22.3051977  86.7309093   9.7461402  21.5331769  87.2751808
   9.1039848  22.3935604  86.2082386  65.6839466  69.3248510  63.2406473
  66.3209009  68.6834860  63.5555649  64.8815203  69.1213655  63.7212086
 112.6421261  36.6660810  92.4561501 113.5388470  36.3826084  92.2779083
 112.6528931  36.9304681  93.3760548  94.1581917 103.1660748  63.5500813
  93.6498737 103.8985062  63.8984776  95.0584602 103.3504486  63.8179493
 116.9523018  95.1345730  79.7921228 117.1965463  95.8495617  80.3798008
 116.0378131  94.9501610  80.0064373  68.4996605 110.2499580  72.8742170
  68.5302401 111.2066460  72.8816319  68.2930994 110.0239468  71.9673109
  42.1191597  68.4523869  26.5729880  41.9165516  69.1897917  27.1486735
  41.7292643  67.6943827  27.0084739  83.0236912 105.0792122  34.2984438
  83.5008717 105.9088802  34.3122959  83.5807228 104.4743252  34.7884107
   7.5335175   5.9785134  85.5189228   6.9696748   6.4181286  86.1553574
   6.9259971   5.5797476  84.8959160  95.4953384  94.8876190  85.0552273
  94.7569466  95.3665924  85.4315281  95.4865646  94.0424633  85.5045319
  53.2353783  74.8584557   7.9962236  52.6253223  74.2287302   7.6121593
  52.9610825  74.9306822   8.9104319  10.2925444  89.2136192  38.5473824
   9.4116586  89.0126514  38.8634324  10.8075285  88.4360790  38.7629461
   5.5150694  57.1432066  13.2429588   5.1476276  56.3330173  13.5962462
   6.3028502  56.8651533  12.7757120  29.5919919   0.0057158  93.2114506
  30.1782417   0.3180680  93.9006424  28.9496207   0.7076418  93.1070995
  41.8118858  83.5850716   4.2001688  42.5858593  84.1441631   4.1322309
  41.7178440  83.4191799   5.1381814   0.9014763  24.0234327  94.9756145
   0.2329312  24.6511531  95.2499294   0.4223175  23.3712816  94.4644070
  85.3907681  25.5080771  78.1733370  85.3035069  26.3810778  77.7906036
  84.7770500  24.9665380  77.6770401  40.8395672  46.3192892  64.2293787
  40.1335049  46.5746546  64.8230934  41.0425758  47.1173477  63.7413979
   0.7260656  27.0218492  94.9204254   1.1796007  27.7341485  95.3711605
   1.2393281  26.2412548  95.1289082  94.4923973   1.6298871  68.2664680
  94.6159649   2.5576508  68.4670067  94.6834850   1.1794919  69.0891838
 115.4280472  49.6975565  72.9205418 116.1876965  50.2767611  72.8598642
 114.7174168  50.2650499  73.2191849  39.5607400   1.5491991  66.0288477
  39.4392109   0.6907438  66.4344549  39.0911794   2.1540940  66.6031694
  98.0433178 110.4482841  74.3311787  98.3513355 109.8231602  74.9873638
  98.3220959 111.3014603  74.6637344  70.4660511 103.7391663  66.1684275
  70.5819988 104.6413136  66.4666224  70.7683516 103.7463760  65.2602482
  13.0604005  22.7985525  84.2431831  12.9858065  22.2381282  85.0155830
  13.7802541  23.3950520  84.4486904  35.3968096  30.8615017   8.1440300
  35.2452612  31.7990470   8.0245548  35.3337240  30.7272768   9.0896702
   7.2141188  26.0598779  83.8678455   6.2760395  26.0204911  84.0540886
   7.4768078  25.1450229  83.7665176  82.6614475  86.0244560  94.5064449
  83.0673218  85.1914024  94.2666149  83.2078171  86.3614464  95.2164841
  16.2063146  23.5451388  74.4241142  15.3707838  23.1481194  74.1781569
  16.8306184  23.2061887  73.7825632  71.8556356  90.6210041  89.4895649
  72.5291538  90.0904655  89.9151516  71.0300255  90.2845001  89.8379421
  58.7419319  25.3946042  57.4791622  58.8200617  26.1997581  56.9674444
  58.2052231  25.6407571  58.2325411  84.0182877 108.7738609  73.9984846
  84.7422504 108.6944962  74.6196127  83.2782173 108.3556938  74.4385529
  55.8484125  58.3357525  15.5304372  55.0952911  58.5354805  16.0864472
  56.6063976  58.6120272  16.0455644 106.8004513  53.0212450  84.3457699
 107.6602173  53.2808781  84.6768761 106.1789703  53.5202742  84.8758316
  28.8793850   6.8582517  67.9456568  28.8108468   5.9527457  67.6430130
  28.3990860   6.8710929  68.7735367   2.5469127  96.7626190  59.5590258
   1.9215423  96.0922337  59.2838478   2.5146571  96.7421055  60.5154610
 111.7448711  17.2145653  62.2665167 111.4747715  18.0956626  62.0077801
 112.4301052  17.3562264  62.9196739  24.1882634  19.9802494  66.2669611
  23.4697723  19.7833216  66.8679762  24.9095201  19.4267428  66.5663767
  64.6921110  97.2457695  57.9413033  63.8778305  97.6928329  58.1722021
  64.9836779  96.8418598  58.7586641  25.4709029  40.6530142  95.6812668
  25.4586220  39.7071981  95.8279419  25.0366139  40.7700205  94.8363209
 114.1211700  28.5327888  85.8397579 113.3167744  28.4116220  85.3352833
 113.8407516  28.9930701  86.6307926   7.9274213  20.3301024  85.3391933
   7.1961933  19.8512542  85.7293797   8.5749960  19.6549368  85.1366329
 114.6953583  13.0777001  89.2671299 115.4378796  13.2523763  88.6888695
 115.0595951  12.5369048  89.9679279  37.8014612  17.4433339  77.4095249
  37.0892811  16.9125545  77.7663231  38.3654022  17.6241052  78.1615400
   5.1103729   3.4975344  90.1927376   5.8043933   3.1539083  89.6301651
   4.5792073   4.0424904  89.6121216  27.6824880  34.5864224  55.8600473
  26.9025660  34.5322824  55.3077555  27.9550743  35.5020499  55.8004618
  51.9488621  76.2248802   0.5965234  51.3591099  75.6797218   1.1173221
  52.5498533  75.6031466   0.1860577  64.4567490   6.7165709  43.6499548
  64.4870138   7.2973919  44.4101906  63.9847231   5.9429967  43.9581919
  24.7747111  47.5484324   3.0252075  24.4798160  47.0867920   2.2402488
  25.5941463  47.9678202   2.7627820 117.9095650 103.9150238  79.5875597
 117.5965405 104.7923279  79.3671703 118.1385326 103.9684868  80.5154324
  93.3836460  91.8172455  39.9273014  93.0887890  92.0279598  40.8132410
  92.5772285  91.6461658  39.4408274  35.8448815  70.6349087   4.9663183
  35.7802033  69.9349213   5.6159872  35.2196980  71.2960148   5.2634972
  98.9844990  36.9199085  83.4080315  99.9144077  36.9451380  83.1824970
  98.8874245  37.5764680  84.0977669  43.7952662  15.8554745  88.2880688
  42.8617859  15.7741487  88.4836102  44.0152788  15.0449681  87.8288269
 112.3103428  20.2151346  79.6119022 112.5395203  19.3133950  79.3870115
 113.1407833  20.6166768  79.8675585  27.0879531   8.7172002  44.8103523
  27.7119207   8.0665922  45.1322317  26.2955213   8.5642195  45.3250170
  95.5378342 101.1824989  71.5070534  96.3814640 101.3413906  71.0836267
  95.0145531 100.7389355  70.8394766  26.7711663   1.4898585  60.6545973
  26.3918424   1.6455565  59.7896671  26.2383914   2.0186816  61.2485075
  62.0326471  77.0388508   6.9749397  61.1385202  76.8417740   6.6957867
  62.1427822  77.9706526   6.7856133  20.0551891   2.1295539  71.8192053
  20.0321102   3.0522546  72.0728254  19.1567135   1.9311264  71.5553951
  75.1755810 102.6513290  62.7863216  75.3713655 103.0096149  61.9205666
  76.0277700 102.3915195  63.1363297  -0.0143553 103.0698013  69.4788313
   0.5956162 102.6096058  68.9022923  -0.5412884 102.3749924  69.8735762
 103.3702946 101.9337654  91.9688416 103.5785580 102.5590038  92.6630592
 103.4677792 102.4341393  91.1586952  37.9040575   1.4978407  91.6350269
  37.1333075   1.9119255  92.0232487  38.3749962   1.1229865  92.3793030
  56.5187216  38.2102680  74.6021271  56.0107231  38.8130140  74.0591097
  55.8629513  37.6449180  75.0102663 112.5311279 102.4730110  86.3241100
 113.4785366 102.5831318  86.2433147 112.4221802 101.5931702  86.6849804
   0.9498265  88.0928516  68.6550236   1.3125922  87.5972080  67.9208755
   1.3773301  87.7236652  69.4277954  97.8226662  93.6936951  46.4918327
  98.3937454  93.3779049  47.1921015  98.0119610  93.1183624  45.7506227
  37.7522445  23.8402629  77.3045015  37.1318412  23.5611296  76.6311359
  38.4560466  24.2699289  76.8184137  48.0688715  59.8526907   3.5298604
  48.9285803  59.4319344   3.5200801  48.2420397  60.7574368   3.2697088
   3.5411844  23.3174014  95.0942326   2.6425838  23.6172605  94.9569988
   3.4797499  22.7037835  95.8263016  46.1035919  10.2654624  91.2081337
  45.4318619  10.2733314  90.5262661  45.8598089   9.5345461  91.7760849
  48.0014992  48.1395340  65.4277849  47.5025606  48.1866264  66.2433052
  48.9167738  48.1873941  65.7038689  84.5998287 107.6628971  86.0872364
  85.4771614 107.7001286  86.4682102  84.0160275 107.9046345  86.8062401
  85.0204563  84.6058369  65.4962158  85.4088211  84.3318176  64.6653605
  84.1230106  84.2747211  65.4618692  49.8393202  66.3297224   8.9552283
  49.5747375  65.6828451   9.6092731  50.0850391  67.1006632   9.4665998
  27.9342794  52.4752569  55.5454254  27.1664619  52.1723938  55.0606966
  27.5736737  52.9062510  56.3203096  88.2988834  78.6278772  83.9580631
  88.5030842  79.3682718  83.3867931  88.3255482  77.8651381  83.3803558
   9.4785410  17.8416634  85.7225513   9.3991482  16.9012415  85.5627441
   8.8804770  18.0122960  86.4501762   6.4723319  43.5902882  68.2090092
   7.3152173  43.9269590  68.5130310   5.9385127  44.3723488  68.0688477
  82.8884029  82.0992851  67.5859737  83.0970383  81.2364578  67.2278786
  83.0622292  82.0178413  68.5237265   0.7622220 111.2301350  75.0889730
   1.3723762 110.7205868  74.5557737   0.2544982 111.7360115  74.4545126
  21.9666648  15.6280172  84.3478966  22.2886729  14.9701893  84.9641800
  21.8895102  15.1599073  83.5165405  78.5753536  88.5298729  57.5502443
  78.7137556  88.0317783  56.7446518  79.4167233  88.9549255  57.7165651
 116.4306831  96.0714149  60.8908510 116.8680477  95.2216816  60.8370256
 115.5196953  95.8868027  60.6622505  14.8741949  14.2514813  86.6696930
  14.6198356  15.1726782  86.6155624  15.7928348  14.2404735  86.4009666
  16.2605369  23.8776851  50.1287127  17.0179129  23.7998772  49.5485735
  16.5797102  24.3895292  50.8719301  26.6348171  30.4898334  47.5829124
  25.7758355  30.8962750  47.6977491  26.5742445  30.0351143  46.7427969
  76.9086933  53.8735914   3.0379760  77.7904272  53.6159134   2.7689421
  76.5560150  54.3446970   2.2830512 115.6540394 106.4137363  72.6711607
 115.7651711 105.4721546  72.8026772 114.9344063 106.4846802  72.0439959
  65.7945299 102.7078819  92.2731781  65.9697294 102.9416180  91.3616371
  66.5490341 102.1798992  92.5343227   1.9966653 109.3467808  70.3066301
   1.2908742 108.7006760  70.2812862   2.6794091 108.9777756  69.7463369
 116.9937801 107.5255108  56.2570715 117.0929432 107.7831936  55.3405571
 117.7810001 107.0159626  56.4491224 101.1884594  80.9025478  82.2586155
 101.2170029  81.8311310  82.0280838 100.6736946  80.4981041  81.5602779
  72.4205017 101.6165733  21.1054158  72.9229975 100.9370804  20.6559443
  71.9441080 101.1482143  21.7909265  82.0547104  94.8744678  86.3763618
  81.3277626  95.1869774  85.8377361  82.1211624  93.9418697  86.1712265
  62.9184818  78.2454062   9.2578340  63.5110331  78.7808466   8.7301826
  62.3603106  77.8040457   8.6176199 102.4044132 104.1237736  81.2744808
 102.0172501 104.8024654  81.8274021 102.6101017 103.4107590  81.8790817
  46.7120790   6.3037843  25.7327080  47.4970102   6.1311132  26.2526083
  45.9863472   6.1638850  26.3409615 113.5418606  23.4567094  76.1799145
 114.4668484  23.6386204  76.3458967 113.5360622  22.5833654  75.7881641
 103.9875031  82.7813721  59.0225077 104.1573238  83.7089825  58.8583899
 104.6956253  82.3243046  58.5687590  48.0397367  33.5818195  92.6164722
  48.9215565  33.9213490  92.4636936  47.8108740  33.1344199  91.8017960
 112.2280788 106.8703270  93.2702446 111.7408371 106.1024094  93.5687828
 112.9779053 106.5092659  92.7973461   3.9113554 102.1027851  80.9626007
   4.5980224 102.7615833  81.0660553   3.1569874 102.4685192  81.4245510
  45.4612398  35.6041551  65.5014038  45.7754326  35.3734541  66.3756466
  44.6737337  36.1247778  65.6595707 114.7470856  19.0959239  72.8430128
 114.6036148  18.2250345  73.2134199 114.6996880  19.6866775  73.5946751
  18.2133603   6.6590130  44.5676804  18.5059047   7.3659694  43.9924765
  19.0102065   6.1679381  44.7679663 106.3010120 100.9162807  60.6459093
 105.8264256 100.8571911  61.4750719 106.3873959 100.0087261  60.3541803
  52.1734333  29.1098094  89.5405579  51.5855646  29.7115135  89.0838432
  53.0429077  29.4946718  89.4304276  69.0592289  61.3275957  77.6004648
  68.5996342  60.9186172  78.3337736  69.9498749  61.4654493  77.9229164
   4.2564109  86.0611057  64.0707779   3.7987554  85.4118824  64.6048975
   4.9399012  85.5633259  63.6221313  80.8671284  99.6927357   2.7948409
  80.7909870  98.7412930   2.7227464  80.0157547  99.9765968   3.1277463
  35.6058979   2.5301057  59.1612196  35.5314159   1.6921109  59.6177816
  36.4686799   2.8621840  59.4093370  49.6121883  24.7184110  82.0782948
  50.1280785  24.9755621  82.8424740  49.4925690  23.7738466  82.1768951
 111.8605518  31.7455053  66.8968725 112.1528244  32.3274231  67.5984335
 112.3287964  32.0523882  66.1204672  16.4849818  28.0950522  86.0939693
  16.6860950  27.3654294  85.5079365  15.8603418  27.7325249  86.7221642
  12.7315152  10.1006997  53.0302429  12.2744107   9.4799554  52.4628210
  13.6568618   9.8746127  52.9361725  43.4915972   4.1291347  34.0279508
  42.7824068   3.5396773  33.7713909  43.7605906   3.8182080  34.8923564
  34.2209172  25.5568695  70.0059843  34.1052461  24.9478388  70.7353258
  34.0699935  26.4209175  70.3892279  74.6861935  96.3774109  81.8417549
  75.1547718  97.1287918  82.2052097  73.8974428  96.3042545  82.3791027
  19.1789615  39.9043489  39.0511823  18.7703776  40.1220083  38.2133770
  18.5941911  40.2820778  39.7081423  28.8267851  13.8065755  86.9047928
  28.7405777  13.6512923  85.9642124  28.5755968  12.9759157  87.3086929
  47.7685976  18.9614749  74.0302849  47.0217848  18.8515472  74.6188545
  47.5152349  18.4970927  73.2325459  60.2654839   9.1849256   7.2502017
  60.3529501   9.7688645   6.4968115  59.6882105   8.4850323   6.9450134
   2.7065724  52.0370483  89.2695713   2.2135940  51.6481876  88.5470772
   2.5117320  51.4772272  90.0211430 118.4311962 104.3997955  65.5608511
 117.9703712 104.5362282  64.7330427 118.1563950 103.5287476  65.8472109
  18.6150050  36.5281200   8.0805731  18.2374942  35.7370162   7.6960319
  19.3411899  36.7539406   7.4992871  24.0667057   2.0496644  55.1840067
  24.8745370   2.5264731  54.9935007  23.3782768   2.7122241  55.1264715
  27.1529961  51.5800762  37.8423858  27.9746985  52.0697784  37.8073621
  26.4854026  52.2443485  38.0135369   9.4167298  41.8363333  33.8675094
   9.6249467  41.5570879  34.7590804  10.0163317  42.5629330  33.6979151
 104.6293831  11.3974249   5.5013782 105.1694298  11.5828478   6.2696201
 104.7549820  10.4622602   5.3403723  56.0111523  27.5835347  55.1721239
  55.9546518  28.4073758  54.6880531  56.2486744  27.8443789  56.0619402
  88.7353134  96.4673805  47.1307182  87.9361153  95.9407234  47.1187210
  88.6775970  96.9717884  47.9421806 111.8991947   0.4771551  65.3003979
 112.1092319   0.6763577  64.3880177 112.6124763  -0.0907350  65.5918884
  27.4682665  30.2606535  39.6442151  27.7402544  31.1681223  39.7811604
  28.1623554  29.7391486  40.0473309  30.7351398   5.8059353  89.8401737
  30.9015441   5.2868664  89.0533352  30.8945870   5.2007920  90.5644703
  69.1806221   2.9049364  52.0482063  70.0870943   2.7660185  51.7738962
  69.2127514   3.6924887  52.5913095  15.3674948  37.1457100  52.3147678
  15.0447345  36.7515492  51.5043974  14.7765112  36.8177629  52.9925728
  83.3753204 100.5434132  72.9496050  82.7734280 101.1821938  73.3315945
  82.9384613 100.2512741  72.1495819  64.0558052 109.0811825   2.0584291
  64.1295862 108.1434345   2.2356531  64.9176836 109.4349766   2.2780304
 101.2903404  13.6619127  51.8126488 100.8718586  14.5026255  51.6274214
 101.4044285  13.2566106  50.9530258  18.0938530  46.4737511  65.8101082
  18.1912541  46.6469336  64.8737574  17.2829568  45.9696102  65.8773613
  28.3973432  36.0128188  63.1565046  28.2825899  35.1317143  62.8005266
  28.8649106  36.4892745  62.4704981  94.0109348  16.2613821  87.8300858
  93.9546585  15.3350401  87.5956631  93.3988571  16.3615477  88.5591698
  42.4774361  11.2390792  81.3979340  42.8726673  12.0206296  81.0116673
  43.1509161  10.5640078  81.3146687 102.8846073 110.0708199  96.2278938
 103.8216686 109.8764896  96.2472534 102.8164864 110.8700466  95.7055569
  61.6229439 108.0433464  67.0293760  61.7945480 107.8684902  66.1040592
  61.6851521 107.1860981  67.4506664   8.1751525  35.3989792  56.8979931
   8.9657563  35.5599332  56.3829470   8.3386725  35.8396530  57.7318430
  61.0865402  25.1070142  78.6890745  60.8597994  25.2678514  79.6050167
  60.2488852  25.1340866  78.2266569  48.6617994  14.2189705  82.6753426
  48.2969379  13.5023439  82.1561527  47.8976536  14.7143412  82.9701614
  21.8868279  14.7172320  75.0339222  22.8084946  14.5363581  75.2184391
  21.7891908  15.6551111  75.1984882  25.0339293   9.2355710  61.4283133
  24.4964051   8.4974927  61.7156076  25.6655955   8.8498813  60.8212900
  48.4839249  29.3431306  70.8895683  48.3195257  29.7516918  71.7394400
  48.2303381  30.0091648  70.2505684 102.4651814  69.1134214  86.7555141
 102.8452969  69.9791765  86.6064739 101.5200710  69.2536116  86.6977024
  76.2576008  96.4203453  92.1061516  76.4854479  95.4992962  91.9796753
  75.6590843  96.4186096  92.8531551  27.2818160  26.6795373  43.6739206
  26.8716574  27.5026727  43.9393473  26.6278338  26.0102153  43.8752842
  28.5706520   8.7419772  78.9394665  27.9223251   8.7868649  78.2366943
  29.0901804   9.5394063  78.8373423   1.5597805   4.3996322  61.7979193
   1.7281485   4.7081214  60.9075737   2.1310665   4.9347380  62.3488522
   9.8439991   5.2174342  74.0982294   9.9027401   6.1607587  74.2496252
   8.9628398   4.9825799  74.3891478  44.6125937  27.2597432  58.9525414
  43.8546371  26.7422533  59.2244530  45.2741528  26.6095924  58.7161589
  34.6190453  95.0333118  64.1379452  33.9060760  94.5399189  63.7323952
  34.4235134  95.0105476  65.0746870 113.1588459   3.3001733  79.3384027
 112.6275635   3.5869759  78.5956287 114.0625954   3.4265879  79.0494442
  97.9337406 102.3140621  77.0388842  97.4463272 102.3746681  77.8604555
  97.2583961 102.2891712  76.3610029  91.2337685  49.9560070  19.4821477
  90.6055069  49.2968845  19.1870582  90.7216358  50.7618761  19.5494008
  91.8515110 106.8414593  87.1719742  92.4427128 107.0461178  87.8964233
  91.5926647 107.6953793  86.8255138  50.6499863  29.3639326  52.2516203
  50.5793858  29.5592737  53.1860113  51.4798307  28.8944054  52.1671200
 104.2211246  98.4324741  66.5069008 103.7814903  99.1848755  66.9029331
 104.0838623  98.5427856  65.5660391 107.5982285  75.7829380  35.1468444
 107.8619576  74.9108028  35.4402065 108.4215832  76.2254143  34.9406195
  14.6989059  69.1665077  75.5493832  14.4141769  68.2550859  75.4825020
  14.9474132  69.4059324  74.6565485 100.9368134 102.3924446  64.4472027
 100.6584167 102.9617691  65.1645565 101.8304253 102.6738930  64.2510462
  40.9830284  29.0799904  37.5273371  41.1251640  29.9660635  37.1943212
  41.5946770  28.9981437  38.2590604  97.5616550  20.9124160  54.8662186
  98.4272480  20.6925941  55.2106953  97.7336693  21.5568972  54.1797161
  32.0364475  25.2600598  64.2281008  31.6403461  25.0414610  65.0716352
  32.9768133  25.1508760  64.3695927  20.9764171   9.5907110  67.9546022
  20.5700040   8.9242578  68.5085917  21.1861300   9.1310346  67.1416140
 108.3446407 100.7098770  82.4987602 109.2019653 100.3167820  82.6621723
 108.5420609 101.5861225  82.1679115 113.5832691  17.3310280  64.1139460
 113.7220669  18.1579125  64.5757103 113.4424114  16.6888869  64.8096752
  34.1444302  31.8959188  55.3762960  34.0389609  31.3688755  54.5842505
  33.9982057  31.2805200  56.0947227  29.7860885  18.6296403  53.6899853
  29.3751383  17.7688217  53.6103296  29.0841150  19.2494345  53.4916878
  32.0392585  44.7799206  67.1576357  31.7052341  45.6524086  66.9492483
  31.4619708  44.4619417  67.8517962  18.4644210   6.1758202  55.9568548
  19.3610489   5.9026802  56.1509848  17.9249489   5.6846750  56.5765142
  54.9910116  68.7458897   4.4368941  54.6034336  69.3490696   3.8027096
  55.6007338  69.2860794   4.9395514  32.7974725  68.7170982  25.2153206
  32.1377516  69.0916443  24.6316099  33.0210280  69.4304466  25.8131409
  89.7824669 103.0865479  56.1109257  88.9931011 102.5998688  55.8736849
  90.3886414 102.9270935  55.3874874  53.2865191   9.1193253  48.3450794
  53.6675692   8.7160635  49.1250849  52.3615170   9.2345744  48.5626221
  48.2333612  36.7030835  75.9992790  47.3941231  36.4646292  75.6055117
  48.7503433  35.8981490  75.9670925  47.2897530 108.3779144  87.2871971
  47.9485226 108.5725689  86.6205883  46.7305374 107.7135849  86.8844891
  15.2642131 105.5481625  63.8598776  15.6654918 106.3456440  63.5145950
  15.5978811 104.8492432  63.2973766  44.7311449  41.3120413  42.0562935
  43.8612127  40.9373522  42.1943617  45.0441647  40.9003639  41.2508297
  16.6728699  21.0784411  77.5872183  16.1262977  21.8641615  77.5988102
  16.0749853  20.3673506  77.8176832  22.1426821  20.7918167  88.0245018
  22.5685620  20.1518488  87.4541569  21.2320399  20.5009222  88.0728912
  53.4514904  41.2862301  52.7733040  52.9514551  41.0253525  51.9999123
  53.7637615  42.1680164  52.5704002 112.7852821  54.0592241  68.8830471
 113.1866550  53.4348154  68.2786989 113.2861328  54.8658466  68.7616444
 106.2178230  90.9422779  53.1013298 106.3671207  90.2901840  53.7859631
 106.1525536  90.4316521  52.2943401   8.1646663  96.4341831  57.8656960
   8.1407917  95.5935764  58.3229065   7.9869688  97.0825577  58.5470629
  38.5312939  10.5599439  74.5354843  38.8568139  11.4108062  74.2417097
  38.8023543   9.9499345  73.8494444  55.0278282   7.2446650  59.3152761
  54.9930620   8.0803061  59.7808170  55.6950760   7.3736072  58.6411905
  61.5789557  39.4953704  64.6404934  61.0226583  39.8154330  63.9303350
  61.1123753  39.7407961  65.4394293  24.7569466  52.9355812  70.5074215
  25.6703973  52.8863049  70.2256250  24.4107699  53.7097311  70.0634813
  91.1783218  10.6760144  88.2867336  90.4373741  11.2708890  88.1711483
  91.9176674  11.1337793  87.8866673   8.0465996  10.0723076  64.3971777
   7.5735754  10.2729142  63.5895634   8.8291746  10.6221914  64.3592787
  48.0092096  30.5139256  40.4065323  47.5889444  29.9853325  41.0849142
  48.4212589  31.2335753  40.8845997  34.2974401  30.0434971  57.6582527
  34.9821854  29.3963385  57.8271914  33.5139298  29.6753597  58.0666924
  62.6192808  21.7998624  48.1187105  62.7920628  22.7401972  48.0723810
  63.3199978  21.4018512  47.6021719  58.6970854  37.3331237  63.1614733
  57.8030634  37.1341705  62.8833103  58.6127377  38.1277728  63.6884022
  65.6757784   5.7670808  70.2836084  65.9537363   6.6830260  70.2874851
  65.7562542   5.4885000  71.1958313  44.1412163  23.2187581  92.5278950
  43.2874918  22.7869749  92.4970436  43.9485359  24.1098475  92.8195572
  59.7340345  77.9635000  15.7042634  60.5710030  77.6573706  16.0535431
  59.4087362  78.5758829  16.3641143  39.5426488  13.2449186  73.6616755
  38.9451003  13.9030409  73.3066511  40.0318050  13.7076831  74.3419743
  53.1241512  82.1398735  31.7681813  53.6119986  82.9136753  32.0500875
  52.7546740  82.3855400  30.9200239  31.8218708  73.8034010   9.3365377
  31.6384983  74.0141058   8.4209991  31.1115551  73.2156754   9.5939565
  74.6630239  24.7242880  81.4574528  74.3935537  25.4166651  82.0609760
  75.3657818  24.2654705  81.9177341  68.0519772  73.8433361  11.2180984
  68.2892799  74.0222836  12.1279848  68.8858891  73.8456106  10.7481921
  26.7126393  10.9656191  62.9847860  26.2084007  10.3665185  62.4342823
  26.4318061  11.8381298  62.7089453  19.7420692  36.6775584  59.4192457
  19.6478534  35.8202958  59.0039682  19.0313506  36.7129755  60.0594473
  76.8036604 100.8051968  16.3630354  76.4981079 100.7100868  17.2651577
  77.5146151 101.4438343  16.4170384  66.9937658  32.2675347  68.7329435
  66.8939924  32.0009160  69.6468306  66.1041498  32.2507453  68.3800554
  32.2774649  35.6971502  79.2439413  31.8289351  36.1968303  79.9261284
  32.3680258  36.3127112  78.5165405 100.2878475 106.6153526  77.1230412
 100.0325394 106.6421032  78.0451775  99.4767189 106.4157295  76.6556454
  73.2385111  97.4829865   8.3548886  72.7023602  97.8756428   9.0437937
  73.7572241  98.2103443   8.0112135   2.2600539  97.9060650  49.5298576
   2.7832630  98.6796474  49.3199730   2.7042589  97.1872616  49.0801525
   4.9407405  11.8280315  69.8290157   4.6773869  11.0373855  70.2999258
   5.8416831  11.6551709  69.5557880  43.3911324  29.5247769  66.7224741
  43.6366892  29.3729973  67.6351070  44.2152071  29.4636440  66.2393665
 110.1753044  38.9145017  76.7703819 110.0358009  37.9688478  76.8204498
 109.2992783  39.2906928  76.8557882  33.3267927  14.5962834  29.1975594
  32.5544953  14.7150457  28.6446738  32.9952312  14.1578436  29.9811840
  36.2896657  38.1006074  47.3180151  37.0425320  38.6678457  47.4843359
  35.6538129  38.6681271  46.8823051 111.5567780  38.8971472  68.9346361
 112.5136375  38.8865995  68.9114571 111.3019753  39.3198562  68.1145000
  15.8286321  27.0663714  62.7362061  16.0551107  26.3091803  62.1962070
  15.0961304  26.7662668  63.2743549  48.2060766  29.2073202  95.8999443
  47.4823713  29.5901608  96.3958359  48.2333565  29.7125459  95.0873947
  80.8776093  11.3822472  69.6551800  79.9278688  11.4326370  69.5471191
  81.0026264  11.1746025  70.5811834  10.5040967  73.3915424  89.3101120
  10.7196605  74.1680288  89.8266697   9.5592844  73.4523439  89.1691685
  61.9957542  45.1359272  81.8275070  62.5569916  44.7705412  81.1435890
  61.8818617  46.0533047  81.5791512  40.4100132  77.8292084   5.8100861
  39.4806862  78.0580044   5.7946980  40.8363485  78.5252428   5.3100824
  36.8463016   7.4245268  91.3083363  36.6523361   7.8251475  90.4609203
  37.2079539   6.5655851  91.0900307  56.2305593  41.5889835  86.3166142
  55.8155298  41.6385078  85.4554939  55.8672571  40.7967663  86.7123890
  37.7700639  17.8224444  64.9063969  37.6998687  18.7281632  64.6047735
  37.3443460  17.3079467  64.2206192  57.4153662  23.4265733  87.3209381
  58.1942177  23.1708169  86.8267727  57.3364305  22.7614021  88.0047226
  70.3258848 103.6000919   7.9433185  71.2777376 103.6891937   7.8956407
  69.9928427 104.4726086   7.7334630 108.6562634  51.2937450  65.0142717
 107.8226948  51.4328909  65.4637623 108.7223244  50.3433990  64.9209356
  10.5550134  71.6719866  92.0461178   9.6963084  71.7181730  91.6257381
  10.5522954  70.8318043  92.5047207  38.1467533  25.2335668  90.4652119
  38.6993718  25.4752278  89.7219372  38.6495423  24.5646858  90.9300041
  42.1076202   1.3599750  82.5741196  43.0169439   1.2486583  82.8515625
  42.1211004   1.1845767  81.6332245  96.9225121  90.5552292  18.5420585
  96.2114906  91.1841202  18.4188902  96.8269539  90.2599907  19.4475603
   5.5480599  11.8179667  18.1407666   6.0775578  11.3258362  17.5133336
   5.3515071  12.6415431  17.6943123  82.4967670   8.8537538  94.0274239
  82.1167946   9.5415640  94.5740223  82.8379536   9.3169034  93.2623577
   8.7929893  67.2767162  92.4555016   9.6268976  67.2019291  91.9915676
   8.9090735  66.7463303  93.2438183  23.4180617  30.8994150  70.7226849
  22.9028821  31.0745621  69.9351931  23.2377052  31.6434216  71.2972784
  46.0563803  17.0837057  50.3408432  45.8918667  16.9474196  51.2738991
  45.2329206  17.4340403  50.0011158  13.5187781  34.0375805  64.0785933
  13.2950413  33.3488083  64.7045088  13.3542669  34.8534727  64.5513391
  59.2263317  30.4225826  43.0504942  59.5398664  29.5331478  43.2142973
  59.9838400  30.8802152  42.6858234  45.3150702   8.4043175  93.3904362
  44.4242287   8.2303476  93.6943626  45.8073664   7.6190192  93.6295700
  24.2982149  42.7391815  86.0583782  23.9034939  41.8691111  86.0000134
  24.8338747  42.7064943  86.8509865  28.6103630  16.5267622  37.1346354
  29.4835949  16.8210208  37.3936939  28.4553671  16.9507217  36.2905574
  11.0180283  45.3463173  67.5945187  11.6586137  45.2369976  66.8917131
  11.5452898  45.4176140  68.3902216  66.3569975   5.8037770  53.0728483
  66.2983561   5.9204441  52.1245956  65.6868649   5.1511061  53.2757616
  10.5513942 102.6843929  61.9623661  10.5721986 102.7167797  61.0059404
  10.4915130 101.7517281  62.1691895  -0.0267614  33.8063025  40.7800865
  -0.6069578  33.4657693  41.4609957   0.8270442  33.4218121  40.9786224
  39.2702246  34.9997449  71.4049864  40.0865698  34.6364427  71.0617256
  39.5207477  35.8480549  71.7708302  47.4280500  25.5518198  48.9446974
  47.6058769  26.4813066  48.8009453  46.5850115  25.5365300  49.3977833
  39.5501328  24.1700053  59.2553568  39.1243672  23.4740281  59.7559309
  39.1007185  24.1664910  58.4102249  30.2843356 111.5870190  76.6723585
  29.5393467 111.8521690  77.2117281  29.9424314 110.8831596  76.1210728
  11.2782633  31.0937810  61.1227655  11.3306701  30.6821561  61.9853497
  11.5591931  30.4106736  60.5139351  25.3218722  36.6576338  82.5585842
  25.8844376  36.2114215  81.9256210  25.4904294  36.2087560  83.3870316
  49.3278551  23.1383061  43.2318497  48.7004948  23.4812927  42.5954437
  49.9943066  23.8216472  43.3033943 113.4174538  20.3126645  32.7124763
 112.9207993  19.4944322  32.7046800 113.8937569  20.2958345  33.5425854
  61.2629175  29.0472174  45.3946638  61.2905216  30.0031519  45.3538990
  60.9354544  28.7802196  44.5357609  63.8841152  12.7324700  41.9481659
  62.9414749  12.8618133  42.0527172  64.2553997  13.6122298  42.0145178
   1.4697237   5.2314299  56.2786961   1.8288839   6.1026227  56.1105919
   0.6686524   5.1976359  55.7558393  89.8896694  98.8800526  62.6648855
  89.7595882  99.7367764  62.2582626  89.8129749  99.0466976  63.6043406
  33.2027078  44.3462515  85.8751869  32.3031998  44.0189934  85.8705044
  33.5933328  43.9618874  86.6599846  56.7949820  27.5263762  81.4340496
  56.1546564  28.1268120  81.8157387  57.1275520  27.9884005  80.6645203
 107.1842861  44.6428919  42.7411222 107.9674530  44.9523354  42.2860193
 107.2027302  43.6923075  42.6302767  93.5657501  89.8972225  70.4455090
  94.4738579  89.6862125  70.2286053  93.2924080  90.5095387  69.7624350
  23.6833882  19.4842589  77.3584604  23.9938426  18.5793626  77.3902988
  23.7498760  19.7279418  76.4351892 104.7728062  26.3538933   3.5898280
 104.9960709  26.0240889   4.4602394 105.6008530  26.3426018   3.1097671
  30.1090693  51.8831396  74.8401737  29.3784404  52.4971247  74.7664642
  30.8796692  52.4400377  74.9509573   5.0733232  88.4389019  82.2742367
   5.7146698  88.0724812  81.6654301   4.3876132  88.7989521  81.7117405
  31.3311195  38.7387228  54.7287321  32.2035408  39.0894032  54.5494652
  30.8293653  39.4922137  55.0397348   2.8352910  93.7613773  10.5744970
   3.0126277  94.6329975  10.9281397   3.2339510  93.7703037   9.7043115
  67.2113323  41.6049004  75.1323938  68.1116915  41.2808228  75.1088381
  67.1310234  42.0270443  75.9877205   0.6360574  23.6367869  79.0618134
   0.9456290  24.2423987  78.3882904   0.2389230  22.9165888  78.5720873
  91.2601376  65.3907681   2.7130640  91.4520836  66.1368752   2.1449871
  90.6176949  64.8765182   2.2241484  26.9616699  31.7658758  56.1274815
  27.4266052  32.5513411  56.4157772  26.1353779  31.7859006  56.6102600
  11.9197774  18.8888478  46.6223240  11.6103876  18.9771330  45.7208157
  11.4503455  19.5696270  47.1044064  34.5777893  22.6220918  56.5369511
  33.6924958  22.3384023  56.3089037  35.1175451  21.8403840  56.4193487
  22.6850343 100.5986500  86.8627357  22.3690128  99.8384476  87.3510551
  23.2137227 101.0862064  87.4944115  27.1528697  27.4521208  89.1051483
  27.3859000  28.1074190  89.7628117  27.4799943  27.8129387  88.2811165
  30.9460211  42.0202398  45.9780216  31.8174696  42.3816252  46.1399174
  30.8710313  41.2909698  46.5934658  36.5029430  10.0527632  54.4757509
  37.4381757  10.1002192  54.6740437  36.4230251   9.3130493  53.8735294
  23.9732528  49.7896099  50.9753942  24.5179558  49.2627811  51.5601826
  23.0974269  49.7450829  51.3590288  59.6807003  17.0043433  72.8032589
  59.4230318  16.6360772  71.9581461  60.4435253  17.5475931  72.6052284
  18.1655264  21.9272971  63.5923052  18.7457156  21.2015891  63.3621740
  17.7064860  21.6274142  64.3768978 115.2201748 110.1175880  94.6444893
 115.4863644 109.5503521  93.9208698 115.8612156 109.9434090  95.3336620
   1.7001210 104.7319889  85.7898808   1.6760367 105.3597927  86.5120411
   2.3945504 104.1181946  86.0291672 110.7339573   7.2870958  46.5467787
 111.0684299   8.0863571  46.1399174 111.2114906   6.5797675  46.1133337
  20.6871390  15.3593981  62.2020340  19.7343206  15.2703369  62.1810627
  21.0136771  14.4667578  62.0889091  38.6664915  41.7530918  91.2900162
  39.0256763  41.4999485  90.4396343  38.5151768  42.6952934  91.2152195
  66.3399220  93.0115604   3.0749863  66.2381363  93.9424992   2.8769156
  65.6123829  92.5886822   2.6188165  44.7326469  12.6802480  92.1508312
  45.3459644  12.0156586  91.8371582  44.8497057  12.6848519  93.1008339
  25.9687877  99.1028500  16.5392268  26.4640975  98.6327934  17.2100031
  25.0716043  99.1205883  16.8723667  42.5844955  31.0663915  59.0429306
  41.8167734  30.7683659  58.5550642  42.2234726  31.5575004  59.7809744
  49.4344950  18.3100855  47.6579189  49.5422077  18.5453224  46.7363501
  49.1516209  17.3958099  47.6402569  39.8743320  13.5779965  77.6198816
  40.1237726  12.6670980  77.7756882  38.9180732  13.5611618  77.5809574
   5.5183983  32.9343963  70.8772469   5.0568938  32.7711940  71.6998100
   5.9694517  32.1115375  70.6883383  24.1354656  96.9565201  42.0426035
  24.0690374  97.4353600  41.2164497  24.5721912  97.5656033  42.6380205
  61.7908287  16.9453835  63.0326414  62.4680328  17.4339640  63.5005236
  61.7948627  17.3157835  62.1500206  12.3465967  17.0037949  94.9817848
  11.8943560  17.1248281  94.1468811  12.3684776  16.0550714  95.1069927
  32.3974848  43.1787586  79.5640135  32.4254370  42.3448944  80.0331879
  33.3167171  43.4034204  79.4198990  57.6535463  31.8883514  61.6628265
  58.3900642  32.3641300  61.2788916  56.8807888  32.2582126  61.2358809
 107.9753399 109.7603607  59.7211933 108.8399220 109.3688393  59.8454762
 108.1523514 110.6888580  59.5701885  41.6840792  35.9094667  92.3964500
  42.4641085  35.9859490  92.9459381  41.9225168  36.3479972  91.5797043
 106.9752693  38.0736709  93.6397362 106.7488956  38.1365824  92.7118206
 106.9647312  37.1347737  93.8257217  10.2447009  18.8424730  66.9386721
  10.3841460  19.7227180  67.2878933   9.3639135  18.8698363  66.5649080
 105.2814865  96.8486786  19.0205133 104.8426628  96.7645836  19.8670304
 105.2880192  95.9600544  18.6647999 107.6009178  93.5368061  77.3695326
 107.3493004  94.0787888  78.1173134 106.8111229  93.4905529  76.8307161
  55.0688696  75.0431585  92.3390293  54.2527819  75.5311298  92.4491215
  55.7322121  75.7166481  92.1886349 103.9459991  16.6271985  66.9367266
 103.5816002  16.3445950  67.7755213 104.5142555  15.9056354  66.6671658
  57.6967812  49.1952419  75.2472448  57.3857164  48.9987469  76.1309052
  57.4156618  48.4458828  74.7222090  18.7015998  16.7872179  51.6849327
  19.2123652  15.9966469  51.5107298  17.8079867  16.4707124  51.8172693
  18.2836199  26.7019224  50.9704447  19.0650380  27.2547102  50.9640169
  17.5919890  27.2607493  50.6160545  96.7469597  60.6984615  15.4672265
  96.6931152  60.2429485  16.3073695  97.6526165  61.0044336  15.4182827
  97.3652172  93.6203861  64.1680861  96.8005657  94.0197659  63.5063457
  97.3363113  92.6835632  63.9737988  13.9119005  54.4500923  78.2653809
  14.3983209  53.8288069  77.7235031  14.4352984  54.5337057  79.0624332
 101.8606091  51.8426657  13.0091166 102.5624752  51.3417196  12.5935793
 101.9111156  52.7079678  12.6029956  23.7972903  26.9694495  88.7302113
  24.4587588  26.8793368  89.4161987  24.1137791  26.4139271  88.0178547
  29.1542292   7.2572112  88.1207371  29.5361257   8.1043303  87.8910065
  29.4116759   7.1176535  89.0320396  71.9320250  65.3590059   0.6740004
  72.7259541  64.9885035   0.2884681  71.9102192  66.2616730   0.3562723
  34.4308424  11.9536376  55.3106308  34.4938087  12.1237981  56.2504768
  34.6713710  11.0318458  55.2174711  88.8970566  92.1447182  77.8663445
  88.9199829  91.9401455  76.9315386  89.2682838  91.3708305  78.2900572
   0.3887209   8.5474318  50.2031088   0.9359138   9.3237293  50.3221655
  -0.4782399   8.8166553  50.5066395 108.3428097 106.3059521  19.8344111
 107.9462337 105.9375095  19.0449786 107.6786423 106.9022274  20.1801801
 115.6566238  12.2744930  36.5370893 115.9296513  12.1361315  35.6301475
 114.7694683  12.6274204  36.4689636  45.4489231  13.8123953  41.6287184
  45.8226013  12.9437649  41.4801311  44.7401381  13.8808370  40.9890509
  87.8166103  97.3507500  74.2739391  88.0912590  96.9407177  75.0941086
  87.3045540  98.1121445  74.5465279  44.0757513  47.5137901  64.9323606
  43.9678144  46.5706205  64.8098230  43.4226274  47.7458429  65.5925179
  44.5408440  33.5359454  60.4665041  44.4676304  32.6006961  60.6567192
  45.1688862  33.8629127  61.1106205  75.3314257  97.0433712  23.5779452
  74.9369431  96.7819881  22.7459049  74.5912313  97.3231316  24.1165400
  43.2042694  15.7582533  42.2895861  43.7188673  15.2096438  41.6975975
  42.8141069  15.1416600  42.9091167  39.4244790  38.0010176  89.8783779
  38.9842153  38.0595422  90.7262993  40.3040218  38.3418059  90.0411606
  29.0316367   3.8013336  68.5805082  29.0478635   3.2066888  67.8306007
  28.1127024   3.8252470  68.8473797  17.5947094  16.5881276  47.6566744
  17.2606361  15.9681582  48.3049536  18.0039024  17.2803652  48.1759024
  48.2039499  15.0506699  44.9087763  48.5113144  15.8922708  44.5719242
  47.2549725  15.0757420  44.7861099  21.6312909  42.6211071  54.6279526
  22.0726538  41.8277979  54.9314117  20.7907295  42.6176071  55.0858545
  33.2129312   3.6885118  78.3005524  33.3249855   4.3959633  77.6655817
  33.9850068   3.7472466  78.8632965  19.0473926  37.1841955  66.4145947
  19.2699206  37.8308177  67.0843649  19.0347791  36.3492775  66.8825483
  63.8501310  23.1686926  70.0774765  63.2170391  23.5278249  69.4558239
  64.4144821  23.9092994  70.2993822  11.3708985  34.0609455  55.7365274
  11.4626694  33.5628581  56.5487576  11.9000530  33.5804725  55.0998402
  43.2354307  43.6516285  58.8581562  42.4748516  43.0730343  58.9126873
  43.5030460  43.7818098  59.7679186  17.3625934  40.0092506  64.8662329
  17.0506680  40.8260822  64.4767237  17.7471817  39.5265484  64.1345739
  38.0005002   5.0598639  62.9544687  38.3928561   5.5992103  63.6410475
  37.8366828   5.6697077  62.2351027  18.8201046  78.0011511  42.8355026
  19.1021323  77.3507881  42.1922874  18.1848764  77.5380659  43.3816385
 111.2780190  84.9051952   5.1622230 110.5078030  84.6603298   4.6493492
 111.6840458  84.0709972   5.3977746  16.9220781  40.5792332  55.5569315
  16.7265034  40.1423788  54.7279930  16.9332981  39.8730564  56.2030125
  62.0285606  18.3844483  72.0429182  62.7759790  17.8153145  71.8593884
  62.2013330  19.1776931  71.5358257   0.3020579  30.5667806  36.2120223
   1.2244216  30.3487229  36.3459182  -0.1712386  29.9756789  36.7975330
  91.2979698  86.0871601  40.9146595  91.8375111  86.3605785  41.6565323
  91.6435146  85.2284622  40.6707954  80.9179401  12.8504646  25.0245523
  80.9596634  12.3282850  25.8256888  80.3265095  13.5717893  25.2393413
  35.9361434 100.0817299  58.7988186  36.2236881 100.9347630  58.4734106
  36.6433764  99.4830227  58.5588264  81.1998940  64.9878836  95.2786160
  80.6288910  65.4702854  95.8765221  81.2792969  64.1189241  95.6721020
  33.0718541  34.9995470  60.8871746  32.1197939  35.0485754  60.9732437
  33.2217526  34.2533469  60.3067017 113.9702988  11.3696122  67.7650833
 113.7350655  12.2962010  67.7167702 114.5324612  11.3051558  68.5371208
  96.0156536 110.5922699  80.8341503  95.9980679 110.8541107  79.9136305
  96.3615799 111.3570976  81.2941551 115.8210373 107.3314190  30.2031088
 115.6476688 106.6762829  29.5271158 115.1172924 107.9722691  30.1016688
  67.8401041  50.9920311  67.6065207  67.7251148  51.1601305  68.5418034
  67.1345949  51.4838409  67.1862650  76.0475492   6.8307137  79.8766518
  76.9411707   7.1717954  79.9131489  75.9834194   6.4187783  79.0150070
  35.6757665  41.9092035  36.3161349  35.8674526  41.3817167  37.0915341
  35.2162647  42.6769114  36.6563129  61.9635439  21.2225890  82.0279694
  62.3282671  20.9646344  81.1814022  61.8873978  22.1753216  81.9756699
  18.0738211  10.9583199  94.5087242  18.8825870  10.5243087  94.7803211
  17.4703932  10.8187938  95.2385521  56.0517120  26.7833042  71.2581873
  55.2100801  26.4336395  71.5508032  56.3911915  27.2572017  72.0174026
  97.0391083  29.4548798  64.4921780  96.3165760  29.9396729  64.8911142
  96.7596245  29.3092084  63.5883474  19.4624388  20.3574109  88.7540531
  18.9349747  20.5970168  89.5160294  19.2652082  19.4322789  88.6075592
  30.1439428  12.2355926  62.7276421  30.6879067  11.6478813  63.2519770
  29.4036126  12.4476457  63.2961273  12.2527313  31.8861842  57.1427727
  13.1898856  31.7187548  57.2424793  11.9130576  31.8871379  58.0376768
  61.3907003 101.9823170  93.7514210  61.4227819 102.1441078  94.6942997
  61.1872864 101.0501003  93.6751556  74.5824671  52.6027775   8.5700256
  73.8346815  52.6957178   7.9797602  74.3352795  53.0997896   9.3498379
  84.7428799  94.8814011  20.9432364  84.1386890  95.3555679  20.3719568
  85.3723812  94.4790745  20.3448391  33.5830474   3.3945474  67.3619843
  34.4381523   3.2761511  66.9484472  33.7445235   3.2440144  68.2933760
  16.3207006  34.8379087  84.7955036  16.1633921  35.2655292  83.9537048
  16.5781021  33.9449525  84.5661449  93.2932663  83.5237026   3.9964393
  92.5388432  83.3756065   4.5666540  93.8534260  84.1220188   4.4908911
 106.4435959  24.3313622  68.8337660 105.9504223  23.6261368  69.2528868
 106.3700962  25.0682735  69.4402218   7.1223217  10.1929796  71.4983511
   6.7657793  10.4484212  72.3491478   7.1443403   9.2364120  71.5253115
  56.1396599   3.5413003  56.7413235  55.8306122   3.1854171  57.5744295
  57.0750475   3.3386442  56.7265558  21.6872287  42.8477526  67.8401852
  22.4529815  43.4174252  67.9131794  21.0455370  43.3696079  67.3583841
  40.9126949  25.2012253  39.6051598  40.9006119  24.7107983  40.4270887
  40.7328367  24.5449305  38.9319897  58.0562353  14.3965507  77.3119450
  57.7062607  15.1836228  77.7293921  58.9120817  14.2687953  77.7211380
  25.5840921  42.4973917  48.7452364  25.8828402  42.9223585  47.9412556
  24.6750784  42.7810383  48.8425446  28.5158944  25.2680683  48.3031845
  29.2791128  25.6321216  47.8546381  28.8557243  24.9618411  49.1440010
  77.9623985 105.9763432   6.9609398  77.0556784 106.2687874   6.8683869
  77.9709005 105.0982189   6.5800595  65.0307798  72.2714996   3.5888147
  64.4666862  72.5662613   2.8738722  64.9130535  72.9297113   4.2737442
  28.4797525  16.1488140  53.6924696  28.8506484  15.7726812  52.8942251
  27.5707364  15.8490121  53.6985779 113.1374359 102.5183678  56.2066793
 112.3853874 102.2549248  55.6763554 113.0093193 102.0707703  57.0430231
  26.9412827  27.4092174  54.8537207  27.0611572  28.3386016  54.6585131
  27.5344682  27.2397470  55.5855942 113.7532234  41.8953848  26.7377543
 113.7944603  41.2426138  27.4366283 112.8628635  42.2432995  26.7872167
  38.8344026  22.0832348  73.1863403  38.5333824  21.9486713  72.2877216
  38.8597083  21.2043095  73.5646009  64.8705244  29.8737097  81.5075970
  65.6771088  30.2957654  81.8034458  64.2275000  30.0849295  82.1844578
  16.7406392  28.5166502  76.0895348  16.0704505  28.0405521  75.5992174
  16.3598418  29.3823767  76.2369776  25.7534742  27.1164441  86.1058903
  24.9155378  26.7292166  85.8526230  26.3456011  26.8978429  85.3862858
  37.1096778  41.9155025  80.7355785  36.7002892  41.6619301  81.5628242
  38.0492616  41.8303394  80.8973217 107.1899986 101.8201160  75.7811356
 107.2010326 101.1397266  76.4543247 107.7872181 102.4920368  76.1098957
  35.3177834   5.8687693  88.9012241  34.9334693   5.8738559  88.0245781
  35.9480834   5.1486343  88.8822460  45.7837152  47.4139214  73.5635805
  45.5696630  47.1802950  72.6603460  45.8261204  48.3701754  73.5600138
  57.9105473  36.0095978  70.2539968  58.7892818  36.3839436  70.3166389
  58.0406857  35.1632714  69.8261881  79.3305683  15.2409399  87.4871540
  80.0336266  14.6268344  87.6988411  78.5806656  14.9306917  87.9947186
  55.6500769  39.2803311  78.0989790  55.2662086  39.2812657  77.2221231
  55.7763624  40.2062702  78.3061361  30.1681638  59.7664595  45.9853506
  30.1878953  59.9463558  45.0454187  30.8993340  60.2713871  46.3412571
  36.8984914  52.4662876  22.5588179  37.2631097  51.8428612  21.9306254
  36.8812037  53.2990885  22.0872545  76.2846184  50.7766247  79.5216608
  75.9523773  50.2054405  78.8291311  75.5141878  50.9858322  80.0497723
  29.8890710  15.2754509  44.4557762  29.3239141  15.7236648  43.8265419
  30.7661772  15.6117523  44.2718887  16.5118432  46.4345455  46.2218952
  16.1814570  46.0728931  47.0442581  16.0430861  45.9506035  45.5419683
  53.6035061  30.0018835  40.4051161  52.6691103  29.9984956  40.6127739
  53.8779163  29.0922117  40.5210114  46.4753914  28.2863307  61.1207056
  45.9222412  28.1959939  60.3447580  46.0028124  27.8163719  61.8077612
  50.7752943  44.3728781  56.2970495  50.4071331  45.0347233  56.8824100
  51.7085218  44.5817947  56.2561321  53.3091879  36.1579013  85.6125832
  52.5064373  35.7596254  85.2761269  53.1092548  36.3653970  86.5253830
  48.1023788   8.7011534  35.3020167  48.2168531   8.8735336  36.2365818
  47.7276421   7.8211367  35.2649236  40.1207304  23.2710624  47.9520559
  40.4435301  23.4601760  48.8331175  40.4244852  24.0081954  47.4223375
  54.0790606  45.7829762  68.8668871  53.4100437  45.3968000  69.4321442
  54.9090528  45.5334997  69.2732096 118.1682781  54.2845345  87.8324413
 117.5289605  54.2571545  88.5443020 118.7218444  53.5173321  87.9780293
  58.9569426  79.6121073  17.7621806  59.4328403  80.4299259  17.9068387
  59.0159702  79.1495609  18.5981250  50.9342480  42.1610403  47.2445393
  51.1266661  41.3009596  47.6179981  50.5163240  42.6437569  47.9576731
  23.5560799  22.7027297  45.2819967  23.5111785  23.4356093  44.6679115
  22.7974892  22.1610641  45.0643492  68.3080292  51.0524225  79.2453957
  68.7897348  50.2900457  79.5662928  68.5816431  51.1417675  78.3324957
 114.4642925 106.3716316  60.9145975 115.2691460 106.0072422  60.5462790
 114.5492172 107.3165798  60.7877541  44.5243073   1.5365532  26.9399500
  45.4332972   1.8364474  26.9455647  44.4450569   0.9975515  27.7269888
  55.3263378  23.1445336  43.9843988  55.6644726  23.9273715  44.4192123
  55.0434208  23.4521770  43.1232691  41.5340519  46.1542177  69.3933201
  41.5756464  47.0835733  69.6187067  40.8259916  45.8075619  69.9361944
 110.9383869  45.8241653  73.5371494 111.7333698  45.6667566  73.0277777
 110.9698200  45.1725960  74.2376471  42.8476095  15.8873570  65.4567814
  43.5861969  15.9429371  64.8504543  42.0737505  15.9026694  64.8936319
  40.2867365  38.6668301  38.9867806  39.6323204  39.2244029  38.5659647
  39.9290633  38.4929824  39.8574567 110.1509094  32.4480581  56.6543818
 110.1095867  31.6740680  57.2160435 111.0850334  32.6460171  56.5877151
  88.8937187  31.0808969  72.3715591  89.5988560  30.4967070  72.0927525
  88.7311840  30.8416820  73.2840252  47.1563816  45.0823498  52.9850864
  47.5167131  44.7618628  53.8119364  46.3986301  45.6078720  53.2417297
   5.1363546  43.2549143  75.2707911   4.6813208  43.8731384  74.6989679
   4.6585420  42.4325562  75.1628590   6.8771291  11.2349844  32.1922970
   6.7012548  11.8581784  31.4873648   6.5911257  10.3910244  31.8427753
  19.6670854 101.0954857  72.2997093  20.4764557 101.4374924  71.9199944
  19.8944259 100.8952522  73.2077026  32.7835727  49.8792648  67.0706320
  32.1085715  50.4938459  66.7827129  33.4332728  50.4265022  67.5118351
  57.0188808  19.2681682  46.2676859  57.1434402  19.8472500  45.5157709
  56.0855913  19.0559661  46.2545586  43.9699554  23.5954189  53.6154556
  44.3719673  23.0950308  52.9053640  43.6793518  24.4079399  53.2012224
  23.8158512  49.6736431  48.2081032  24.1707897  48.8302803  47.9270506
  23.9888954  49.7047472  49.1490221 112.5462914 111.0487938  45.1059055
 112.0478725 110.2333069  45.0531149 111.9435215 111.6720963  45.5113649
 108.5787773  70.3399658  73.2941008 109.3957138  70.4885864  73.7702990
 108.0163956  69.8835278  73.9198971  13.2090616  49.4250536  48.2478523
  13.3892417  48.5212851  47.9890728  14.0172362  49.8972178  48.0474901
  67.5892735  11.0561192  24.8576307  67.1079397  10.4352415  24.3107677
  68.4884453  11.0151088  24.5319915  45.0224924  22.7536201  74.3782187
  44.7376013  23.2485700  73.6100435  45.8274412  23.1890655  74.6587038
  67.8910112  39.4996428  85.1876354  67.4775267  39.2115879  84.3738270
  67.6905203  40.4341173  85.2404499  24.5406890  53.6527872  65.2843380
  25.3768039  54.0455246  65.0335455  24.7806454  52.9220390  65.8541298
  41.7323494  41.1938429  63.1324291  41.0965157  41.0969114  62.4235201
  41.8707275  42.1383858  63.2025671  30.2774739  51.5289021  54.5313263
  29.4534206  51.8559027  54.8922110  30.1948762  50.5760908  54.5707989
  15.9743977  12.9906845  73.0942917  16.0191953  12.1004117  73.4430599
  16.4326036  12.9425657  72.2552633  42.0235109  40.3271532  82.3297024
  41.4058161  40.8717918  81.8418026  41.6014290  40.1868010  83.1772804
  50.1014996  43.2619619  70.4760218  50.4429293  42.3731232  70.3779268
  49.1510963  43.1516886  70.5043936  57.0216465  30.5042005  59.1580582
  57.1155024  30.0086522  59.9716043  57.0133734  29.8376083  58.4711695
  60.6030512  26.0109520  36.0540295  60.1010323  25.6810021  36.7992449
  61.4581537  26.2346101  36.4214587  52.1447372  39.6569967  74.4658184
  53.0698252  39.8404551  74.6295023  51.7327785  40.5200958  74.4260883
  53.8597536  25.8889270  72.2234774  53.5112047  25.9014821  73.1148720
  53.4713364  25.1098967  71.8253803  53.4124279  45.1071930  56.7901087
  52.7600336  45.4730225  57.3874187  54.0796471  44.7320127  57.3648214
  45.1456165  55.0808811  64.0450096  44.4438744  54.6698332  64.5498085
  45.8381653  54.4207478  64.0160561  50.9259272  30.8420801  71.4995527
  51.4423370  30.7081676  70.7048082  50.5302000  29.9883008  71.6747475
  50.5184555  25.0956988  92.1533108  50.2513742  25.8149600  91.5809727
  50.3162289  25.4045916  93.0364418  48.2027578  20.6266999  54.0337420
  47.8767776  21.5139103  53.8826561  48.1840849  20.5234551  54.9851751
  25.8070421  51.4867592  82.0500183  25.1927257  51.1670780  82.7108097
  26.3168383  52.1589661  82.5022125  57.3453951  45.0064230  63.3224201
  56.5351200  44.6094990  63.6420107  57.1810675  45.1720095  62.3940849
  39.2066622  31.0845637  80.7619572  38.3671117  31.4781761  80.9995651
  39.6777582  31.7820859  80.3061485  59.4108009  48.7744951  66.0042810
  59.5706081  48.8628531  65.0646591  58.4614897  48.8574409  66.0946226
  39.6825957  50.5541658  64.5298672  38.9456177  50.5122423  63.9204931
  39.6053147  51.4154434  64.9403048  51.9413519  14.6174669  90.0851059
  51.3616419  15.1341641  90.6447506  51.3518333  14.1691172  89.4787407
  23.1318974  79.6029091  33.1534386  22.3939705  79.0108252  33.2988095
  23.6916280  79.4807911  33.9202619  49.6457052  37.4792051  93.5040855
  50.1265621  36.9046569  94.0998268  48.7300348  37.3834801  93.7660217
  41.2339020  31.4852715  41.8641376  40.5295897  31.8485904  42.4009562
  40.8270025  30.7555127  41.3971090  55.0913286  46.6364145  78.2140493
  55.7820654  47.2930145  78.3034658  54.5730734  46.7234993  79.0140820
  37.1367025  29.9405169  73.9037991  36.7599773  29.7085476  73.0549765
  36.3829041  30.1796579  74.4430876  16.0908484  30.9716630  88.9706326
  15.1984441  30.7785416  88.6833191  16.0692644  31.8973041  89.2134380
  39.5032001  24.8556519  62.1172476  39.9670124  25.0215387  61.2965202
  40.0523615  24.2219472  62.5788450 116.8554306  66.6618156  46.8133068
 116.1430454  66.8828726  47.4132109 116.8506336  65.7052851  46.7779112
  70.6032276  93.8164425  10.7732630  70.4386044  94.6326160  10.3010380
  70.2480936  93.9704323  11.6487038  50.0235415  33.9682174  60.6226826
  50.8507776  34.2533088  60.2345705  49.7150803  34.7290683  61.1148167
   5.4295748  19.0199709  43.1482601   5.5474412  19.4250035  42.2890282
   6.2578857  18.5709155  43.3170271 101.4306831  25.6459999  68.1229973
 100.4780388  25.5680704  68.1741858 101.7542648  24.7698140  68.3323479
  54.2081308  32.4969506  78.6005592  55.1178837  32.2790313  78.8032770
  53.7031269  31.7595720  78.9433050  41.6986990  37.2350812  83.9837837
  41.6633701  38.1118178  84.3663025  40.9635305  36.7698288  84.3829060
  45.7405853  12.8678834  63.2053661  46.4559984  12.6026464  62.6273823
  44.9467230  12.6901603  62.7009630  84.7219181 100.7694530  13.1212401
  84.0878391 100.0759125  12.9390812  84.2064381 101.4632988  13.5324442
  43.1377172  11.7059278  76.6159964  43.6132860  10.9238708  76.3359070
  42.9418468  12.1712315  75.8027601  38.5703802  30.1128507  66.5272665
  39.4512510  29.8100185  66.7477036  38.6849618  31.0344625  66.2954664
  83.2096767  85.5970478   8.2630545  82.9952049  84.7702026   7.8311443
  84.1457748  85.5326653   8.4522855  47.3954725  56.3832760  62.6084614
  46.4557314  56.2949181  62.7675772  47.5626469  57.3232698  62.6769638
  32.1244407  50.3109503  85.9362507  31.8684268  49.4625998  86.2981701
  32.6132751  50.0948954  85.1421452  45.9277773  26.4369583  94.5205593
  45.9154034  25.7829261  93.8217640  46.7012072  26.2177086  95.0401497
  63.0068254  74.1173792   4.4737610  63.5607481  74.8938990   4.5538530
  62.3359346  74.3662834   3.8380063  23.5402226  37.9258418  54.2947674
  24.3441010  38.0950832  54.7860622  22.8901958  37.7139926  54.9647045
   3.3814088  20.1225257  68.1031466   3.2462314  20.3304005  67.1786213
   4.0593708  19.4468105  68.1000662  77.1816874  52.0282841  89.8145866
  77.3835516  52.4947548  90.6256962  76.3809872  52.4425983  89.4929409
  34.8020220  29.4968343  68.0472755  35.6077671  29.9650455  68.2658720
  35.1003647  28.6589694  67.6934338  15.2588296 103.2791328  65.5267191
  15.8692932 102.6863480  65.0883436  14.9000382 103.8178730  64.8215580
  54.5075798  30.7587767  90.4901695  54.3071651  30.3414083  91.3279438
  55.1173449  30.1573300  90.0627518  66.3921595 105.7216644   2.3249742
  67.1472788 105.9418774   1.7795114  66.6877699 105.8852673   3.2205635
  71.3478088  23.1033349  46.9008064  70.9632349  22.6004171  46.1828852
  70.8162117  22.8765035  47.6638126  70.8015728  20.8321071  75.2783871
  71.4111710  21.4363599  74.8547173  69.9467897  21.2540078  75.1913357
  35.1571584  45.0718212  57.3125458  35.4968500  44.4210052  57.9267836
  34.8730564  45.7987785  57.8666687   8.9298749  43.7018871  36.6548085
   8.6284721  43.8736820  37.5469279   8.3563262  44.2324829  36.1018705
  10.0786853  16.7991328  62.5765324  10.7741117  16.7676699  63.2335138
   9.4062263  16.2056780  62.9109621  40.0334597  47.8716564  33.0274153
  39.7168851  47.8560495  32.1242166  39.3809342  48.3875179  33.5010481
  62.7849340   9.4448745  46.5908861  61.8384743   9.4500697  46.4479733
  62.9613686  10.2624702  47.0563269  35.1900887  43.3409739  79.2112207
  35.7812643  44.0318537  78.9121723  35.7433438  42.7633047  79.7369957
  41.7964506  13.7501335  67.4822950  42.3655844  14.2583084  66.9043016
  42.1307850  12.8552902  67.4214029  39.4485378  11.4890862  62.1700048
  39.7704649  11.1398947  63.0010653  40.1278782  11.2613428  61.5352917
  25.3632259 101.3947487  81.4284325  26.3103628 101.5208626  81.4855385
  25.0841069 101.2628078  82.3344707  44.6965742  17.9299855  59.3524456
  44.5487118  17.1268177  59.8517323  43.8423014  18.3614028  59.3342686
  30.9904647  49.1775703  50.4240894  30.9735727  50.0784969  50.1011705
  30.3215814  48.7260580  49.9093437  71.1189938  29.9637246  18.1813538
  71.6303349  30.7438850  18.3960927  70.2657652  30.1174140  18.5870814
  28.3080888  15.2000964  74.8453283  28.1642389  15.9049690  74.2139053
  28.8769388  15.5870831  75.5108213  42.5852394  39.9345922  44.7101212
  42.4655628  40.4837990  43.9353418  43.1065750  40.4720211  45.3064537
  45.6322336  21.3265967  46.0623503  44.7670698  20.9252882  45.9806728
  46.1382627  20.9539056  45.3403616  53.8419390  23.0688167  37.6692891
  54.2397022  23.1535697  36.8027854  53.7020493  23.9706945  37.9578686
  25.9398150  25.2600360  51.8299532  26.6873312  25.3047252  51.2337542
  25.1795506  25.4310441  51.2740898 116.0887337  60.6667852  72.4151754
 116.8576622  60.1043081  72.3224354 115.7716656  60.4947424  73.3017969
  68.0472851  43.9789677  84.5825577  68.6723089  43.7720251  85.2773666
  67.3884487  43.2868958  84.6391296  45.1116753  21.7748499  85.0855923
  45.7018042  22.3617196  85.5584240  45.3614426  20.8980513  85.3772640
  20.0830793  49.6749353  74.7866154  19.5817375  49.8376131  73.9876032
  20.9730697  49.5016241  74.4798374  66.3931370  38.5859585  77.5741863
  66.4385557  39.5415759  77.5431490  67.2148371  38.2941723  77.1793461
  10.8110321  36.0399127  81.2841320  10.3944838  36.8620110  81.0255241
  10.1774418  35.3641558  81.0429955  45.3424644  12.0043850  70.3575659
  46.1447811  11.5100849  70.1896715  45.5680895  12.5885117  71.0815287
  31.0101891  52.3571539  66.8057966  30.1694226  52.6958323  66.4981604
  30.7868576  51.8093109  67.5582695 100.6382656  97.4043941   5.2131087
 100.7007122  96.5143776   5.5598080 100.8287048  97.3117256   4.2796347
  19.8175716  46.4912701  87.7876377  18.8942420  46.7435741  87.7815819
  19.8061574  45.5386162  87.6951694  66.4638948  27.6199865  81.2878323
  65.9489918  28.4211946  81.3836098  67.3696661  27.9002285  81.4192581
  48.1632566  51.5509558  70.9695005  48.7664843  52.2107601  70.6274366
  48.6670828  51.0909367  71.6408968  68.6930370  26.7838073  64.7473240
  68.0821276  27.3136640  65.2594519  68.1357384  26.2897277  64.1460514
  48.6191607  15.9444416  60.8733702  48.3257532  16.7714918  61.2556362
  48.4672117  16.0475409  59.9339437  75.2854443  29.2214584  82.9039669
  76.2341070  29.3427229  82.8643513  75.0112343  29.7261596  83.6696815
  36.6709208  24.4919848  69.4244671  35.7781243  24.8356891  69.4562435
  36.8616891  24.2370439  70.3271580  64.6528530  15.3924751  62.4258041
  65.5216932  15.7879663  62.4960804  64.0803146  16.1159110  62.1707153
  60.0898838   8.8954622  60.9001827  59.2389107   8.5728788  61.1968613
  60.6806755   8.1507230  61.0122490  51.4797592  19.9344885  55.7676458
  52.0749140  20.6255341  56.0583019  50.7287836  20.4028392  55.4030657
  66.0564041  48.2243872  69.3352318  66.3580608  48.5490179  70.1836681
  66.2074184  48.9526463  68.7326765 115.1318645  78.5422468   5.7123464
 115.7349014  78.7570810   5.0007159 114.8379898  77.6524925   5.5168748
  32.4526906  42.5159216  26.8576574  33.3459854  42.3547888  27.1614575
  32.0287013  42.9659176  27.5883842  41.2353945  34.5336103  74.6063900
  40.9707069  35.2780581  74.0660524  41.6760969  33.9406180  73.9978075
  34.0654445  41.3462687  89.6402454  34.6828198  40.6403542  89.4485092
  33.2778573  40.8983755  89.9490070  86.7261505  17.7136278  49.9690247
  85.9104729  17.2382212  49.8112726  86.9606209  17.4943531  50.8707857
  46.1396074  38.8096237  62.1045637  45.7302523  39.5013571  62.6243401
  45.9144783  38.0002499  62.5633287  81.6043091  29.3863797  89.5074177
  82.5309181  29.1466594  89.4947720  81.2860489  29.0679741  90.3521442
  51.0060835  36.2159967  47.7788830  50.5836058  35.4583955  47.3741817
  50.3897333  36.9354439  47.6419973  39.2934513  30.8845496  54.3721628
  40.2257013  31.0476756  54.5154333  38.8736725  31.7275286  54.5436335
  57.3409319  10.4823983  51.7836046  57.0832825  11.3312435  52.1432018
  57.0644808   9.8481762  52.4450970  21.5848231  35.8616829  42.8258371
  21.0867953  35.1400852  42.4417830  21.8787932  35.5258346  43.6726046
  53.1505632  42.8770828  76.3838434  53.1210613  42.6664448  77.3171139
  53.4047794  43.7994337  76.3543987  20.5841398  72.0089579  76.0452890
  21.4380217  72.1943855  75.6544781  20.3542900  72.8129101  76.5111828
  43.7866640  18.2806635  53.7727785  44.6586418  18.5082114  53.4501219
  43.8827419  18.2548833  54.7247982  24.0676737  45.0738144  49.9796963
  23.5482144  45.4778242  50.6748009  23.4885788  44.4119406  49.6018028
 109.7007275  76.6465855  20.4597974 109.1131783  76.8919086  21.1745191
 109.5079803  75.7231379  20.2975440  45.6669331  52.0568180  64.8508310
  45.9196424  51.2164068  64.4686317  46.4150000  52.6303053  64.6842718
  25.5404162  28.7242889  63.5756826  24.8613095  28.2283092  63.1184673
  25.4494810  28.4656215  64.4927740  68.7895870  39.0384817  82.1151352
  67.9692650  38.7875414  81.6904831  69.1476917  38.2160616  82.4492264
  43.1380033  20.6939888  60.7929420  43.2777596  21.6147232  60.5716944
  43.1439829  20.2414131  59.9495125  39.1885018  42.3611212  65.3406382
  39.9339485  42.8205299  64.9540043  39.5758224  41.6055346  65.7825613
  51.9338131  90.9999847  10.1537764  52.2039557  91.7192459   9.5828778
  52.2415352  91.2558365  11.0233045  59.2427015  30.3145981  63.8282633
  58.5301685  29.6949077  63.9848280  59.0447712  30.6960511  62.9729557
  67.8017521  16.8346941  74.5444775  68.2697058  16.0239100  74.7441673
  68.4619427  17.5214803  74.6377945  91.7136669 101.7792797  38.3233571
  92.4267673 101.9695663  37.7138400  91.8479443 102.3907280  39.0474701
  39.1799831  17.4456048  13.6921418  39.0396714  17.3226857  14.6309900
  39.1531992  16.5607417  13.3280945  50.7436371  40.6033516  71.1439466
  50.7373333  39.7963023  70.6293011  49.9264288  40.5764437  71.6416264
 103.7638092  29.0166688  84.7150230 104.5755672  28.7878656  84.2623329
 103.3495712  29.6682930  84.1493130  50.9467840  34.1617274  71.0025024
  50.7089853  34.8698401  71.6010523  51.1392879  33.4189320  71.5747213
  68.7262583  39.1885448  69.2075729  68.2460690  39.8218584  68.6741257
  69.4591808  39.6868372  69.5691729  38.8162780  39.6031713  67.5059986
  38.6814570  39.6855569  66.5619278  38.6492586  38.6792040  67.6920605
  47.7327776  31.8756557  66.7802572  48.6171865  31.6610694  66.4836025
  47.8655481  32.3944402  67.5736475  74.9021196   8.8372988  89.5653343
  74.4030428   8.3375609  88.9192581  75.4779911   8.1915849  89.9748039
  64.0386534  39.0979433  94.1958809  64.7257996  38.5808468  93.7755585
  63.2240486  38.7646866  93.8195992  24.7014427  47.5816631  67.0128584
  25.2601910  47.3558807  67.7565384  24.0200019  48.1406212  67.3862696
  49.4271803  19.8332965  85.1498604  49.6799469  18.9327204  85.3530884
  49.3531704  20.2597618  86.0035992  10.5105114  27.5411344  45.0919151
  10.0488567  28.2593465  45.5246687  10.0158560  26.7581844  45.3338623
  56.5296268  27.9446340  91.2789154  56.5555096  27.1914411  91.8690491
  55.7214642  28.4024644  91.5102005  53.2606554  42.3204231  64.9335384
  52.4344301  42.2647619  64.4534445  53.0033588  42.3071623  65.8554125
  61.9603348  46.5659571  72.1111441  61.1571741  46.6585255  72.6235867
  61.6664267  46.5814161  71.2003136  44.1370869  22.2206783   5.5058360
  43.9259958  21.8224835   4.6613765  44.7996759  21.6427207   5.8842212
  64.6416807  37.7302122  70.3175640  63.9836693  37.8214288  71.0067177
  65.3239298  38.3589315  70.5530977  67.3093319  53.3912086  75.6345510
  67.3779011  54.3300533  75.8080530  68.0482101  53.0059958  76.1056185
  45.7988024  36.5185475  71.0336876  45.9831858  36.3731623  70.1057339
  45.1716232  37.2415924  71.0428476  32.5732446  59.7088003  72.9105711
  31.8778348  59.0918684  72.6824713  33.1975079  59.1894007  73.4172726
  59.5462322  43.5601854  64.2867231  59.3265247  43.8313055  63.3954048
  59.7901154  44.3722868  64.7308493  54.7583294  33.3185625  64.1584349
  55.1062822  33.1643581  63.2801485  53.8540125  33.0077291  64.1157770
  63.7089777  61.8946648  73.6101151  64.1851187  61.0890818  73.4087324
  64.2561102  62.5926590  73.2499933  38.8154817  48.4435129  88.5323524
  37.9326129  48.0740213  88.5482216  39.2978764  47.8851604  87.9226208
  37.5598502  37.8842497  86.8564415  37.5759363  37.1390176  87.4569416
  36.8173504  37.7098227  86.2780857  37.1883249  29.5612931  55.6017351
  37.8383875  30.2451468  55.4405022  36.6743970  29.5243835  54.7950459
  48.9105177   3.4846771  59.3670034  47.9608297   3.4441233  59.4795942
  49.1359711   2.6604968  58.9355803  62.5390291  24.4434333  82.1776676
  63.0690718  25.2221060  82.0075035  63.1074524  23.8758421  82.6982117
  60.8824158  68.2747889  73.9035416  61.7767525  67.9395294  73.9667368
  60.9757376  69.1275120  73.4788179  63.6151028  48.9584208  73.4982777
  63.2278204  48.7429142  72.6498699  63.2474947  49.8142290  73.7189245
  42.6352739  36.7850375  72.0058918  41.8394995  36.6960073  72.5303411
  43.0684471  37.5625944  72.3580217  20.8595800   8.7747192  15.2581036
  21.4695477   8.0534661  15.1032972  20.1417494   8.6171424  14.6448171
  34.3934727  35.8161068  64.5294094  34.8361444  35.1057792  64.0649652
  34.8294687  35.8539534  65.3807068  61.8178463  28.9392686  64.1199875
  62.3940086  29.4484639  63.5499096  60.9347963  29.2218399  63.8820601
  65.1181507  69.8753834  86.4899635  65.6165028  69.4005871  87.1551323
  64.7540140  69.1904211  85.9291935  73.6859131  62.3433399  92.6457214
  73.7701845  62.3475313  93.5991955  74.3976498  62.9055977  92.3398972
  63.5357618  41.6360903  71.9284773  63.6867952  42.5804901  71.8893385
  62.7524042  41.4965534  71.3963938  59.6857023  43.1235170  80.2819824
  60.5993462  43.3377552  80.4706383  59.6508360  42.1677494  80.3209591
  94.0635109  75.3350925  81.0580349  94.4959736  74.6098423  80.6072330
  94.3808651  76.1190605  80.6098080  58.8349962  38.3234882  76.3159180
  58.0052519  38.5083747  75.8759546  59.2621994  39.1768622  76.3899422
  73.1930494  34.5604849  86.4356327  73.4749985  34.1947746  87.2740841
  72.2375727  34.5090485  86.4610672  56.0640097  53.5693073  65.8956432
  55.7133532  54.4109583  65.6042767  55.4229784  53.2496405  66.5305614
  22.5257945  16.5387511  70.9826660  23.1913090  15.8837616  71.1931658
  21.8243289  16.3789535  71.6140461  78.6145401   0.3280414  54.9349260
  79.4548702   0.2842551  55.3911734  78.0130434   0.7058625  55.5765486
  94.0582085  56.5514135   1.1204270  93.3744431  56.7539787   0.4819474
  94.1286087  55.5969954   1.1013111  62.1790981  38.2019377  81.2746811
  62.0004654  37.5525236  80.5945492  61.3669205  38.2502699  81.7789268
  40.7895708  17.2874522  61.0528326  41.2566710  17.9700232  60.5710220
  40.0562000  17.7442527  61.4648199  97.5058937  64.3563795  87.9075813
  98.3376217  64.7191858  87.6028824  96.8681145  64.6344805  87.2502232
  61.5780830  66.2810850  58.5346746  62.0013571  66.4883995  57.7015543
  61.7047548  65.3381205  58.6395645  83.3224964  72.3615170  87.3636436
  84.1184711  71.9177055  87.6563740  83.6248398  72.9843712  86.7026806
  62.6863289  63.9863539  72.4738026  62.6209450  63.7975073  71.5376949
  63.0085993  63.1721830  72.8604507  47.4160957 106.9459057  73.6287832
  46.7537260 106.6452312  74.2509508  46.9147062 107.3622990  72.9277420
  87.3251057  72.9135418  58.4590006  86.4621830  73.2860804  58.2778454
  87.8313255  73.6437941  58.8149548  58.2370138  57.2390795  36.6659355
  57.6964521  57.7617550  36.0736203  57.7883005  56.3951588  36.7178059
  63.1990910  72.2815228  74.8306751  64.0085983  71.8222904  74.6069908
  63.1982756  73.0543804  74.2659426  36.5974593   6.7704582  18.4212732
  36.1834526   6.4737165  17.6108575  35.8834696   6.7999178  19.0581274
  88.2025719  64.4392538  74.5699310  87.5265980  65.0621891  74.3030310
  88.9142704  64.9860764  74.9026585  86.3166237  67.8797293  58.8435268
  86.0021210  67.6030064  57.9828644  86.7611122  67.1084929  59.1954470
 115.0717449 107.1793175   1.5995687 114.4035816 106.6339970   1.1843406
 115.5800438 106.5696144   2.1344805  74.6963310  66.7317247  54.2333174
  75.1753044  66.6214705  55.0546932  75.2416229  66.2967205  53.5778332
  53.6561203  78.7654114  77.8453398  53.4516573  77.8369045  77.7344370
  54.4335365  78.7744379  78.4037113  73.9901876  54.5658922  93.5211468
  73.1365395  54.8271418  93.1757832  74.1663504  55.1921558  94.2232800
  11.1930299   5.7874101   4.3080905  11.2854099   5.4801458   3.4062669
  12.0703220   5.7019377   4.6812984  80.8949947  72.6826525  89.8923492
  81.0836411  73.6040926  89.7145939  81.3809872  72.4889851  90.6939316
  62.6683521  59.1316223  78.0393648  63.2309389  59.8567009  77.7673626
  61.7787409  59.4432163  77.8728485  23.3871341  10.5381346  13.7857735
  22.9405212  10.6748533  14.6212828  22.8789687  11.0494781  13.1560695
  60.4517794  83.0433846  93.6713028  59.6162367  83.4962463  93.5572147
  60.9805155  83.6447906  94.1956997  74.7409058  83.7351227  57.5302458
  74.1024637  83.7989426  58.2405615  74.8431492  84.6343708  57.2185946
  64.9651337  74.7941828  81.8448925  64.6936798  74.1850328  81.1582470
  64.1471195  75.1751041  82.1642303  63.7487650  86.4710903  60.6190968
  64.3078947  87.1829700  60.9302807  63.3608484  86.1060715  61.4144039
  41.0080242  34.6428370  15.3244293  41.8763542  35.0240159  15.4545474
  40.5011559  34.9377918  16.0809493  80.8654976  66.8134308  80.5540943
  80.3940582  67.4228477  81.1220741  80.2122688  66.1566591  80.3129292
  52.3764896  81.5511894  94.5588970  52.8660536  80.7738781  94.8278618
  52.7511454  81.7885971  93.7106609  69.6569014  79.6209574  68.6463881
  70.4009581  79.1600943  68.2588100  69.6355963  79.3200493  69.5548105
  36.5013671  97.1699715  70.5722094  36.0867500  96.7509937  71.3263845
  36.6375446  98.0767632  70.8468485  90.0917530  68.6745119  72.6724529
  89.9865723  68.9131117  73.5934544  90.7849312  69.2521811  72.3530340
  64.0659428  53.4857225  94.0556622  64.0439558  53.1979513  94.9683189
  64.3169785  54.4082832  94.1014099  86.3529205  88.1784344   7.4441975
  86.9374752  88.2335377   8.2001686  86.0367680  89.0733624   7.3201627
  80.9346390  61.4861488  89.6251392  80.6883717  61.1428452  88.7662220
  81.0993004  60.7070303  90.1562595  62.4640560  72.5963831  82.9749012
  63.0978632  71.9468689  82.6705074  62.7624798  72.8284502  83.8542843
  64.3866396  83.6774158  75.3765392  63.7506962  83.1903458  74.8525429
  65.0978374  83.8751125  74.7671509  78.6575222  80.5024242  71.7715025
  79.1475487  80.6673908  72.5770426  77.7516556  80.3923512  72.0604897
  85.3321075  49.0513372  81.0096455  84.6588707  48.3711195  80.9929657
  85.7429600  48.9606571  81.8694210  78.0999231  64.4848299  44.2193699
  77.6680422  64.7945166  45.0154877  77.6452255  63.6712646  44.0012074
  66.2517929  77.6383209  49.8192072  66.4031029  77.5975323  48.8749266
  67.1252632  77.7387428  50.1976204  80.1537514  49.7601128  83.1018257
  80.2117157  50.3740263  83.8339424  80.3819180  48.9117861  83.4819794
  57.2148561  46.0237265  68.0179071  56.7051363  46.3768578  67.2887182
  56.9654083  45.1005411  68.0596018  94.6133900  96.5250301  46.8605661
  94.6632385  96.9936943  47.6936960  93.7523842  96.1069870  46.8720722
  73.8660526  60.6104565  76.1716413  73.4421110  59.9786806  75.5908108
  74.3550301  60.0726366  76.7944479  44.5153761  75.6903982  41.6874456
  44.3652248  76.6244745  41.5418768  44.7556400  75.6276417  42.6118708
  73.3760452  60.0092173  83.7425804  72.7050686  59.3760347  83.4874249
  74.2045498  59.5544529  83.5909176  62.4127388  69.5982170  67.0996761
  61.5270662  69.2644167  66.9568777  62.6039982  70.1129627  66.3156557
  54.5242691  45.6675673  39.1362834  53.7423992  46.2133503  39.0524578
  55.2428675  46.2336683  38.8545418  85.4944801  43.6052799  68.8616800
  84.9056435  44.1021824  69.4296551  84.9469471  42.9083538  68.5001087
  69.5175362  61.1666870  69.1523027  68.8488197  61.0552406  68.4765625
  70.3182316  61.3646173  68.6665630  80.2322769  50.4441643  77.0711565
  80.2505302  51.0712099  77.7941465  80.6201649  50.9165764  76.3345385
  82.3830128  80.5133915  48.1123734  82.8247356  80.6925201  48.9424515
  82.0701408  79.6127415  48.1970310  88.9212799  83.6989594  43.2621479
  88.9760208  84.4248390  43.8837051  89.8195171  83.3758068  43.1915855
  87.9139233  51.1126518  73.4823036  88.2260227  50.4088593  74.0510750
  86.9997501  50.8904123  73.3058643  62.1999359  66.8566132  78.8089561
  61.9081783  65.9693480  78.5995197  62.3391676  67.2703075  77.9570723
  74.6562624  72.3605013  65.1674891  74.8514175  73.1798601  65.6222296
  75.1658201  72.4082613  64.3585968  94.4918823  70.6497097  42.8283119
  95.3948212  70.5822611  43.1387711  94.2884827  69.7769976  42.4918175
  98.3268356  85.8621979  69.8632622  98.5125637  86.3102436  69.0380430
  98.1566429  86.5686321  70.4863310  16.9626164 100.7765007  19.3088174
  17.7338898 100.8058357  19.8749530  16.7854130 101.6931820  19.0977824
  34.1980791   3.9295888  15.0668025  34.3824887   2.9903391  15.0726926
  33.6645389   4.0640125  14.2835414  19.9362445  20.5219173   4.1617340
  19.5862925  21.3655472   4.4481847  19.2058897  20.1012540   3.7080196
  79.1039181  82.8894138  65.9442377  79.2589664  83.0379200  65.0114250
  79.6564436  83.5351467  66.3846540  60.9471703  62.3942327  62.0840216
  61.1755943  61.5453863  62.4628592  60.1472616  62.6532364  62.5415087
  77.9624414  72.2184849  49.3307590  78.3640242  72.2267914  50.1996040
  77.1417332  71.7407131  49.4507933  34.6123600  58.6932993  15.9772766
  34.0685987  59.3210363  16.4531982  35.2267981  59.2354298  15.4825139
  56.8108511  66.5038204  71.5343523  56.4781475  65.6074810  71.5803862
  56.0606384  67.0232105  71.2451458  75.4461288 104.7560406  32.4899983
  76.1933994 105.3177261  32.2842646  75.6619024 103.9140034  32.0891905
  77.2655392  65.8424759  62.4416256  77.5466728  65.0113010  62.8241730
  76.4169884  66.0183859  62.8481293 117.0162868  28.1229901  13.7118423
 116.4182758  28.0432749  12.9686975 116.4463997  28.3023953  14.4596875
  70.0418139  86.8334293  68.1248236  70.8295202  87.1280193  67.6676893
  69.9568844  85.9105873  67.8852940  83.2276440  64.0700340  88.8224220
  83.3609200  63.6807156  89.6866512  83.5080051  63.3914948  88.2082462
  87.5067902  60.1582050  79.0741348  87.3433876  59.8823833  78.1722164
  86.8700695  59.6674871  79.5937538  66.2587452  73.4685326  61.4606333
  66.7192745  72.7427244  61.8817616  65.6700087  73.8033152  62.1370506
  79.3732500  68.3323956  82.6512527  78.6321640  68.7190723  82.1848774
  79.7041512  69.0403557  83.2040024  97.4876022  67.5363398  75.8929443
  97.7079964  67.1719980  75.0356722  98.2126713  67.2719336  76.4591551
  77.9367590   3.4267965  92.3870087  77.4879217   3.7010515  93.1867409
  78.7827492   3.8732272  92.4220467  81.4280415  67.6799107  44.0448189
  80.6833363  67.4085331  44.5814800  81.3763046  67.1261263  43.2657957
  54.2651653  85.5607414  60.4820156  53.6333847  85.1308060  59.9056149
  55.0262976  85.7227612  59.9246407  71.5000391  61.8722773  74.8953819
  72.2214699  61.5738106  75.4491758  71.0603189  62.5441885  75.4163551
  72.8935242  70.3619719  78.3420944  72.2212172  71.0176182  78.5274696
  72.6786613  70.0394344  77.4668598  92.6079464  52.0340300  75.3051329
  91.8387032  52.2858047  74.7941351  92.6364899  51.0794449  75.2404737
  77.1454668  86.3314247  59.2281008  77.1450615  87.0644855  58.6125946
  76.2434149  86.2840939  59.5447969  91.1347866  86.1938763  25.9038901
  91.4079475  85.2999210  25.6978369  91.8078423  86.7473030  25.5077171
  99.3190861  15.8908653  59.6075392  98.6432362  16.5672958  59.6511555
  98.8612938  15.1154709  59.2828608 107.6439667  28.9691901  15.9556186
 107.1885395  28.9043593  15.1162076 107.8625393  29.8974109  16.0384583
  63.6111259  95.7431793  60.3809166  62.8937626  96.2969589  60.6890440
  63.2194996  95.2043438  59.6935225  85.8540821  60.2785492  64.9989223
  85.8020592  60.8900070  65.7335234  84.9502850  59.9969625  64.8572111
  65.7786655  14.9764550  11.2358689  66.6266060  14.5421910  11.3288486
  65.8251047  15.7229567  11.8332052  41.9905233  78.7588453  44.8678923
  42.8508043  78.8575029  44.4599485  41.5384579  79.5802736  44.6752119
  90.9146976  36.3170815  86.3829231  91.3674831  36.3352942  85.5397797
  90.2277470  35.6598353  86.2717342  82.0530701  48.9819193  68.3743095
  81.7251587  49.7308874  67.8765583  82.8359985  48.7030220  67.8994703
  10.9176659   0.2324913  63.9798689  11.3725495   0.3871010  64.8077631
   9.9969887   0.4054687  64.1765070  58.3534098  79.6301222  62.6568127
  59.1023254  80.1804256  62.4276495  58.6983299  79.0127182  63.3018494
  60.8233070  48.6705828  77.8376055  60.8483696  48.0980778  77.0708942
  60.0885820  48.3436251  78.3567476  61.8999004 109.2789268  62.7474642
  61.7839289 110.2142334  62.9147673  61.2586737 108.8525963  63.3160639
  63.7430334  45.1589441  90.1782608  63.0244446  44.6231127  89.8424911
  64.0504885  45.6513929  89.4172096  59.4894981  59.1497946  60.4114151
  59.9441576  59.9780130  60.2578783  58.5603762  59.3788195  60.3886652
  88.1430817  53.4346008  82.0131683  87.3436642  53.6563158  81.5356731
  88.6163521  52.8442764  81.4268494  62.9564095  82.1369362  86.4029217
  62.2450781  81.7085171  85.9267998  62.7446890  81.9977665  87.3259830
  68.3170414  41.3218021  96.1196136  69.1174841  41.7101192  95.7664490
  67.6384926  41.5533113  95.4854107  58.0474377  52.7442455  64.3161440
  58.2593536  53.5394144  63.8272333  57.3544693  53.0117941  64.9198389
  57.2185993  83.7889099  83.7042904  56.9578981  83.7732887  84.6251774
  58.0741644  84.2181492  83.7048244  19.0210831  75.5017805  45.0911570
  18.6009967  74.6996498  45.4015589  18.4116399  75.8562279  44.4437170
  81.2377548 107.0946312  60.8747005  80.5765533 106.4045525  60.9279919
  81.6797447 107.0689011  61.7233562  83.5995102  51.4686871  78.7962437
  83.6291122  51.4447927  79.7526884  82.9009438  52.0909548  78.5937071
  61.0752916  78.3492279  85.2469730  60.2778387  78.8737583  85.3189182
  60.8460855  77.5091648  85.6444454  66.7674971  72.1679974  85.7513428
  65.8670044  71.8871021  85.9139538  66.7074347  72.7291298  84.9781990
  78.3352184  74.2992115  88.3526230  79.0397215  74.9175882  88.5463238
  77.5427532  74.7316313  88.6708069  76.8326855  58.3081913  96.1186028
  77.2767353  58.7440205  96.8459988  77.0738983  57.3862600  96.2085533
  85.2045822  72.9749393  73.4266949  86.1408710  73.0462790  73.2409620
  85.1552773  72.8864336  74.3785191  58.8936567  86.5368462  85.1650333
  57.9566050  86.6009331  85.3495789  59.1174269  87.3780346  84.7668362
  90.0954723  42.7432251  93.6832047  91.0079384  42.8538895  93.4160137
  89.8532867  43.5874510  94.0638161  79.7239447  32.8221607  75.8797789
  78.8871384  32.8182292  76.3445091  79.6256161  33.5039663  75.2151728
  59.8687315  82.2817898  67.2524405  60.6657600  82.1735001  67.7713394
  60.0131130  83.0880260  66.7570925  70.7277536  71.5114498  79.2377186
  70.9576654  71.1056471  80.0735950  70.7633877  72.4522734  79.4103956
  76.1796999 104.4090462  19.7794056  76.4472485 104.7185898  18.9140558
  75.2485895 104.2083168  19.6846592  52.7674294  93.2503319  67.6873541
  53.1002235  93.1149006  68.5745621  53.3505058  92.7335167  67.1313381
  70.5489874  66.7374611  75.2901649  70.2398062  66.1783409  76.0029221
  71.4637566  66.9177771  75.5067730  74.2480230  58.5507679  44.8862457
  74.3868065  59.1929770  44.1901541  73.9207745  57.7735853  44.4333363
  86.2590790  77.7413177  65.1492310  87.0981693  77.6209593  64.7046375
  85.8002663  76.9106579  65.0238419  67.6926374  76.2014723  64.9956989
  67.4557781  76.7011166  64.2143631  67.0981216  75.4513025  64.9896336
  63.3212280  65.5860472  63.7705135  63.9534473  64.9745607  63.3928680
  62.6719618  65.7165241  63.0793810  56.4468718  66.4083624  51.8695116
  56.5188265  65.8621407  51.0867643  56.7655945  67.2673178  51.5923071
  19.1034329  93.5124588   0.9290136  19.4888341  93.3822250   1.7954645
  18.2026780  93.2011700   1.0182870  68.9706850  58.6783171  70.0258970
  68.3475351  58.3243132  69.3913889  69.3253946  59.4601583  69.6026564
  78.8939381  84.5215416  70.7942677  78.6962843  85.3311348  70.3233910
  78.0870867  84.3160248  71.2664843  65.6977272  84.7734070  88.9054585
  65.4348946  85.6919861  88.8474941  65.2296352  84.4381428  89.6701336
  69.1368914  65.6934595  71.2841845  68.7828112  65.7916784  72.1680450
  69.9532604  65.2086830  71.4057112  13.1385934  11.0986316  13.4292758
  13.0290699  11.9811535  13.0751669  13.7552810  11.2059534  14.1534376
  57.1053410  50.1573420  64.8553991  56.6322517  49.8894119  64.0675974
  57.5643492  50.9571409  64.5987558  62.7143908  79.0545464  72.1987295
  62.9368305  78.9286137  71.2762880  61.7787838  78.8585854  72.2484064
  66.9163609  56.1817217  44.5078993  66.4456511  55.4089022  44.8200083
  67.8241730  56.0320807  44.7719383  87.8627110 102.2904110   4.8668131
  87.0165443 102.5297070   5.2449173  87.7392387 102.3876476   3.9226043
  68.8267136  36.8575788  89.9165821  68.0748224  37.2646809  90.3468800
  68.9145613  37.3310542  89.0893364  83.7988091  69.0084648  74.0049648
  83.7473774  68.1014299  74.3064070  84.7082043  69.2620945  74.1627693
  67.2919083  71.2971878  62.5810432  68.0135584  70.7280350  62.8484821
  66.5043592  70.7783365  62.7447176  71.5027189  61.5684175  78.2512140
  71.8968058  61.3395214  79.0929604  72.2149563  61.4716721  77.6190901
  85.3647327  64.4647455  50.9046221  85.2120209  65.1405954  50.2442169
  86.1100769  63.9664125  50.5694294  56.6954041  74.5902681  82.7773857
  56.7739534  74.1593647  81.9262791  57.5240326  74.4025612  83.2182693
  80.1765156  58.0713701  82.0848370  79.4638014  58.7070084  82.1499157
  80.8759499  58.5414124  81.6308784  54.4193411  46.4529514   3.2656330
  54.6780777  47.2544003   3.7205723  55.2415276  46.0857821   2.9409298
  68.5272074 100.0856018  80.3428364  69.0406656 100.1470566  81.1483288
  69.1773558 100.1199627  79.6411562  78.5206985  74.6980190  59.1386700
  78.2000685  75.5534410  58.8528681  78.5957623  74.1885662  58.3317900
  34.7369349  12.9750541   0.4736490  35.0512087  13.4998849  -0.2625590
  34.0241253  12.4515060   0.1075525  79.5231485 102.6162148  74.7367144
  78.6454058 102.9887009  74.6527624  79.6976757 102.6240921  75.6778336
  23.8709712  25.7913494   0.1580826  24.3239355  26.6320443   0.2235562
  23.2212114  25.8140206   0.8605999  64.3235636 101.1076069  63.7225294
  63.5352564 101.0840702  63.1800795  64.6384001 100.2036667  63.7268448
  70.6064224  63.1485319  62.2272444  71.3795900  63.1586266  62.7914619
  70.7500505  62.4085331  61.6373301  71.7280865  50.5367708  87.2712898
  71.9174385  50.1030302  86.4392757  71.8109035  51.4707518  87.0788002
  89.6222305  87.4394798  70.8460903  89.7026062  88.2083797  71.4104986
  89.8863506  87.7495384  69.9798727  64.5693731  76.3597918  71.2244701
  64.9896526  77.2074270  71.0791826  65.1707077  75.7245398  70.8357763
 100.4349804  61.4307308  88.4483051 100.0154209  62.0530033  87.8541756
  99.7235012  61.1139154  89.0047836  58.8637543  71.2168837  77.0560265
  58.5814714  72.0108318  76.6019392  58.1755161  71.0520363  77.7005243
  83.7977982  75.1813841  61.1614656  84.1876984  74.3643904  61.4724779
  82.8543282  75.0221872  61.1889219  62.5130367  86.6987038  86.7860222
  61.8667507  87.4047661  86.7910004  62.0225286  85.9230995  87.0581627
  48.0133438  36.8525743   4.2542219  47.2670889  37.4440026   4.1565010
  48.1750393  36.8247795   5.1972556  83.1752872  53.9771223  63.7399292
  82.6040840  53.2216644  63.8786411  84.0612793  53.6159849  63.7688017
  42.9791451  36.4862132  16.2953782  43.0612993  37.3650551  15.9250772
  42.5790834  36.6244841  17.1539021  77.4043083  83.1052017  39.7915173
  77.0193624  82.5340080  39.1268539  77.7892876  83.8264370  39.2936683
  38.6167955  11.1284590   3.9871696  38.0928087  11.4640212   3.2597983
  38.1944323  11.4823198   4.7698718  47.5631189  60.6165838  32.1545529
  48.3450413  60.7794714  31.6270137  46.9131994  61.2323761  31.8159628
  90.3843212  47.6052237  76.7436886  89.6657753  47.1718693  77.2042465
  91.0460281  47.7547550  77.4189758  90.3702641  37.9377007  69.1779518
  90.2391052  38.8792634  69.2896986  89.9919510  37.7432799  68.3204508
  55.3791332  86.4291191  84.4372559  54.5005608  86.7997456  84.3537521
  55.2958298  85.7678699  85.1243210  98.9628208   0.1701591  69.1369057
  99.4732511  -0.6074955  69.3626308  99.3706835   0.5003117  68.3363533
  81.5732670  74.7518492  68.0439472  80.8785820  74.9398994  67.4128437
  81.2659931  75.1426792  68.8619089  77.4031973  87.5818253  79.2159319
  77.3836708  87.9066467  80.1161194  76.7382765  88.0982399  78.7604904
  84.6887970 103.2319069  52.9690123  84.6649265 103.4533405  53.8999414
  84.8243904 102.2845268  52.9515600  69.5054722  82.5746536  88.0902481
  69.2705774  82.8249168  88.9837837  68.8978052  81.8680668  87.8718281
  86.8057060  55.9946966  65.5235052  86.1501980  56.2134314  66.1858416
  86.6377354  56.6084433  64.8084307  52.7907944  85.6759357  58.0685282
  52.4163342  86.4890385  58.4074688  52.1231651  85.0130367  58.2448053
  59.6595955 107.8385258  79.4147062  60.6083298 107.7510643  79.5068455
  59.5163155 107.9114914  78.4711075  56.2238693  91.8759346  46.2775803
  56.3949919  90.9397793  46.1747599  56.9386864  92.3033142  45.8057642
  99.8329449  52.8040552  81.0985756  99.8506927  53.3110762  80.2868843
  99.1401577  52.1577740  80.9621716 116.8092251  10.0457656  78.7753296
 116.0044289   9.8082405  79.2358923 117.3385048   9.2483675  78.7911797
 107.1476936  80.5591869  65.1436758 106.8723202  79.8142195  65.6779194
 107.1965790  81.2904263  65.7594109 102.9738331  44.6802616  49.6605778
 102.8547192  43.7305021  49.6576118 103.3692551  44.8747158  48.8108397
  75.6040335  71.5962696  50.2545738  75.3102970  71.1523199  49.4590473
  75.0927877  71.1933565  50.9563780  74.5447302  71.1746550  85.1818371
  73.6111259  71.0823536  84.9918556  74.7754002  72.0369196  84.8361111
  61.5426922  78.8843393  90.0944328  61.5835333  79.2667675  90.9709740
  62.1248055  78.1256676  90.1367664  55.9739065 108.8493824  87.3073769
  55.5968475 109.7247887  87.3952484  55.7577562 108.5841274  86.4134216
   6.8047523  17.7415025   6.4204770   6.1470634  17.1168733   6.1146760
   7.5236255  17.1956480   6.7390609  68.1958199  66.3351631  73.8652706
  69.0701962  66.3805008  74.2521048  67.6716089  66.9434977  74.3862009
   0.6264575  76.2471008  77.8131962   1.1387946  77.0556450  77.8140974
  -0.2819296  76.5392399  77.7375698  58.8588572  87.0758247  42.8145409
  59.0865374  86.2951946  42.3095655  58.2508421  86.7598343  43.4828949
  83.6568260  83.4577274  94.4446850  83.4699917  83.4726810  95.3833580
  84.0838528  82.6135635  94.2988873  75.6084347  76.6603756  53.5405970
  74.9130392  76.9438791  52.9470634  76.2545109  76.2432480  52.9706669
 115.2207565  23.2647777   4.4474709 114.2987251  23.5151243   4.3888962
 115.2439785  22.5942826   5.1302075  78.9389658  88.2926941  55.0932693
  78.3270741  87.8757763  54.4866419  79.6783209  88.5552692  54.5449638
  56.6099167  78.3593178  60.8751678  56.6639328  78.7111044  59.9865961
  57.2618580  78.8561440  61.3695049  83.6590099  95.9083366  68.9335680
  84.5934296  95.9105587  68.7259960  83.5540962  96.6125774  69.5733023
 113.8999176   5.2304304  35.2709103 113.0766964   5.6910425  35.4333091
 114.4752598   5.8947229  34.8915195 116.9812298  80.9509182  91.6446114
 117.2847271  80.3832626  92.3530483 116.0936832  81.2008953  91.9015312
  87.0059109  84.1551495  94.2627811  86.8604946  84.0905094  93.3189011
  86.7331219  83.3042431  94.6059704  74.6064806  74.5315933  73.3452511
  74.8741961  74.8679733  74.2004776  75.3476620  74.7220421  72.7702618
  65.1868105  71.0799503  73.6818504  64.8890305  71.3029146  72.7998972
  66.1387873  71.0168600  73.6044264  97.4632454  66.8615294  68.2380724
  96.9701958  66.1702061  68.6798954  98.2734489  66.4359999  67.9574966
  70.5397511  59.5562124  50.5856228  69.5847893  59.5888042  50.5288935
  70.8035707  58.9897728  49.8605204  66.9294310  78.0546379  68.3761454
  67.5973558  77.4010468  68.5833311  67.3500824  78.6338425  67.7406883
  61.1353302  70.5530691  72.3353720  61.6309357  71.3609552  72.2014761
  61.3308048  70.0214815  71.5637255  88.9971924  31.0858965  80.5544949
  89.4649124  30.9854317  81.3835812  88.0901814  31.2540197  80.8100224
  59.5802259  77.6556587  58.7510252  59.3672037  76.9587183  59.3716145
  58.8095522  78.2233572  58.7546015  73.0521059  97.8894615  37.5216317
  73.9524174  97.6202202  37.3394608  72.6312733  97.9151821  36.6622925
  96.2734127  51.8841171  84.4997692  96.0580444  52.6050186  83.9080334
  96.2228870  51.1010504  83.9516068  74.6043301  87.0403481  18.0466259
  75.1428890  86.5506363  17.4250436  74.0628958  86.3746548  18.4708130
 108.2279301   5.3760922  76.4249086 107.5403690   4.8548841  76.8394327
 108.5764885   5.9186947  77.1322393  54.5520115  89.7571182  76.6035414
  54.9872494  89.3389988  75.8605909  54.3712759  90.6483269  76.3046885
  21.4704084   1.8859893  79.8103428  22.1351123   2.5058973  79.5101500
  21.9508624   1.2674794  80.3606510  82.1597004 103.7234402  66.6066170
  81.3859367 103.7198734  67.1700907  82.4972630 104.6169662  66.6689444
  79.9551582  90.7560253  42.3592472  79.6081781  89.9860001  41.9087934
  79.9235010  91.4519978  41.7028570  76.6583061  44.2068815  77.3456764
  76.8927574  44.8351049  78.0287552  77.0140743  44.5840454  76.5410614
  69.5173407  85.5066872  54.0687275  70.2043724  86.1646843  53.9626265
  69.0071011  85.5607224  53.2606649  84.2763710  96.4088058  91.6248035
  84.3097019  97.0319843  92.3505878  84.3461323  95.5504799  92.0427132
  76.8954134 100.1696777  94.2109203  76.8752623  99.5181084  94.9118328
  77.8165388 100.2178860  93.9551258  21.3911986   3.1161693  88.4773064
  21.3199353   2.5026733  87.7460289  20.6692553   3.7307253  88.3455944
 107.5850487  79.2598724  57.5715828 107.0389557  78.9458799  56.8508720
 108.4708214  78.9803410  57.3403072 108.7606335  53.2076740   3.8274577
 108.5076046  54.1038609   4.0489462 109.3483639  53.3030272   3.0779842
  88.6250019 107.2872639  86.3108063  88.0268383 106.7019367  86.7753792
  88.8493061 106.8138599  85.5096722  79.3201399  68.6837292  76.8347979
  79.5019293  67.7870417  77.1161127  80.0947475  68.9393044  76.3339090
  21.3145590 106.3411331  65.4159546  21.6899323 106.3230228  66.2962961
  21.5153813 105.4788399  65.0521612  88.6221695  92.1060276  62.1368122
  89.5338345  92.1601200  61.8501568  88.6220837  92.4976540  63.0102301
 115.6366158  67.7334213  70.3786373 115.8228111  68.2737541  71.1464977
 115.7304478  66.8333817  70.6906605  62.3540735  55.8234644  70.0950098
  62.4090433  56.7106867  69.7399807  63.1219101  55.7439756  70.6610012
  58.2081270  89.5370674  94.9076080  58.7149668  89.1657257  95.6297207
  58.8129044  90.1405334  94.4759655  77.4117374  72.4333382  71.5496874
  77.0796967  71.7276049  72.1045876  78.1154919  72.0284557  71.0427094
  79.6602058  72.8504181  38.9822435  79.7884035  71.9518375  39.2861342
  79.9433327  73.3944798  39.7171354  75.6840134 106.3327503  60.8897448
  76.0689068 107.0014954  61.4561939  74.7740889 106.6081238  60.7781935
  58.5680914  74.2420959  94.9068832  58.7812853  75.1716805  94.9884224
  58.7339401  74.0381718  93.9864826  16.1341488  12.3945382   0.3248567
  16.6474783  13.0122426   0.8455915  15.2622616  12.7868608   0.2786989
  59.7416925  43.7874699  68.7447262  59.0343761  43.8993645  69.3798780
  59.3692875  43.2211637  68.0688238  80.1117134  56.1309338  77.6879692
  80.8581352  56.7277670  77.6343393  79.3556309  56.6719198  77.4601364
  67.4034691  86.0060501  43.0837631  67.5145245  86.5675831  43.8509464
  66.9583082  86.5608692  42.4432707  70.0491095  55.0551653  78.7406683
  69.7270250  55.3949642  77.9057837  69.2770195  54.6724367  79.1573572
 114.5934486   1.0875807  86.1211395 114.8297882   1.1590430  85.1963329
 115.4201698   1.2040982  86.5893173 101.1299515  87.2553635  81.0454559
 101.9298840  87.7772141  80.9821129 100.6209278  87.6801205  81.7358875
  35.3474045  11.0050404  18.1080222  34.5827103  10.5272007  18.4291816
  36.0526562  10.7583356  18.7063432  17.5578249  45.1865101  10.5960798
  18.1576884  45.7765770  11.0523880  16.7515957  45.2193975  11.1110020
  91.9447422  54.1843081  60.9399557  91.1533928  54.7190237  61.0038900
  92.0935822  54.0883112  59.9992847  52.5671101  70.2137566  47.8742647
  53.1223345  70.9738970  47.7006578  51.6881847  70.4964495  47.6216555
  61.8669844  72.1607637  57.4500942  61.3723755  72.9123592  57.7767420
  62.6962996  72.1942616  57.9268980  39.9992466   4.5963296  14.9476624
  39.8705029   4.4983196  15.8910871  39.1266799   4.4757935  14.5730567
  86.6915703  89.6434975  55.1665068  86.6516495  88.8513374  55.7023478
  87.6252270  89.8462009  55.1078939  43.0773449  10.9745049   1.0509139
  42.3713970  10.3792572   0.7988185  42.6423311  11.6619539   1.5553030
   8.2733434  90.3177643  69.2806244   7.7444661  89.6800327  68.8012266
   7.8106725  91.1477280  69.1651869  62.5817490  96.9308376  67.4682140
  61.7274332  96.7004871  67.1030903  63.0676365  96.1062050  67.4794865
  56.4643145  87.2707081  80.0059795  56.7103052  86.3505268  80.1007175
  55.5273390  87.2894382  80.2008057  88.9266300  84.9167252  83.5527039
  88.6319065  84.8480892  82.6445961  88.9556980  85.8579159  83.7245941
  70.1458549  58.6567163  76.8034887  70.9386873  58.7236357  77.3356342
  69.6507120  59.4492626  77.0107079  64.3487167  74.5013046  63.4078074
  63.9122009  74.9035788  64.1587114  63.6357594  74.2663908  62.8138876
  51.6449404  30.7599235   2.2572111  52.3868132  30.1707768   2.3941755
  51.9967651  31.6327643   2.4321418  47.1850586 103.5752678  93.2010174
  46.9714689 103.2354736  94.0700054  47.6968145 102.8783035  92.7904415
  74.4297886 100.6054783  86.1762524  74.7097969 101.5137577  86.0628414
  75.2253008 100.0908279  86.0401440  83.6053753  89.3828011  70.9106350
  83.6510372  89.9580765  71.6743088  84.4978619  89.0532494  70.8053207
 111.4316845   4.7192672  60.1521730 111.5774155   5.2783352  60.9153461
 112.1605682   4.9204129  59.5652294  77.4044609  77.0116711  58.1343508
  77.3602629  77.1964264  57.1961927  76.5421152  77.2590971  58.4680796
  72.7433777  83.2785130  55.6142902  73.6095476  83.1678581  56.0063744
  72.9163694  83.6687660  54.7575426  89.7824383  55.9356308  39.8302126
  90.5380344  56.1293268  40.3850031  89.2918873  55.2729321  40.3164530
  70.1329231  87.8123951  56.9703579  70.8777571  87.2112083  56.9646454
  69.9277449  87.9483223  56.0453415  82.6684189  83.8013363  74.6420193
  82.1620083  84.3218422  74.0184307  83.3820152  83.4319592  74.1218472
  85.8017921 107.0864868  93.2557106  85.1698399 107.6067638  93.7518787
  85.2727890 106.4169788  92.8219318  84.7560215  84.1516399  57.6694727
  84.4533539  83.4630299  58.2614470  84.4362831  84.9634743  58.0630827
  47.9347086  42.5616646  61.9200182  47.2620106  42.6253128  62.5979996
  48.3056784  41.6864204  62.0321083  66.4142656  64.0214920  78.5862970
  66.3595486  64.9010468  78.2126379  67.3280954  63.9326668  78.8569546
  78.8548279  61.8911505  73.3181143  78.0454445  62.1839809  73.7369013
  78.7154341  60.9586000  73.1533480  69.5098877  94.3299484  62.9800272
  69.8554230  93.6349487  62.4198294  70.2540064  94.5933723  63.5214376
  76.7907715  65.3586197  76.2591743  76.7208242  65.8672905  77.0670080
  76.2158871  64.6062279  76.3993645  24.8726678  32.5830698  17.2882652
  25.6016350  33.1963706  17.3815358  24.7921705  32.1739030  18.1498539
  88.6937618  84.6433449  64.7224092  88.1530190  84.8452091  63.9588118
  88.1702900  84.0225983  65.2292395  67.0065451 109.4004250  65.7040644
  67.3908329 110.2004337  66.0625982  67.4650335 109.2652798  64.8747540
  67.0140171  55.6978893  73.5279036  66.5925121  55.8160925  72.6766777
  67.1860313  56.5878010  73.8356352  70.4113770  61.0068655  87.9541779
  70.1226997  61.7970181  87.4975014  71.3314772  60.9108067  87.7083778
 104.4820976  63.8800526  74.3365002 103.6081028  63.7444019  73.9704895
 105.0662136  63.8513088  73.5787296  96.1489964  81.7439747  81.7455482
  96.3262749  82.2379589  82.5460339  96.6476631  82.1997643  81.0674381
  63.3447838 101.1309624  76.2566566  63.7471962 100.6624603  76.9879532
  62.4476671 101.2994862  76.5447807 101.8416214  89.8147678  52.6097965
 101.5505695  89.2241764  53.3045673 102.3696518  90.4734707  53.0609465
  34.8202181  11.4813328   4.1721109  33.9910793  11.0045743   4.1338453
  34.5857358  12.3421693   4.5188245  33.6971569  13.3240163  11.7521322
  33.3665848  12.5049114  11.3833237  34.4781661  13.5214829  11.2351549
  77.5116920  30.8136010  79.0884304  78.0858183  30.2475071  78.5725355
  76.8726826  30.2162719  79.4771385  58.8031292  34.1625690   7.5623858
  59.2869043  34.6965241   6.9322354  59.2788887  33.3323717   7.5879842
  56.1654186  65.4794598  37.2387862  56.3861895  64.7005987  37.7495360
  55.2151155  65.5587673  37.3216176  73.3609581 110.4532051  50.6625652
  74.1147518 110.3979969  51.2499189  73.1300259 109.5418072  50.4829597
  96.9001484  61.1528063  74.8211384  97.2232914  61.4637661  73.9754963
  96.6560078  61.9496393  75.2919722  65.3623343  91.1268044  82.9090691
  64.5245409  91.5161133  83.1596184  65.1345825  90.2541447  82.5884151
  87.5644684  84.9535751  69.8309422  88.0879688  84.2603111  69.4290018
  86.8424892  85.0942230  69.2184114  11.9294989  25.1587820   7.0359278
  11.0310209  25.3753924   6.7868298  12.3284543  26.0019970   7.2505295
  65.5925655  54.0757751  81.4488506  64.8700047  54.6446705  81.7143631
  65.2498579  53.1882763  81.5543270  71.0755396  63.3110142  86.0152149
  70.6929398  63.5774040  85.1792240  71.8579292  62.8153896  85.7734585
   1.1790451  68.1346703  93.6292171   1.3359135  67.2727966  94.0149593
   1.7462334  68.7255907  94.1245461  84.0296459  67.8781796  95.5940151
  83.6153412  67.6099730  96.4141655  83.9702797  67.1057129  95.0318718
  56.1348534  77.2845697  91.0863400  55.3166437  77.2928381  90.5896473
  56.7890072  77.6248169  90.4759789  65.4099369  63.5679102  72.3873472
  65.3870964  63.8434172  71.4709377  66.3418579  63.4835339  72.5889254
  81.5660191  80.7990265  54.8512554  81.6651440  80.5210590  53.9406872
  81.5343857  79.9820328  55.3489971 115.8544445   1.0496449  72.9856586
 115.7606697   0.6287141  72.1311092 116.7953873   1.0302239  73.1602478
 114.9562740  71.7479134  65.3363848 115.2147198  71.7971516  66.2567186
 115.5274296  72.3753834  64.8933220   8.4968865  22.2361186   0.2745981
   8.1539166  21.3534024   0.1352472   9.2486250  22.1122792   0.8540697
  81.3375282  77.9569292  47.4238873  81.2194347  77.0139408  47.5381708
  80.4541397  78.3190250  47.4928141  58.2765341  79.6430349  80.4366779
  57.9018641  80.3113842  81.0104084  58.9631510  79.2332363  80.9628582
  77.0300341  93.7623119  54.7332668  76.4578342  94.1400719  55.4011869
  77.5097752  93.0721951  55.1913261  71.5660477  64.8202848  92.9139709
  71.9173241  65.5596018  92.4177361  72.3356438  64.4076586  93.3060074
  31.1243606  93.3504295  77.5421190  30.3080463  93.4818459  77.0598364
  30.9202361  92.6623917  78.1755018  61.3516188  61.0289431  59.6082783
  62.0457172  61.3619232  60.1771307  60.8616638  61.8085432  59.3467426
 109.3889618   6.9454676  78.8332701 109.5723629   6.2515223  79.4665432
 110.2433109   7.3382390  78.6542225  99.8524094   7.9626983  75.8313227
  99.4258690   7.1390194  76.0676384  99.1809082   8.4525830  75.3566313
  57.2900867  51.0961628   1.5680142  58.1070185  51.0750628   1.0696070
  57.3240614  51.9232416   2.0486651  85.5761337  91.4795399  72.5843620
  86.3984871  91.8519974  72.2661829  85.0347614  92.2400475  72.7959442
  23.0133820   7.3688233  92.8313828  22.5080585   6.9826740  93.5467625
  23.1555533   8.2761663  93.1011009  60.3524542  93.6414146  81.8846607
  60.7911682  93.1812000  82.6001835  60.6679392  94.5427227  81.9505215
  88.9196491 103.3907604  86.4496613  88.3167648 102.8603935  86.9706917
  89.7487068 103.3487988  86.9262409  88.1131363  99.5048618  47.0890617
  87.9506969  98.7526417  46.5198469  88.0485916  99.1520309  47.9765177
 105.4150867  67.3046875  80.9861469 105.8638573  66.5096092  81.2736988
 105.7958317  67.4981308  80.1294994  77.4273777  41.7614937   9.7161722
  78.3582020  41.6679192   9.9187618  77.4084425  42.2757196   8.9090502
  69.0215445  51.4491081  76.4895153  68.2853174  50.8424282  76.4111853
  69.6282387  51.1798000  75.7998562  63.6393499  94.2027092  67.3257256
  63.9637709  93.8520527  66.4962530  62.7089357  94.3646717  67.1697474
  86.1903381  45.0201321  63.8644409  86.8737221  45.6329060  63.5929012
  85.4181099  45.2859783  63.3652210 102.5052834  73.4287500  84.5360374
 102.8109455  73.0315542  83.7205410 101.7867756  74.0019131  84.2686939
  98.0928516  91.9467640  60.9801149  98.0753613  91.8414211  61.9313383
  97.1939754  91.7694759  60.7029390 115.0442123  20.2757502  24.0562725
 115.9065056  20.3716564  24.4606018 114.4269943  20.5032468  24.7516227
  65.7258177  68.8084936  48.8299990  66.2385178  68.1288958  48.3923721
  65.5460787  69.4517708  48.1443453  35.9927368   3.3492690   2.8766471
  36.8454552   3.4539869   2.4545848  35.4056716   3.9138624   2.3738347
  79.2355013  85.6075287  77.9609394  78.6447620  84.8711586  78.1191158
  78.7080908  86.3830757  78.1522751  94.2039871  88.3475113  35.1201701
  94.9295807  87.8944588  34.6906328  93.5906124  87.6504993  35.3529263
  79.7293139 103.9646530  90.2720642  79.2180395 104.2161179  89.5029068
  80.0497723 104.7933960  90.6280518  77.5771618  96.3298893  64.6808481
  77.8326035  97.2497177  64.6108246  78.3697462  95.8433056  64.4544029
  56.5116215  97.2202301  67.1779013  55.7547474  96.7244434  66.8655396
  56.1344194  97.9888725  67.6058483 115.4031086  91.5795898  87.7112007
 116.1239624  91.2127972  87.1992779 115.8254528  91.9592953  88.4817123
  72.1754694  95.2108765  64.1484451  73.0293274  95.3825474  64.5455408
  72.1725893  94.2677307  63.9850330  49.1337442  78.1307602  47.7871895
  49.8703289  77.9367352  48.3668709  49.0796900  79.0864086  47.7802420
  71.6144037  74.1895819  79.6899462  72.5586557  74.3337727  79.6280575
  71.3686752  74.5706367  80.5329418 105.4995728   0.3686718  89.8010445
 106.0472679   1.0659120  90.1617718 104.6810436   0.8050473  89.5648193
  93.2933044 106.8892002  74.8377991  93.3848095 107.6012516  74.2046785
  94.1881180 106.5824604  74.9842596  73.6311054  81.9291115  72.6749277
  72.9520321  81.9002914  72.0009422  73.1707764  81.7204380  73.4878111
  83.4967899  92.5054264  88.7331581  82.8156757  92.4832821  89.4053364
  83.0694580  92.1636105  87.9478073  67.5377846  61.5906191  52.9412842
  68.3744621  62.0382118  53.0672026  67.6234531  60.7780123  53.4398460
  95.8320463   0.0633381  77.1706724  94.9609793  -0.1321461  76.8253231
  96.2419546   0.6033562  76.4949608  64.8075056  63.5472965  62.8508043
  64.7994804  62.7190638  63.3305931  65.6381083  63.9565659  63.0933571
  52.7390003 103.8212585  69.9482203  52.2663546 103.0630112  69.6048498
  52.7018261 103.7162590  70.8989191  21.6497588  47.9823780   2.5712797
  21.0908914  47.6607800   3.2787216  21.8996859  48.8646746   2.8457338
  60.9752560  93.9372253  90.8656120  60.6353951  94.0011120  91.7581558
  60.8562613  94.8140907  90.5006695  72.3861074  58.6416054  78.3300734
  72.6356506  59.2359972  79.0376472  73.2044649  58.2152605  78.0755949
  81.3687420  72.1872234  69.0360975  81.3083744  73.1008577  68.7570572
  82.1911430  72.1395111  69.5235491  91.9901085  80.8340836  79.5232534
  91.5226746  80.0203800  79.7119808  92.4033546  81.0710049  80.3535080
  98.7972832  56.8241358  84.1163826  99.3737316  57.5860834  84.1744518
  99.3544674  56.0834837  84.3555737 100.7672119  59.8878241  52.8133774
 100.3575993  60.3718138  53.5304546 101.4077187  60.4979706  52.4477148
  55.9122324  93.0799961  61.2609959  55.7864571  92.2035980  60.8972168
  55.2478552  93.1525040  61.9462490  64.7313309  83.9626217  39.4820213
  64.4403601  83.1041908  39.1743445  65.5585337  84.1132736  39.0245605
  49.7153568 102.2614861  84.1243935  50.1040983 101.4743996  83.7427998
  50.2225637 102.9833221  83.7530136  59.5254374  19.6620870  18.8005185
  59.1459942  19.8148429  19.6659207  59.9991703  20.4695034  18.6007905
 116.4969063  70.6217289  55.1319456 115.7485867  70.0723457  55.3652477
 116.2737656  71.4878178  55.4730177  39.6632397  29.7918609   0.1009721
  39.6905863  30.4210761   0.8217878  39.0390217  30.1665500  -0.5204707
  71.4620924 101.6398716  56.6672468  71.3325596 102.5766850  56.5194511
  71.2445736 101.5107155  57.5904131  79.7229862  69.3990803  91.7055321
  79.4811964  68.6456108  92.2441006  80.5781746  69.1691923  91.3421631
  75.6148672  94.6378040  56.7143393  75.1410913  95.4629612  56.6100168
  76.0537243  94.7189999  57.5611210  55.0404119  10.7631135   4.3334505
  54.8977661  10.4573166   5.2292025  54.6312046  10.0945365   3.7840995
  84.3537235  93.3826637  78.9732933  84.9660206  93.7021065  78.3105183
  83.4974957  93.6913681  78.6769676 111.1624050  76.5999842  85.2715683
 111.0158730  76.6250134  86.2171555 112.0551491  76.2680817  85.1762390
  37.5667715  35.6249285   7.3267436  37.5060010  35.5942178   6.3719690
  37.1098399  36.4300656   7.5700504  71.9339275  87.2734165  79.5613909
  71.9622660  88.1911087  79.2907095  71.9829035  87.3039055  80.5168533
  61.5789604  83.7050343  73.5904169  61.4633608  84.4642258  74.1618204
  61.3299274  82.9567909  74.1329575  86.3248730  98.2450390  70.9532499
  86.5232277  98.6089611  71.8160629  87.1147919  98.4072399  70.4375362
  76.4838743 103.3457470  68.7376881  75.6894779 103.0944633  68.2664967
  76.1665440 103.7212944  69.5589638  83.3163357 106.6894531  64.2439175
  83.6711025 107.3472214  64.8420095  82.9396439 107.1974277  63.5253811
  32.1776867  84.0511990  39.5425105  33.0018210  83.7737083  39.1424727
  32.4420118  84.6198654  40.2656937  88.2289791  96.4283657  92.9346848
  87.4643993  96.1667728  93.4477234  88.9778328  96.1656666  93.4698772
  14.1032827  28.7004614  66.3050604  13.5407186  27.9791927  66.0230637
  14.0566218  28.6809945  67.2609282 114.2300224  22.2647762  83.8548565
 114.0107441  22.2546983  82.9231644 114.9806976  21.6757298  83.9306259
  37.7161741  36.0980105   4.5012063  38.2875276  36.3491535   3.7754557
  36.8546271  36.4350247   4.2554623  63.1067705 108.7976933  53.6904097
  63.9181662 109.2987823  53.7727737  62.4148989 109.4591141  53.6987877
  10.2030230  86.7150021  79.2136908   9.9884331  86.2817764  80.0398254
  11.0201776  87.1803379  79.3924522   7.5378615  24.4948363  92.5819969
   7.3728967  25.4303741  92.6994038   8.4863257  24.4053555  92.6749516
 112.4786472  36.4510369  78.9392614 113.1053638  36.0113931  79.5138693
 112.1063328  35.7472849  78.4078979  17.3883080   4.7662938  47.6758480
  17.3369491   3.9387611  47.1975374  18.3071613   4.8367181  47.9346561
 115.0434494   6.2943530  61.6806173 115.6450748   5.5620962  61.8150711
 115.1629639   6.5370405  60.7624388  95.9876251  69.7337484  48.2708454
  96.8093586  69.2691708  48.4294558  95.6304359  69.8936653  49.1443872
  61.9639015  13.5037446  84.4608879  61.8328047  14.2188692  83.8382816
  62.8889227  13.2745886  84.3711376  94.6597672  98.2318497  56.0160589
  95.3464890  98.5649300  55.4383898  95.1264858  97.9383278  56.7985201
  46.5189934  73.7172031  16.6072047  45.8111811  74.1184425  17.1114326
  46.1400223  73.5652685  15.7414508  86.3581562 104.2289257  73.6297369
  86.7656040 103.3682537  73.5324955  86.3232899 104.3719292  74.5755529
  92.9731655  57.5302505  91.5769386  92.4081802  58.2446384  91.8713474
  92.7260780  57.3906469  90.6627846  86.0141659  52.2468472  69.6284246
  85.0700092  52.4015522  69.5989704  86.3351822  52.5633192  68.7840128
  91.7798042  97.3231697  61.6130972  92.3034954  98.0673313  61.3161039
  91.1027908  97.7124405  62.1665907 108.2260609  88.1128025  86.5824032
 108.6244774  88.9422131  86.8461609 108.4654140  87.5002384  87.2778797
  84.5509529  76.9038248  10.2792239  83.7862206  77.0410156   9.7201234
  85.2992249  77.0094061   9.6917063  84.3510628  96.7406845  52.4082279
  83.6118793  96.2159729  52.1007919  83.9608097  97.3751163  53.0094242
 106.6695309  94.2447758  61.4553070 106.3400936  94.4532204  62.3295212
 106.0371113  93.6178589  61.1042166  72.2417641 110.4947376  83.0491447
  71.4399242 110.1235390  82.6810551  72.5309086 111.1337185  82.3977375
  78.9139366  78.6111784  90.6155205  78.6361933  77.9719019  91.2715816
  79.8589611  78.6917353  90.7446384  74.2034578  22.8468990  17.2386539
  74.2899513  23.6029530  16.6580224  73.6265421  23.1485629  17.9403651
  60.6465530  93.0751228  51.8108797  60.2283239  92.5803852  51.1062098
  61.2376881  92.4472046  52.2262239  66.7261267  33.7075496  18.8615501
  66.0742474  33.9775729  19.5083678  66.2112904  33.3591151  18.1336999
  79.3767023  68.3826351  69.3339062  78.7426138  68.3166647  68.6198902
  78.9168978  68.0302143  70.0958824  98.2859993  91.9179153  90.3414536
  97.4507427  91.8549442  90.8047199  98.6220360  91.0216999  90.3306103
  74.1617966 103.6896992  67.2981119  73.4906626 103.0080605  67.2637081
  74.3505192 103.8865376  66.3805771  31.2443542  50.1196718  11.2799585
  31.4401007  49.3272018  11.7798662  31.7670393  50.0350475  10.4825425
 108.5086346  87.0728588  54.8799181 109.1338730  86.4212322  54.5625830
 108.5636616  87.0130157  55.8336639 101.3207245  43.6253166  75.8220625
 101.0156155  44.5160866  75.6498003 102.2402287  43.7301683  76.0665083
   8.2481688  17.9264510  93.1429672   8.0546969  18.7714255  93.5489464
   7.8046662  17.2862232  93.6994267 115.2964878   5.8857918  66.9747305
 115.4867554   4.9778876  67.2108269 115.8063412   6.0382581  66.1790991
  89.5981503 111.0755730  55.8955193  88.8890457 110.8246994  55.3035212
  90.1874447 110.3212738  55.8965778 103.3290005  94.8396683  40.7216406
 102.9160690  94.0144920  40.9761858 104.2229366  94.5960331  40.4813290
  75.1534843  57.7796221   1.2950724  74.2968750  58.1770754   1.4515251
  75.7355928  58.5216999   1.1316633 101.0178471  91.7510891  92.8514385
 101.6501999  92.1185684  92.2339344 100.6184006  91.0206985  92.3789978
 105.3260612  91.1095238  93.9287567 106.2211418  90.7705784  93.9153767
 105.3028011  91.6945839  94.6859837   3.6892205   0.3413145  54.9532032
   3.0993962   0.1719797  54.2185879   3.4005302   1.1843496  55.3027487
  76.8673563 106.2100029  85.8560562  76.0260057 105.8349609  85.5958652
  76.7658854 107.1504784  85.7096767  76.2032127  98.3297920  47.6179361
  76.6768360  97.7564526  47.0152855  76.8296814  99.0206909  47.8334093
 116.5775204  17.1302783  67.2044230 117.4667645  17.4702227  67.3039722
 116.5844250  16.6860855  66.3565588  78.5597086  91.7749786  58.4792757
  79.4946384  91.7437553  58.6821699  78.4784365  91.3020515  57.6510429
  37.6691175  96.6352844  67.9912519  37.4552131  97.5457096  67.7872515
  37.4887419  96.5508747  68.9275074  36.4465737  11.8016064  67.2663975
  36.6709590  11.3351452  66.4612293  36.5413570  12.7271354  67.0413542
  71.4023113  68.9473486  51.4601326  70.6523371  69.2886400  50.9730053
  71.3855171  68.0044699  51.2960291  29.4140387  33.1064177  14.4229674
  30.1444793  33.5492706  13.9910293  29.8270965  32.4261093  14.9547529
  78.3963013  68.0649042   2.7759856  77.5898170  67.7357054   2.3792052
  78.6346340  67.3994732   3.4214550  64.9957085  83.9184856  66.9529867
  65.4861164  84.0317535  67.7671766  65.4613590  83.2236385  66.4875984
 107.1623898  91.3524532  63.8697290 106.9197083  90.4528141  64.0888071
 107.7775002  91.2640572  63.1416750  91.2011719  82.8694344  53.9331770
  90.6641483  82.5090218  54.6388245  91.5111828  82.1020699  53.4522724
  64.7913837  78.0070543  36.5197444  64.8876953  77.3071814  35.8738852
  64.4423723  78.7462187  36.0216856  80.1292992  65.3763962  28.4010148
  79.7904062  65.8367586  29.1687703  79.4299603  64.7699547  28.1573391
  80.8890247  97.2533417  69.0174723  80.9892273  96.5238667  69.6290731
  81.0385227  96.8653107  68.1553125 106.1987686  89.4801235  50.8606100
 106.5671349  89.9232960  50.0963259 106.8473053  88.8133430  51.0865259
  94.1088963 108.2601929  78.2968473  93.5436058 108.4561634  79.0440273
  94.9182796 107.9319096  78.6884642  79.2181492  99.2064762  44.5399570
  79.7269440  99.3106079  43.7358952  79.8680067  99.2471695  45.2415705
 106.4424419  80.6077003  91.3443184 105.7906818  80.4473591  92.0267677
 105.9840107  80.4174423  90.5258656  35.1361656  56.3261223   6.5997428
  34.9846053  57.0975113   7.1458352  35.9385490  56.5274620   6.1182070
  12.7119815  94.9464798  96.4595699  12.9064739  95.8272648  96.7798996
  11.8141901  95.0033760  96.1325073  88.2500648  96.3298893  55.8017206
  88.0552292  95.4215717  56.0324526  89.0321159  96.5437889  56.3105249
  86.1152077   9.2564481  55.9859991  86.1145020   8.6403042  55.2534723
  86.1428165  10.1195228  55.5729961 109.8164272   8.8018674  76.2685156
 109.0457249   8.9071900  76.8263340 109.4766712   8.8662457  75.3759575
  97.9867649  88.9392281  50.8661985  98.5352707  89.7213173  50.9271860
  97.1512699  89.2019367  51.2524223 117.3949146  98.6510372  60.7014799
 117.2298336  97.8548050  60.1964998 117.9108810  98.3561134  61.4518309
  12.5755215  16.1057413  86.7705154  12.3585129  16.3917673  85.8831978
  12.7214074  16.9182158  87.2551155  75.7018137  90.2710247  47.0204258
  75.2235842  91.0117817  47.3930025  75.3773975  90.2037716  46.1223936
  80.8645248  95.6709194  91.2057686  81.4535332  96.0066795  90.5300713
  81.3939953  95.0395775  91.6928959 102.2598171   1.4583769  66.5688753
 101.8967152   2.2468157  66.9723034 103.1360245   1.3782662  66.9457865
  92.4767113 109.8128033  75.9259415  92.2221184 109.7852898  75.0036335
  93.4267330 109.6962738  75.9157467  75.7831764  80.9371376  95.9866810
  75.9115505  81.5546703  95.2666759  75.0842810  81.3251019  96.5132332
  37.4091601  96.8605042  87.4019814  36.5377402  97.1981907  87.1950436
  38.0105519  97.4835491  86.9940853  66.2045956  87.0973396  85.9519196
  66.1810112  88.0500412  86.0415745  66.8556213  86.8124676  86.5932083
  32.1990776  16.2658584  68.7774897  32.0115995  17.0370138  68.2423258
  32.6325202  16.6145265  69.5564556 104.2207813  95.5622959  76.1210489
 104.1081429  94.7325611  75.6572723 105.1503944  95.7677841  76.0219574
  92.7985954  77.7934170  43.9340544  92.9436398  77.0194054  44.4782019
  93.5435677  77.8067780  43.3331633 116.7757988  77.2242832  74.7698307
 117.6171303  77.2269678  74.3133354 117.0065403  77.1657276  75.6969595
 117.7019501   9.0262938  84.9869442 117.4480915   9.4101673  84.1476345
 117.6466656   9.7519505  85.6087112  68.8183451  97.3548126  41.8506622
  68.3268023  97.1306992  41.0604763  68.6754179  96.6140556  42.4397993
  74.5756721  50.8908176  91.0143375  74.0340519  50.3198576  91.5592098
  74.7574043  50.3720999  90.2306652 114.3623352  13.9859831  72.1806765
 114.8454571  13.6038780  72.9133558 114.8359871  14.7921801  71.9758940
  70.8770227  80.8797836  83.0403996  70.0104618  80.4807091  82.9627037
  70.9753799  81.3964081  82.2406101 105.2243710 110.2637291  92.6217556
 104.6189022 110.7552528  93.1767654 105.6767845 110.9335518  92.1090221
  30.9926653  25.9057117  29.8824096  30.3116417  26.3248014  30.4085279
  31.3680387  25.2420998  30.4611564  37.9610157  33.2991648   4.6217561
  37.8461862  34.2436528   4.7265694  37.0706582  32.9477644   4.6255106
  30.7185268  10.6620002  82.9390240  30.6619167  10.8048654  83.8838100
  30.5080414  11.5131688  82.5550461  81.5100765 103.4056282  59.5121717
  82.1171284 102.8983402  60.0510359  82.0730972 103.9798737  58.9930487
  86.4394283 106.8970394  53.7740278  85.9150219 106.6584873  53.0096149
  87.2490978 106.3962269  53.6747789  80.8956146 101.5143490  83.5922050
  80.6939125 102.0554543  82.8288269  80.2110958 101.7293549  84.2257977
   7.1180701  38.1823874  89.5904064   7.3430037  38.3272147  88.6713600
   7.9283065  37.8634000  89.9878979  98.8731861  76.7875099  95.0081539
  98.8456631  76.3748455  95.8714008  97.9750347  76.7236137  94.6833897
 108.0739498  83.8098431  86.3413715 108.4776783  84.0326405  87.1801758
 108.0093002  84.6446037  85.8774471  79.5016432  95.6853962  72.4908543
  79.3494177  95.4547405  73.4072924  80.4100037  95.4314613  72.3276615
 115.0295925  62.3198795  33.1651354 115.6009483  63.0051851  32.8185296
 114.4066334  62.1476316  32.4590993  85.4591656  77.2351170  52.7792358
  85.4443264  77.2988129  51.8242741  84.9776840  78.0064821  53.0782413
  60.4421902  97.6246738  46.5602827  60.7626915  97.2477150  47.3796749
  60.2603102  98.5400963  46.7727757  25.6609726  22.1451473  18.1531858
  25.5492640  22.8766894  18.7603080  25.6887102  22.5539327  17.2881103
  60.8405733 105.0816154  77.7174425  60.3020334 105.1245785  76.9272804
  60.2362823 104.7995567  78.4041119 116.5352821  94.9237442  32.1433830
 116.1689472  95.6743050  31.6757512 116.2736797  94.1653156  31.6212773
  20.9316301  30.2744532  80.5086422  21.2085032  30.2001977  81.4219093
  20.4269409  29.4775772  80.3458214 109.2246056   2.2963683  54.8200989
 108.4370995   1.7570034  54.8918581 109.1452980   2.7237558  53.9672899
   9.0987951  30.0180840   7.9951084   8.5102886  30.6889725   7.6489872
   9.6533638  29.7795868   7.2522724  82.3558426  95.8213234  72.3496342
  82.3815918  96.2530422  73.2035542  82.8644753  96.3944817  71.7760372
  77.9059887 100.0335026  48.9631462  77.2452116 100.6817818  49.2067528
  78.5605621 100.0853348  49.6596193  90.3796101  48.8971138  73.0083752
  89.8613453  49.0525293  73.7979841  89.7336102  48.8474083  72.3037958
  97.2507286  77.9332352  39.5988369  97.2811127  77.3081160  38.8745880
  98.0500889  78.4508419  39.5021558  11.7468655  15.0853038  55.4640484
  11.1933386  15.4560792  56.1513329  12.2835267  14.4331467  55.9145117
 106.9547081   5.9843421  85.5173397 106.9034958   6.9020325  85.2500343
 107.7379894   5.9379154  86.0655594  22.7256393  10.5509543  79.1292477
  23.5148048  10.1067710  78.8191652  22.0065761  10.0945592  78.6923456
  86.6102505 101.9693184  58.3370781  87.1360970 102.7613544  58.2257509
  86.6236591 101.8034554  59.2797041  58.1671524  39.5033264   6.3278699
  59.0601063  39.6733665   6.6277921  58.0559111  40.0767612   5.5695641
  94.9159431  84.2677307  62.8698063  95.3805637  84.5973778  63.6390209
  94.2133141  84.9013424  62.7246237  56.5519047  10.8787024  46.1978960
  57.4128628  10.4911327  46.0404968  55.9321356  10.2245593  45.8750772
  43.0194092  32.1735883  11.7328942  43.8857317  31.8474007  11.4893389
  42.4123240  31.6666746  11.1937129  96.6063023   8.0421901  68.9117670
  96.7563820   7.3490739  68.2688856  97.4526691   8.1549060  69.3444300
 113.8116074  93.0008316  60.3249359 113.2955551  92.8685284  59.5296860
 114.4196987  92.2617912  60.3415775 101.4915848  92.3608398  86.5482044
 101.9166756  91.5277386  86.3445759 102.1220589  92.8226376  87.1009064
  74.8190069  80.5592823  57.7174091  74.0872335  81.1438370  57.9149818
  75.5803633  80.9881496  58.1081009  29.0169787   2.9913288  33.9845943
  28.3117843   2.4685413  34.3662047  29.1739726   2.5931317  33.1284261
 112.3740578  80.0665665  90.1693535 112.4028015  80.6984615  90.8877659
 111.5703011  80.2794456  89.6951389 114.0646839  80.0759029  77.9742908
 113.2457161  79.7358227  78.3346653 114.5441246  80.4023457  78.7357330
  76.9185305  69.4634438  61.1396265  77.4398470  70.2651215  61.1817360
  77.4972725  68.8228416  60.7262039  69.1049433  84.2111015  85.3328609
  69.7124529  84.9377441  85.4712296  69.4631577  83.4959793  85.8587170
  27.4327707  26.6755152  79.7494364  27.0760536  27.5238347  79.4861126
  26.9470096  26.4469981  80.5419350  63.3015156 107.3522186  71.6628933
  63.5491514 107.7868748  70.8468151  63.2399273 106.4254475  71.4315176
   8.9858711  90.9704018  85.7946873   9.6549201  90.3439522  86.0706806
   8.3322757  90.4383659  85.3408337  71.6848183  98.9387894  20.1860571
  72.0459127  98.6031914  21.0065556  72.2912025  98.6293030  19.5131898
  32.0291519  35.9275150   1.8258727  31.2611628  35.8952904   1.2554450
  31.7636180  35.4506683   2.6122183   4.1165006  89.1235352  11.3898265
   4.3280816  88.6002445  10.6167579   4.5024657  89.9811268  11.2115169
  84.0912724  93.1887341  41.1565399  84.7496700  93.1898212  41.8513393
  83.2579136  93.0875111  41.6164303  80.9533215 105.7601357  63.3840132
  80.4457569 105.0016880  63.0952787  81.8329716 105.4153252  63.5374784
  96.3561440   9.9095881  48.9232540  96.2232399   8.9673257  48.8197708
  95.4938221  10.2922940  48.7614632  37.5534844  22.8553319  93.3607101
  37.4309850  23.0429530  94.2913151  36.7274237  23.1156087  92.9531384
  86.8698406  84.3015766  74.5901489  87.1657848  84.6261024  73.7396622
  86.5983295  85.0870991  75.0649786  47.1354818   0.9902798   7.7090985
  46.2500477   0.9152000   8.0649132  47.1940947   0.2871452   7.0622611
  17.8383839   9.2080969  77.3527384  17.1106267   9.4533014  76.7813587
  17.8976393   8.2563174  77.2700596  22.4262381  26.4860916  23.2613850
  22.3863816  27.1147013  22.5406265  22.8890085  26.9504333  23.9588547
  86.8009949  86.5859222  91.0428524  86.7360973  87.3155403  90.4266739
  87.2969246  85.9170723  90.5707073  79.8101187  60.5272055  80.6339931
  80.2785110  61.3545942  80.7447624  80.3232765  60.0465775  79.9844551
  36.1946607  40.2013159  23.9629483  35.8173537  41.0536528  24.1806436
  36.1529326  40.1578569  23.0076456  13.3643401  98.7387562  52.7219343
  12.9699910  98.4574986  53.5475349  14.2494059  99.0141296  52.9608059
   7.3987222   2.8998709  94.3731308   7.2997749   2.1185324  94.9171448
   7.3692632   2.5713742  93.4745502  25.2579045   0.2209137  71.4421797
  24.6137833  -0.3903725  71.7994690  24.7481083   0.9967182  71.2087774
  59.8696995  82.8523922  71.5260506  60.5673933  82.7689171  72.1760416
  59.5820522  81.9534588  71.3666487 107.3458481  40.1510954   1.7282656
 108.0568981  39.6522284   2.1304840 107.7873135  40.8447313   1.2381577
  93.2578659  99.5583916  22.0649695  93.1155109  98.6791897  22.4156260
  94.0090942  99.4639397  21.4793372  98.3693123 109.0608978  81.0489464
  97.5371265 109.4920444  80.8544922  98.2149220 108.6041164  81.8758392
  46.5128660  33.2127047  64.7366238  45.9425926  33.9562201  64.9320889
  46.7932224  32.8938580  65.5945110   0.0087821  31.1220789  23.3081603
   0.5903708  30.9406137  22.5698829   0.5851065  31.4752960  23.9858890
  27.7780271  39.1816592  20.7202721  27.9136205  38.6025763  21.4702773
  26.9449043  38.8964772  20.3450227  88.4174442  91.6122627  81.3324451
  89.3215561  91.9026947  81.4527225  87.9934406  92.3346519  80.8691883
  82.2500801  71.1028814  34.7528458  82.2296906  71.2778997  35.6936884
  83.0284882  71.5639687  34.4402623  10.3565764  10.3979647  47.9063845
  10.5681157  11.2139559  47.4529076  11.2073815  10.0214446  48.1313181
  51.8688822   1.7591913   0.8607803  52.7673912   1.4684521   1.0169439
  51.5730429   2.0891748   1.7092033  92.3246861  90.3944969  89.8551750
  92.5460720  89.6061325  89.3594933  92.0773697  90.0711632  90.7215023
  71.5324640  68.2081652  27.8899240  72.2926044  68.3305931  28.4586334
  70.7790899  68.3191013  28.4698844  15.3927493  68.7434483  36.0939813
  15.1783490  67.8816032  35.7369184  16.0091043  69.1170835  35.4641104
  77.5562572  47.1784115  12.1730006  77.0660877  46.4695930  11.7564130
  78.0182552  46.7565775  12.8974652  56.0116053  23.6031580   9.0807909
  55.3190660  23.5297894   8.4241033  56.7920828  23.2607460   8.6450803
  90.9440422  99.7833633  76.1907911  91.1365509  99.6394825  77.1173286
  90.0411892 100.1011562  76.1802959   9.3432146   3.1170079  57.4836397
   8.6329371   2.7592489  56.9509602   9.6593678   2.3710981  57.9934406
  88.3787918  65.2132130  77.7977800  88.8684559  64.4573069  78.1219196
  88.9326191  65.5796671  77.1084261  83.6585522  88.7203312  52.0400715
  84.0073872  88.5965919  51.1573315  84.0208912  89.5590973  52.3253965
 106.5498638  82.0789146  58.2100630 106.3371181  81.1551380  58.0773783
 107.1237373  82.0848942  58.9761353  84.3646049  88.6342907  84.2837143
  85.0545883  89.0689278  83.7824726  83.6182213  89.2312908  84.2313099
   0.3260790   9.2221427  65.3208971   1.1233603   8.9900899  65.7970572
  -0.2998079   9.4619334  66.0042667  33.4158158  18.6591554  80.6410313
  34.0636277  18.2050216  80.1022053  32.9124045  19.1841614  80.0187969
  64.0700245  84.5816231  71.6152668  64.4637156  85.4219723  71.8499184
  63.7819767  84.2108440  72.4494028  85.0041485 104.8262691  55.4517031
  85.0713634 105.7704544  55.3094482  84.2049980 104.7180271  55.9673214
  29.1388249  19.7593379  69.4436884  29.2376709  18.8316369  69.6577787
  29.4827700  19.8377657  68.5538673  22.8114295  76.7762327  64.0801477
  23.0785418  76.4530563  64.9406338  22.0873046  77.3748302  64.2633200
 105.3989697 103.7814808  46.8342400 105.5121803 103.3491802  45.9877586
 106.1612129 104.3549156  46.9141626  13.0148125  10.7603943  31.1154151
  13.8153744  11.1555076  31.4606953  13.1053603   9.8273891  31.3091540
  41.0283089  48.2121515  17.7463078  41.4421892  49.0099001  18.0757546
  40.2739859  48.0790615  18.3203423  76.9072628  97.7337551  61.7674828
  77.3877668  96.9144726  61.8863010  75.9989119  97.5102806  61.9704151
  81.9256783  63.4225416  40.7959986  81.7691231  63.1146479  41.6887045
  82.7992249  63.0963039  40.5798578  86.3262749  91.8348980  36.1404824
  86.3442898  92.7379036  35.8234715  85.8981705  91.8894958  36.9948673
  61.0877419  25.3713274  10.6060874  60.4446983  25.2106714   9.9154955
  61.0377693  26.3138652  10.7653272 102.0402241  49.3900108  73.1832933
 101.9535351  48.8981581  73.9998722 101.6389847  50.2385378  73.3710337
 100.9104156 107.4985886  70.7161617 100.6916523 108.0288601  71.4824438
 101.7890167 107.7866077  70.4684925  71.2946177  81.4838505  36.9860649
  70.3846025  81.1882496  36.9591546  71.2586594  82.3294067  37.4332595
  78.8450003 100.7940865  36.0015535  78.3430195 101.3055325  36.6361189
  79.0870190  99.9974346  36.4737940   1.7192844   0.5426479  96.1432362
   1.0198589   0.7772418  95.5333233   2.4024978   1.1944435  95.9863567
  94.0244484  87.0462036  41.9959927  94.7371864  86.8106461  41.4020634
  93.4624958  87.6232147  41.4787912  78.9526701  64.5118999  81.0971165
  79.2011404  63.5876131  81.1107826  77.9961872  64.5033455  81.1332035
 111.0618496  23.6609674  74.7476244 111.9525433  23.4765053  75.0457287
 110.6063843  23.9700961  75.5307102  21.3184810   1.3173112  74.2497253
  22.2478867   1.5119927  74.3702936  21.1368680   1.5677008  73.3438826
   9.4555426  79.3179178  39.1609526   8.9213806  79.8193932  39.7769260
  10.1832843  79.9010420  38.9451098  73.0388832  74.6345758  63.9192867
  73.5237694  74.9235725  63.1462383  72.3851013  75.3190708  64.0616655
  28.6882186  62.9173088  32.2529173  28.7137365  62.9767132  31.2979031
  29.4698071  63.3875561  32.5431132  34.4054508  36.6673875   0.9797084
  34.2273331  37.3961186   0.3851850  33.5402369  36.3273001   1.2076873
  14.6100593   5.9932888  83.9752579  15.5487764   5.8272052  83.8888836
  14.5509982   6.9208568  84.2040825  66.5961552  66.5605593  33.2371092
  67.4890327  66.7356348  32.9398775  66.6840839  66.3967323  34.1760778
  53.2088852  64.1548777  20.1836491  52.5217485  64.5788145  20.6978035
  53.4202671  64.7883749  19.4979143  51.8182468  47.6364756   9.1472632
  50.9020233  47.9111624   9.1834342  51.7828608  46.6803026   9.1738832
  78.5881186  56.9217443  87.6850510  78.9869404  56.1983156  87.2014904
  79.3280172  57.3808432  88.0825615  10.7865738   0.3614376  66.7215204
  10.2299523  -0.1740219  67.2869349  10.3450035   1.2099026  66.6848564
  41.4066362  53.1615114   9.0835804  41.4828157  53.2142591   8.1308758
  41.9868851  52.4414778   9.3307543   8.8816696  81.5444374  65.5563354
   9.2354870  81.3036919  64.7001314   9.6492165  81.7931938  66.0713339
  84.2266369  91.5323639  80.9802055  84.7040272  90.7588291  80.6802464
  84.2441845  92.1295643  80.2323627  95.2466106  30.8426714  96.4663315
  95.7744789  31.5425420  96.0819340  94.3564796  31.1943722  96.4807129
  54.2620897 109.1233540   8.3018786  54.3877220 110.0500870   8.5058689
  55.1153803 108.7233734   8.4696096  34.6689224  33.0386758   3.5260424
  34.1963625  32.2412634   3.7648991  34.7446609  32.9957676   2.5728089
  68.3051872  83.3134174  76.7245865  68.9500141  83.7686062  76.1830854
  67.9363108  83.9972878  77.2835827 105.6450367 105.7433796  93.6728477
 106.5191746 105.6420708  94.0494919 105.1540947 106.2304974  94.3346024
  68.9883661  82.2889423  65.9340858  68.2121277  82.4717426  65.4046822
  68.7169218  81.5837479  66.5216541  95.4102993  88.2188797  64.5437193
  95.4528141  87.9688168  63.6207342  94.5145321  88.0088234  64.8077536
  65.8918238  24.7877765  10.3118753  65.6936932  25.7238173  10.3401875
  66.2728882  24.6497393   9.4447142  99.0251923  89.6240902  55.6096792
  99.9369717  89.3914986  55.7851982  98.6822701  88.8856697  55.1063299
  68.9333582  86.3711929  83.7613201  68.0515480  86.6510677  83.5157490
  68.8294554  85.4573441  84.0264988  12.2696924   0.1606892  89.8752213
  11.7907834   0.9407018  89.5951176  13.1860745   0.4365221  89.8950386
  17.1042740   3.8941082  70.9863281  16.1737370   3.9889356  71.1896515
  17.3912644   3.1519374  71.5183496   9.6138787  66.8924236  63.1275797
   8.9796036  66.5170145  63.7383080   9.2029673  67.7013969  62.8227043
  73.6538506   6.4226025   4.8732775  73.8421202   5.9847492   4.0431750
  72.7084064   6.5712291   4.8566359  95.4020309 102.2176456  94.9195576
  95.8105278 103.0790901  94.8342514  94.6681786 102.2386837  94.3053532
  15.8175182   4.5300788  66.4992523  15.4900074   4.6964392  67.3831558
  16.3095462   3.7126175  66.5760422  74.7204304 101.0108757  78.1698799
  74.3060875 101.4827824  77.4474812  74.4275093 101.4715099  78.9561605
  24.2492628   4.9732825  91.9339943  23.7200999   5.7118046  92.2353363
  24.9863267   5.3776920  91.4763737  87.2825909 106.1841297  49.3364668
  87.1250248 105.5701351  50.0536966  86.8772888 105.7709599  48.5740709
 108.1159401  93.1757832  66.2476683 107.6379299  93.1435013  65.4190016
 108.5320663  94.0377998  66.2507057 114.2107296  85.4652500  67.4863195
 113.9101982  86.3733768  67.4513245 113.4630108  84.9787235  67.8333664
  87.8039360  90.3108788  69.3053675  87.6430893  90.8266926  68.5152435
  86.9741440  89.8640442  69.4727373  90.7612419  78.2989597  80.6067944
  90.9283447  77.6002121  81.2392998  89.8337555  78.5071278  80.7193375
  88.9773560  76.9540596  71.8710089  88.6835766  77.3655367  72.6837873
  89.9075222  77.1727371  71.8144417 103.9220047 100.0808048  47.5240707
 103.5738564 100.5061436  46.7404175 104.5626259  99.4524097  47.1909571
  93.9476776 106.3624096  85.1151848  93.4864330 106.7176247  84.3553829
  94.5285225 107.0698833  85.3950691  49.9992847  21.4386463  90.0319481
  49.6501827  21.5261078  89.1449833  50.9008646  21.1426425  89.9063873
  54.7114563  13.9797544  44.9383831  55.5897093  13.8265264  45.2868509
  54.4212103  13.1199372  44.6339130 110.2529430  76.8315458  77.5152206
 109.5683575  76.7555380  78.1798935 109.8000813  76.6770840  76.6861963
 115.0602150  14.9521029  65.9523535 115.2583599  15.2867925  66.8269682
 115.9037495  14.6516967  65.6140757  97.0570660  81.8132496   5.0176919
  96.3374805  82.0268250   5.6116730  97.6274109  81.2392712   5.5290484
  87.5297737  89.3134403  51.3992834  87.9221153  89.7858238  50.6650066
  86.6667366  89.7130585  51.5074587 117.3012733  13.5354483  88.0426121
 118.2152939  13.3464825  87.8302574 117.0190334  14.1474020  87.3628426
  18.9700627  88.5420132  87.8525162  18.3651412  89.1764641  88.2369328
  19.4883144  88.2262707  88.5927582 112.0302582  92.8616142  68.7034321
 111.4125443  92.6943207  69.4152355 112.5521469  92.0612431  68.6461401
  95.1930523  22.5269246   8.9431649  94.7524071  22.0446754   9.6428031
  95.2998257  21.8855858   8.2406586  86.5203190  42.8339767   6.8122184
  86.4153194  42.5177670   5.9148782  85.7047462  43.2987976   6.9993377
 106.6695881  85.2807522  61.6135073 107.3007965  86.0000515  61.5933418
 107.1237373  84.5764637  62.0760584  58.6171103  33.4747601  69.3296385
  59.2937565  33.4220886  70.0046253  59.0547705  33.1862450  68.5287380
  84.9556828  79.3574762  41.7113447  84.9852943  80.3138828  41.6862345
  85.1946926  79.0870857  40.8247805  21.8686891   9.8625970  94.0169811
  21.7537808  10.1214218  93.1026363  21.9890904  10.6881297  94.4862747
  92.7473640  91.8589687  68.6611223  92.3206997  91.2493420  68.0590057
  93.1848717  92.4915791  68.0913639  95.6512737  82.6086140  49.3097162
  96.4206600  82.0395660  49.3308640  95.5421352  82.8976059  50.2156973
  23.8360620  40.9609795  67.5567341  23.0209756  41.3725042  67.2694874
  24.1087270  40.4244089  66.8124390  38.5596895  38.7871575   0.8125098
  39.3239117  38.3071923   1.1316156  38.6228609  38.7314749  -0.1409788
  25.9522080  22.9867506  26.3589168  26.7401338  22.4762273  26.1724448
  26.2232614  23.8971829  26.2411308  16.7617440   3.8255140  94.4817162
  17.2436357   3.0013371  94.4128418  17.0495915   4.2025030  95.3131390
  11.3254404  19.3296218  62.0004177  10.9206152  19.0976346  61.1646366
  10.8647919  18.7942123  62.6464605  91.8204403  22.3552799  89.1307735
  91.0210705  22.1462202  89.6140289  92.3379040  22.8817797  89.7400856
  85.3185940  76.8599176  14.5752442  85.8407688  76.5619421  13.8304138
  85.3127193  77.8139210  14.4972754  76.6699648 109.6175575  90.1894951
  75.9219694 109.7055626  89.5987415  77.0913219 108.8006496  89.9223709
  22.3682737   7.5793827  64.9497461  21.4219689   7.4367690  64.9296713
  22.4657321   8.5164517  65.1189661  21.4755869  17.6331007  75.2836943
  21.5258431  17.4227870  76.2161493  21.7714286  18.5416567  75.2268076
  77.2058630  50.0518560  14.1710973  77.2006702  50.7799578  14.7924399
  77.9991770  50.1853037  13.6523712  56.0005474 102.6113701  69.8313522
  56.5359783 102.3375988  70.5760670  55.6990480 103.4897709  70.0631905
  89.3112373  65.8993435  57.3857832  89.0411949  66.5976858  56.7894411
  90.1894188  65.6586266  57.0906687 117.5376606 105.5130482  68.2549047
 117.8870296 104.7702503  68.7472677 116.8439865 105.1364803  67.7133799
  90.1162148   8.0000663  18.7565315  90.2935696   7.9819220  19.6969831
  90.7781124   7.4222076  18.3767843 103.6786461  88.4777164  73.9452124
 103.6486435  88.2895851  74.8832655 104.4979000  88.0820942  73.6476707
 116.7862415   1.3394573  87.8515244 117.4868298   1.9845197  87.7550888
 116.2487698   1.6750419  88.5689735  37.6438928   0.0693660  64.3704081
  37.4986815   0.9745175  64.0950060  38.5942554  -0.0407167  64.3399620
  11.1025167  88.1177330  64.6816587  11.6838121  88.6495495  65.2252579
  10.9485507  88.6516190  63.9022398  68.2332659 104.4611073  82.5723648
  67.3904562 104.2080021  82.1957397  68.0610418 105.2978134  83.0042171
  95.6822109  19.4225466  76.0124826  96.5335464  19.3194115  75.5872488
  95.8267689  20.0953054  76.6778612 105.6608105 109.9653790  96.2277222
 106.6126800 109.8645022  96.2281132 105.5201984 110.9114090  96.2662983
  33.2614350   2.3289657  88.8850498  33.6202455   3.0445451  89.4098663
  32.4420476   2.0983617  89.3228340  30.2105784   0.8949792  70.7559252
  30.5596161   0.9839974  71.6427612  29.4561362   1.4837256  70.7352448
  31.3257360  21.2772417  77.7252722  30.9109831  21.7217469  78.4646177
  30.6247067  20.7542276  77.3363733 115.3905392 100.9819984  37.2957826
 115.7639599 100.6363773  38.1065464 114.7059917 100.3554249  37.0611978
  16.1645937  50.1160192  18.8432395  16.5289044  50.5463934  19.6167290
  15.7935572  50.8297634  18.3244634 116.9240952  95.4584694  87.5218296
 117.3496819  96.1776066  87.9886818 116.5075684  94.9394989  88.2098770
  42.5151110   1.1263318  80.0089073  41.8520927   1.2398056  79.3279076
  43.3104992   1.5047505  79.6342278  82.2203255  91.8051243  86.3506413
  81.2664509  91.7257214  86.3587952  82.4912453  91.3555717  85.5501842
 103.0543613  99.6743202  87.7505684 102.3980522  99.0055084  87.9459763
 102.5937843 100.5045795  87.8720951 104.7782803 102.8570271  59.1148472
 105.4383945 102.4801636  59.6966124 103.9943027 102.9319859  59.6588898
  82.4602699  78.2090092  68.9783382  82.3338223  77.3961735  69.4677687
  82.6099110  78.8730145  69.6513414  29.6804333   0.7976725  58.9111805
  29.7906280   1.7481899  58.8865757  28.7428784   0.6616276  58.7743664
  16.6232085  14.4493496  77.8354073  16.2298000  14.4729733  78.7077045
  17.5108349  14.1223443  77.9817581  48.0710936  46.7532396   3.8275030
  48.3414888  47.3248720   3.1089222  48.8713694  46.2941217   4.0824544
  72.9950094  82.5637436  64.7762823  72.7221632  81.7364216  65.1729250
  73.7995100  82.7975082  65.2392769  28.8983321   3.1431526  57.8874302
  28.8854671   3.6717793  57.0895481  28.3816838   2.3674759  57.6691866
  49.9280167  51.6687536   6.9626111  49.6617603  51.0767269   6.2591612
  50.2741289  51.0915756   7.6432741  15.7221437   3.3360121  58.5016251
  15.8781433   4.1676724  58.9491034  14.7688866   3.2684878  58.4471083
 115.7404804  79.5572662  60.3279448 115.5311489  79.8191595  59.4313812
 115.9658909  78.6294699  60.2600098  48.8576174   7.8178507  83.4433270
  48.3303070   8.2792401  84.0954685  48.2369089   7.5896960  82.7513027
  55.9653139   3.3446720  42.7857018  56.7528582   3.2972881  43.3276987
  55.5862665   4.1999671  42.9882526  37.4995685   8.3959460  58.6124086
  37.9713655   9.0832192  59.0828228  37.9715872   8.3048916  57.7846766
  24.9504685   0.5314873  89.6135712  23.9939999   0.4941700  89.6167278
  25.1916336   0.4159782  88.6944771  97.4061775 105.5308247  56.2923765
  97.9505634 105.6193829  55.5100584  97.8758526 104.9027443  56.8411589
  15.8449674  32.0307446  66.5294743  16.3833666  31.5162516  67.1308517
  15.6884837  32.8537774  66.9924641   5.2285302  94.8045731  60.5600071
   5.2442604  94.2914581  59.7521067   5.0866544  95.7053280  60.2689219
  55.7683945  86.8605518  53.8735533  55.1384687  86.5015888  54.4985151
  55.5415249  86.4471245  53.0405807 104.0043163 105.9988976  73.4214830
 104.6762657 105.4127598  73.7695742 103.1874847 105.5085182  73.5139418
 106.1520195  95.7820892  70.5752230 106.3907337  96.2297821  69.7635460
 105.2324772  95.5443859  70.4561281 104.1936779  98.1783104  55.8693266
 104.0371418  98.4470558  56.7745924 105.0867462  98.4688473  55.6842566
  27.9055882  49.1780329  87.8421021  27.6063418  48.5053253  87.2304249
  28.8606906  49.1400146  87.7914715  67.0426750  78.8984632  84.1161442
  67.6038551  79.1993952  83.4014797  67.3284817  78.0003262  84.2831707
  61.7286968  56.7449617  15.5780399  60.9275723  56.2259197  15.6489682
  61.4268780  57.6184177  15.3286207  88.5474491  93.7944698  54.2172575
  88.4611797  92.9914093  53.7035608  87.9370975  94.4075584  53.8076067
 115.2997494  98.5253811  81.9515800 115.4356003  98.6677647  81.0148335
 115.3373528  97.5747776  82.0572853 112.7200699  29.7628474  82.6245213
 111.8717957  30.1465178  82.4021339 112.5126934  29.0707469  83.2524014
  13.4642076  10.4457510  96.1623096  12.5566673  10.1875973  96.3234234
  13.5826695  10.3290677  95.2196598  14.7505188  38.6407185  39.8476386
  14.8337758  39.3628526  39.2248869  15.6106043  38.2206345  39.8436451
   0.2644434  75.0068378  61.1231279  -0.0150471  75.5069256  61.8899584
   1.2203049  75.0050640  61.1737013 102.9770851  15.6294966  69.5375395
 103.5655689  14.8955929  69.3606234 102.1602154  15.2186239  69.8206234
  18.2049036  15.0191438  73.6986732  17.3077393  14.7325015  73.8694477
  18.2159984  15.2276874  72.7645302  60.9684181 105.7968330  68.8565969
  61.6412783 105.4643250  69.4506741  60.9107113 105.1362228  68.1663036
 106.4923000  80.2054119  83.9575672 105.6590939  79.9237585  83.5798454
 106.2492275  80.8586979  84.6135902  32.1229076   0.0553441  78.1100702
  32.5293112   0.7171085  77.5504875  32.6467657   0.0645761  78.9111471
   8.1544322  88.8186359  76.3051510   8.9655316  88.3155251  76.2328291
   8.4245509  89.7280788  76.1779785  75.8228683  82.1552277  82.2688675
  75.2409554  82.8139210  82.6479912  76.2186956  82.5912094  81.5142345
  91.0650635  95.3977966  76.6432953  91.6850853  96.1221027  76.5585136
  91.2602234  94.8271942  75.8999586  41.8199587  41.1053276   0.4708748
  41.4603043  41.9312096   0.1471462  41.9170523  41.2395573   1.4136297
  11.4037704  77.8850126  57.8765488  12.3111069  77.5811815  57.9022312
  10.9795916  77.4345779  58.6069012  94.4434261  85.4564762  94.8064804
  95.3404427  85.3647041  94.4852829  94.4739151  86.2158298  95.3884506
  27.7619410  43.6083126  15.9212983  27.5882769  44.5320892  16.1021614
  28.7143707  43.5546446  15.8423674 109.4842339  85.2130413  77.3591185
 109.7652340  84.3277931  77.1275806 110.0063419  85.4362011  78.1297207
   0.4711026  95.6425095  77.1800518  -0.0301715  95.9754848  77.9244184
  -0.1528776  95.1049042  76.6923428  69.0837717 110.4865456  76.6281319
  69.3046331 111.3217545  76.2159586  68.4210587 110.1036263  76.0533142
   1.6078781   0.1776932  91.3999653   1.0734009   0.0492618  90.6163406
   2.4070858   0.5953739  91.0789680  81.2158680  81.9557858  83.6781406
  80.9446335  81.4119720  84.4176865  82.0682335  82.3054314  83.9378548
  39.4017172  44.3398333  91.1439419  39.1503453  44.6845961  90.2871037
  39.0728688  44.9866390  91.7682362   9.5465869   2.9933593  79.0256643
   9.0741849   2.5943846  78.2949877   9.3897444   2.4034205  79.7629595
  77.4059916 111.1934948  55.7305956  76.6563892 111.7887306  55.7262897
  77.0262289 110.3313160  55.8999157  67.7339125  78.7904787  76.8252230
  68.2666969  78.0267286  76.6037321  66.8660975  78.5863495  76.4767122
  98.4733105  83.9853382  85.0762177  99.0135860  84.7193050  85.3688431
  98.1457615  83.5916710  85.8848953  18.2344759  13.6412728  40.6391764
  18.1522775  14.4794381  41.0940981  19.1484416  13.6108696  40.3563786
  13.7409806  34.7645593  85.8271217  14.6184778  34.7630334  85.4447174
  13.3414435  33.9534044  85.5130672  45.3103876  96.1871243  69.0901947
  44.6601868  96.3431168  68.4052563  46.0786963  95.8613300  68.6213732
 101.7293072  88.9308929  71.1884546 102.3804665  88.6828709  71.8447399
 102.1742153  88.8054371  70.3502750  75.8847046  85.3988171  78.7432957
  75.4582405  85.3156662  79.5962000  76.6205168  85.9906101  78.9000988
  65.6332588  88.3503437  61.5185881  65.5398846  89.0638638  60.8873987
  66.5486479  88.3934021  61.7950583  22.4057686 110.0733182  48.9864683
  21.7135441 110.3637983  49.5803404  22.4070656 110.7234533  48.2839346
  15.7545781  23.5641837  78.3701277  15.1867461  24.2958212  78.6120129
  15.9645128  23.1388903  79.2015648   5.5101240  98.9495659  43.8035917
   5.6028229  98.8193607  42.8598309   4.6089354  99.2518806  43.9162874
  48.5350943  32.7279544  70.4881525  49.3787193  33.1564736  70.3435993
  48.4720993  32.6377082  71.4390039  93.0182743 107.5852203  61.7020512
  92.3672962 107.7878380  62.3739243  92.5444889 107.6738167  60.8750629
  19.7319388  10.8500206  71.9947481  20.4789948  11.4398706  72.0958233
  20.0363040  10.1809180  71.3816452  31.8204498  79.7848654  15.0097311
  32.0216560  80.6686306  14.7019863  30.9019589  79.6527815  14.7748661
  87.1071053 102.6598263  40.7353878  88.0001736 102.5939274  40.3972816
  87.2142124 102.9607105  41.6377354  42.4647999   8.0595392  94.4506836
  41.8548489   7.4211556  94.0810108  42.0902395   8.2831544  95.3027058
   6.6614598  43.3046293  65.1323032   6.7268854  44.1721344  65.5315351
   5.7209706  43.1327963  65.0855541  93.5321426  92.2785759  76.7990732
  92.8344727  92.6094341  76.2333584  93.1027603  92.1165371  77.6390791
  77.9228258  97.0752144  76.6249514  78.4358454  96.4468384  76.1168385
  77.8045511  97.8200912  76.0355425  46.7437458  19.0958035  83.5656643
  47.0780373  19.2875278  84.4418621  46.6257524  19.9551868  83.1609821
  57.1906567  21.6041279  75.2204561  57.9531193  21.7022800  75.7907629
  56.7086887  20.8643484  75.5901337  21.2466121  28.2689857  94.1213036
  21.3659167  29.1285157  93.7173176  20.3317547  28.0475330  93.9474583
  70.7060766  12.0096684   1.5146081  70.8323050  12.8464997   1.9618344
  71.5870857  11.7432928   1.2517475  75.4200840 109.8289204  87.6413155
  76.0840559 109.6514225  86.9750786  75.3354549 110.7823563  87.6470757
  62.1314669  69.8312044   0.9379479  61.9237995  70.5198383   1.5695243
  61.5701580  69.0979338   1.1898984  22.9289603  11.8209374  76.2714434
  23.5233116  11.6634715  77.0050526  22.0605302  11.6175449  76.6188526
  63.3933640   3.7062135  70.1078320  64.0368271   3.1599018  70.5591965
  63.7922096   4.5760372  70.0841141  50.2398920  17.6718378  92.9596996
  50.0250340  16.7625463  93.1676865  50.9018040  17.9155731  93.6067677
  11.9139278  36.8966627  86.8156052  12.2601831  36.7231345  85.9402657
  11.0469258  36.4910269  86.8149757  93.7824249  83.5855198  74.4052076
  93.4023380  84.0819836  73.6804342  93.0373192  83.3747959  74.9679232
  88.0336285  87.3658276  66.7449903  88.8232708  87.7173233  67.1562767
  88.0125237  87.7738667  65.8793736  95.8510303  97.1738148  59.9448395
  96.5430355  97.2874737  59.2933512  95.7681370  98.0329895  60.3585863
  42.3237228   5.7442200  78.5269547  41.8273401   5.7169580  77.7089787
  42.1594381   6.6195399  78.8777542  95.7678890  52.6788855  74.3054342
  95.2328682  51.8987465  74.1592312  95.4347992  53.3190441  73.6765575
   3.2649341  10.2025759  29.9164510   3.3489481   9.5619535  29.2102098
   4.1157618  10.1888001  30.3547812 105.9265614   2.4121672  58.0331326
 105.7645702   2.2605942  58.9642715 106.3219166   3.2831746  57.9974842
  39.3898630  29.7268033  86.2727642  39.1816115  29.9276233  85.3603268
  38.5723019  29.3859601  86.6356087  93.5870075  95.6299877  56.2329674
  93.7118149  96.5784645  56.2652063  94.0579224  95.3002930  56.9983244
  36.1666656  20.7901955  49.0403891  36.6239023  21.2702417  48.3499336
  35.3210759  21.2317371  49.1194487  11.8339479  27.4891019  42.6923466
  11.4313793  27.7253318  43.5280275  12.7215600  27.8434443  42.7454233
 104.6585751 104.0329552  77.7701616 105.3425980 104.0689850  78.4387732
 104.4043827 104.9462891  77.6381063 110.1215267   6.1409193  56.9060898
 109.4009781   6.0098594  57.5224209 110.4146671   7.0377100  57.0675278
  29.3606067  28.0174327  67.5710249  29.2512560  28.9604306  67.4484158
  30.2718973  27.9156971  67.8456688  50.4231834  27.8940105  91.2447548
  51.1406660  28.3064461  90.7637596  50.5233145  28.2108378  92.1424294
 109.6495342 110.4454994  20.8415461 109.6131992 109.9677849  20.0128746
 109.0256882 111.1631393  20.7318568 114.6578217  98.4141159  54.8066330
 113.8835239  97.8821945  54.6229267 114.4563293  98.8530064  55.6330776
  14.1438866 104.1314316  60.3149700  13.4287202 104.6784687  60.6398153
  14.9199176 104.6879482  60.3805351   9.2085910  65.3550768  73.7637758
   9.3248421  64.4830990  74.1411018   8.3091199  65.3564119  73.4363890
  12.7777731 105.6921577  71.3414717  13.7324011 105.7098007  71.4093399
  12.4928868 106.5048409  71.7593336 108.2877350   4.7993463  48.6191416
 108.2132339   3.9422542  49.0387535 109.1680717   5.1004219  48.8440561
  14.5948982  15.9998274  90.2182961  14.6719646  16.9226122  89.9758911
  14.1011691  16.0080206  91.0382938 102.6117229  99.5015049  91.2163353
 103.0617332 100.3286266  91.3883305 101.7080688  99.7550678  91.0283279
 103.3623695  79.3891048  65.1964760 102.4069786  79.3874550  65.2552986
 103.5461712  79.6405983  64.2913818  64.0830898  16.7125344  77.7281666
  64.7202444  16.1501312  78.1685877  63.9607573  16.3087440  76.8689680
 117.3761845 100.9172821  32.3748827 117.9840469 101.4047337  32.9308796
 117.4036503 100.0234222  32.7161813  45.7885218  26.4095569  22.6797366
  44.9984026  25.8842421  22.5532889  45.4711485  27.2353888  23.0451250
  12.1741951  84.3078613  88.1449032  12.6740003  83.9775562  87.3983574
  11.7806590  85.1211166  87.8287029 106.5193844  88.3824921  81.5097713
 106.8682194  88.3235741  80.6203461 107.2819996  88.2585621  82.0748329
  10.7200360  16.7586911  92.5971317   9.8063916  16.9765258  92.7816200
  10.6766570  15.9335947  92.1138477   7.1112657 100.4675484  64.1224384
   7.4895972 100.1776314  64.9525261   6.9988167 101.4122963  64.2274618
 101.8431664 111.1226559  87.0230865 102.1388626 110.8229923  86.1634350
 101.2709522 111.8662643  86.8337440  17.1122181 109.1832542  70.8554935
  16.1769652 109.3155766  71.0104799  17.1536684 108.7298775  70.0134897
  57.9516745   3.0600634  19.2569089  58.7460041   2.6397595  18.9273393
  58.0667782   3.9870256  19.0478063  43.7284756   5.3360933  52.5424528
  42.9920053   5.7960922  52.1396494  44.2273569   6.0232550  52.9842186
  25.6823015  95.1832104  31.2434053  25.9520268  95.3004932  32.1542978
  25.3141928  94.3000984  31.2144232  49.4706917   4.3538049  75.2430487
  50.3413391   4.0514189  74.9846601  49.5861483   5.2856797  75.4288149
  18.3760464  15.0676107  10.6578290  18.4670734  15.5918550   9.8621452
  17.8479421  15.6104529  11.2432015  56.9654560  52.8012323  94.1993427
  56.5386009  51.9477987  94.2747307  57.6975441  52.7580404  94.8145008
  26.3461781  29.2735171  44.9834156  25.6713033  29.6854448  44.4438839
  27.1063066  29.8487782  44.8967361  99.6624565 102.8159714  33.4530163
  99.1102505 102.8042793  32.6712465 100.1809311 102.0136642  33.3920527
  86.6661358  97.5500488  51.2385273  85.8215332  97.1941566  51.5146112
  87.3093128  97.0783710  51.7677450  88.3840084  98.4790325  69.5255613
  88.3026505  98.7474823  68.6103868  89.3083858  98.6148167  69.7337198
  58.1464434   0.4881218  39.0419865  57.6946592   0.7570001  38.2420921
  59.0613651   0.3892361  38.7786126 111.8791485  95.3592110  56.3642263
 111.2329960  94.7071934  56.6355038 111.6056156  95.6154442  55.4834557
  92.2383213 111.5946579  62.9313183  91.3039589 111.6025829  63.1390381
  92.6098347 110.9409618  63.5236835  96.3273716  93.1787014  68.7558413
  95.9107113  93.7133694  69.4316769  96.4774895  92.3329639  69.1782427
 107.5916958 106.9282341  88.3800888 106.8775749 107.4063396  88.8015938
 107.3269176 106.0097027  88.4294796  36.3407612  31.1276245  22.4491811
  36.1743808  30.3155065  22.9277349  36.9736934  31.5993023  22.9906130
  50.0834227  33.2679915  77.0369148  50.3552151  32.9473400  76.1769438
  50.6267166  34.0416980  77.1867228  45.3552360   0.7082794  20.7043600
  44.7499097   0.4853104  19.9971843  45.2163476   0.0270031  21.3622403
  16.1284161 105.5245399  46.3345814  15.5319262 105.1692581  46.9935226
  16.9909906 105.1990604  46.5919924  18.0597055 107.2645569  61.9103813
  18.8702011 107.7539825  61.7697048  18.0869091 107.0167160  62.8345394
  33.7771058   5.5190140  61.1186504  33.6335278   5.8113533  60.2185678
  32.8968263   5.4129404  61.4793301  40.7216549  14.5496190  49.0735960
  41.1571693  13.7106192  49.2240477  39.9038124  14.3192935  48.6327791
  37.9224539  71.8129778  64.9402094  38.4499025  71.5859795  65.7060432
  38.3548069  71.3681459  64.2112207   2.9255879  15.2112782  67.1406317
   2.9229718  14.9155259  68.0509949   3.1644091  14.4332802  66.6367340
 104.1621590  74.9818850  63.6058426 103.5790920  74.5854712  64.2532349
 103.5731411  75.3852797  62.9682255 116.7736435   9.8757881  82.4196339
 117.5570107   9.8409426  81.8706703 116.3842010  10.7287884  82.2273922
   8.9273190  93.2153225  61.3497591   8.5125154  93.4840393  60.5300283
   9.0109503  92.2646809  61.2754869  93.0700779 105.8708477  53.6513567
  93.3747959 106.1406422  54.5177221  93.7837410 106.1117840  53.0606985
 118.2641076   7.6911813  60.0351381 117.4643275   7.5747621  59.5222759
 117.9739383   7.6414764  60.9459448 103.5157490 105.4176140  53.4845495
 103.9193535 104.9006557  52.7873468 104.2148399 105.5409336  54.1266489
   6.3600135  84.2810917  55.5357647   6.1256528  83.4215069  55.8856535
   7.0912343  84.1071796  54.9430561  53.2704163   5.9275311  48.1189632
  53.7103939   6.5758204  47.5690794  53.1012630   6.3865548  48.9417124
  39.7090936   8.5229534  41.9258928  40.4718542   8.0399865  42.2439623
  38.9636469   7.9628539  42.1422911  45.4575491   7.8642833  56.6172314
  46.2010193   8.3957642  56.3325977  44.7002363   8.4421694  56.5236330
  92.1649075 105.8263874  77.3203182  92.2391033 105.9369850  76.3724279
  91.9671249 106.7033577  77.6490211  42.2017050   4.1101146  80.7579422
  42.1582556   3.1539306  80.7654285  42.4129343   4.3331847  79.8513794
   7.3418623  25.2067733  44.2318583   7.8854388  25.2431059  45.0189018
   6.8483609  26.0268664  44.2435455  98.3739376  95.8584309  75.0006008
  98.0835056  95.9474373  75.9083271  98.7786293  96.7011356  74.7948933
  99.0319347 108.2367611  33.2874131  98.3118916 108.6001492  33.8028884
  99.7654343 108.1894875  33.9005804   7.6791412 101.9402790  58.5820580
   7.3111057 101.6458702  59.4151878   6.9621265 102.4100971  58.1561613
  79.7509527 102.6629925  45.0727749  80.1860237 102.3997116  44.2618275
  80.3719330 102.4320126  45.7636213  10.8729792   6.4124233  57.8543806
  11.2977040   7.1668434  58.2626581  10.1271284   6.2207651  58.4228945
 101.6690731 108.6161423  61.5816593 102.2957706 109.3391514  61.6088629
 102.1035576 107.9047489  62.0521784   5.5358547  21.9431162  60.0777674
   5.2778274  22.2440672  60.9490204   5.1837403  22.6043558  59.4819403
  22.9257631  22.0061851  48.1290436  23.3465934  22.0897937  47.2733879
  22.1208358  22.5182915  48.0511379  34.7172928  13.9005017   9.2253029
  34.3416834  14.1467655   8.3800197  34.9115086  14.7344291   9.6531796
  25.9499311  45.1533556  90.3229237  25.2612615  45.5782747  89.8116398
  26.4769959  45.8766317  90.6624985  46.1455202  37.3959970  57.8176641
  46.8765020  37.1617079  58.3895111  46.5517426  37.8685808  57.0911074
  10.2052081   5.5011743  64.8952198   9.5213234   6.1633152  64.9957371
   9.8055494   4.6932504  65.2173424  38.1655955  32.7358294  70.2524519
  38.9801311  32.3171568  69.9741030  38.4478188  33.4683633  70.8001518
  36.0189557  36.2909365  45.1811647  36.1549783  36.7546582  46.0074139
  36.0633516  35.3641820  45.4165077  36.1604905  39.7559404  68.7894297
  36.2130666  39.6148324  69.7347116  36.9928956  39.4257712  68.4513140
  32.2857070   9.2742723  39.1965771  31.7444706   9.4656307  38.4306288
  33.1822181   9.2694777  38.8612032  91.6251183  97.9031467  71.7392349
  91.4459133  98.7154293  72.2128534  91.9600677  98.1901264  70.8897161
 104.5665836 103.8473415  66.7194223 103.6244392 103.6910248  66.6549587
 104.7494602 104.4932079  66.0370398  13.8768506  73.1338787  67.6145649
  14.4150031  73.5815144  66.9616938  13.8521051  73.7360573  68.3582067
  55.4425192  39.8202848  72.4472666  54.7593498  40.4878044  72.5099516
  55.1218271  39.2110705  71.7822504  10.9838760  96.3316250  41.8028021
  10.3847182  96.5549755  41.0905123  11.5809000  95.6883335  41.4207554
  92.1937466  85.6760979  49.5615005  91.6359425  84.9046230  49.4619083
  92.9956436  85.4545784  49.0880871  21.7766094  93.3673668  81.3078403
  21.4565992  93.7557125  82.1220970  21.8371534  92.4309349  81.4966869
   5.7623565   8.1746972  60.2562714   4.8322177   8.3844167  60.1720619
   6.0557133   8.0219275  59.3580341  98.5047150  88.6976433  70.0451660
  99.2167187  89.2851734  69.7919893  98.4622192  88.7698174  70.9986973
 116.5641785 100.2899551  39.6493292 116.0142612  99.7730350  40.2380800
 117.4285412 100.2822208  40.0604725  37.2906351 105.5571651  58.7694836
  36.9103026 105.9063816  57.9634857  38.2308722 105.7107830  58.6768055
   9.8459733  94.5061398  74.7069120   9.6276295  94.8462200  75.5746078
   9.9625653  95.2871418  74.1659260   3.2016897  24.7654533  36.0359097
   3.7308857  25.4362202  35.6043386   3.6981964  24.5376754  36.8219328
 105.8075714 104.6896839  34.7464919 106.4183044 104.0978050  35.1857138
 104.9908543 104.1935062  34.6915412  19.9261343  17.9811585  60.7223320
  19.1526079  17.4222231  60.6483078  19.7490025  18.7144935  60.1331997
  25.4510880 104.0810013  75.9689808  25.6067848 103.4785366  76.6963291
  24.5259809 104.3146229  76.0453272   5.9912801  35.8243990  54.3158627
   6.3833725  34.9526286  54.2657709   6.1776090  36.1199832  55.2070093
   4.7668096 105.2236557  43.4018660   4.9202701 104.3454647  43.7503910
   5.5819064 105.6952477  43.5734606  38.6332583   7.4547255  56.2596846
  38.1116438   6.6754580  56.4517593  39.4463778   7.1129942  55.8878136
  40.7687330  25.7563591  55.6520748  41.3814878  25.0682116  55.9113359
  39.9942589  25.2845144  55.3458309  41.9051075   5.6506401  48.5838270
  41.5116310   6.5160894  48.4724569  42.6720428   5.6607318  48.0111647
  76.6662693 107.5815678  31.9006705  76.8025637 108.5005188  32.1312642
  77.4381638 107.1314716  32.2439313  21.5672803  98.5626984   8.0466133
  22.1391058  98.4279728   7.2909051  20.7334471  98.1694221   7.7891588
 114.0682983 109.3156147  74.9890947 114.1387749 108.3618641  75.0293541
 113.1284332 109.4888115  75.0429535 115.3857136 101.8970013  23.8096666
 115.3404331 100.9497070  23.9393830 115.4688358 102.0053101  22.8622556
   3.2851574   8.0197167  76.2791729   2.3530298   8.0263937  76.4967155
   3.7268212   8.1818378  77.1127701  14.5469296  25.1878428  56.9491911
  13.7101638  24.7678757  57.1483994  14.8505878  24.7512126  56.1533403
  20.8132219  12.6990736  33.2336450  21.6128421  12.3584473  33.6346555
  20.1077485  12.3756814  33.7939668  53.7415600  52.4092770  40.2554512
  54.1305017  52.0495892  39.4582200  52.8184700  52.1611738  40.2046156
  46.6318083  12.2947192  67.3700666  46.5185308  11.6957247  66.6320944
  45.7580900  12.6546597  67.5226879 102.7978039   5.7689154  77.2670317
 102.0578957   5.3226930  77.6789284 102.5350761   6.6887987  77.2350407
  26.1557126  93.0355358  63.0832529  26.4198351  93.9238358  62.8436708
  26.1390686  93.0405235  64.0402937  71.6891050  70.1371956   6.5844768
  70.7369089  70.2324200   6.5625435  71.9253588  69.8863173   5.6914610
  34.0870380  17.7652037  42.0187807  34.0485787  17.1707797  41.2695074
  34.6486163  17.3171926  42.6513529  25.4417205 106.5650749  41.7431688
  25.6405878 106.2561989  42.6270676  25.4921341 107.5188923  41.8057537
  54.0061522  18.8054883  36.9180799  53.3834124  19.3823111  36.4756989
  54.8601675  19.0646923  36.5721011 104.5846367  89.0962887  34.5207858
 105.4063034  88.6469746  34.7187948 103.9074993  88.5341167  34.8971748
  83.9628983 108.5902596  46.2140417  84.0427208 107.8007507  45.6787539
  83.1463718 108.9958096  45.9224129  76.8858576  88.2726479  65.4888010
  77.1604347  89.0379524  64.9836636  77.1419096  88.4751415  66.3886166
 112.3578453  85.3284073  74.2815876 112.3426914  86.0437679  74.9174023
 112.7812099  84.6054363  74.7445154  73.8129234 104.4598198  54.8557091
  72.9604530 104.1607475  55.1720810  74.4330645 104.1635036  55.5219316
   6.3364595  90.0440121  52.3223972   5.9505695  89.8622990  51.4654827
   7.2731549  89.8887444  52.2010469   2.2072043 105.1236820  26.9852924
   2.7616149 104.4383240  26.6122723   1.6465613 105.3993702  26.2600970
 106.4655685 107.3265362  44.8214388 105.5434132 107.4900913  45.0191879
 106.6016865 107.7292156  43.9637899 100.4181576  94.5348930  53.4314823
  99.6508026  94.9173069  53.0058527 100.1169205  93.6832714  53.7480640
  85.8520508 102.9935265  62.8375959  84.9263287 103.0325794  63.0779123
  86.1795616 102.2065544  63.2730675  19.3672574 103.6073017  87.1283245
  18.4700775 103.2741356  87.1110439  19.4906044 104.0078926  86.2677765
  52.3134756  12.2541726  48.2945156  52.6927567  12.2775030  47.4159765
  51.7490149  11.4811230  48.2912540  30.1793742  41.5583229  55.5337524
  29.9170589  42.0131779  56.3340807  29.3921924  41.5585518  54.9891615
 111.5129352 110.6509758  63.8903141 111.5173627 110.8547699  62.9550695
 110.9293676 111.3048623  64.2751694  24.1757846   5.9811515  41.0699415
  23.6502552   6.2861246  40.3303146  24.2905641   6.7572272  41.6183567
  23.8687682  39.8789430  85.7939720  23.5655642  39.4406152  84.9988842
  23.1449604  39.7805834  86.4125633 102.6375294  84.7220707  69.7225285
 102.6356602  84.2784405  68.8743353 101.8995953  84.3374920  70.1955891
  16.2589526  17.8771102  82.3213196  16.1100280  18.6654603  82.8433895
  16.0171044  18.1305277  81.4305210  16.6329765  95.9808064  61.8322611
  17.3165178  95.5494404  61.3194942  16.7967427  96.9160557  61.7109013
 100.9296608 104.4809151  66.8848324 101.1560059 105.3821659  66.6551447
 100.5495453 104.5452881  67.7609587   8.3750749 109.5043850  69.5043182
   9.1627586 109.6421528  68.9781952   8.7042320 109.2461491  70.3652477
  48.4193516  12.0354295  38.6797643  49.2669487  12.2795093  39.0515637
  47.8075695  12.1041274  39.4127274 112.6043606  70.0735569  57.6650953
 113.0961227  69.3735600  57.2356653 113.2629395  70.5588293  58.1621075
  11.7213762   9.0441191  34.7363877  11.4425254   9.9405736  34.5497203
  12.6668119   9.1103929  34.8705125  21.6191554  89.8672771  56.8601179
  21.0382581  89.6365070  56.1351776  22.4626517  89.4817829  56.6231823
  99.5954704  76.9832039  66.0904598  99.6163845  77.9393911  66.1291170
  98.7251091  76.7494297  66.4130449  37.9081154  32.9399657  93.9287472
  38.5582685  33.4968328  93.5004616  37.1681547  33.5228944  94.0986919
 116.5469933  68.4843016  62.7088404 116.8485546  67.7677870  62.1503592
 116.9646645  69.2644596  62.3439550 111.2717152  88.6610413  56.7970276
 110.8138943  89.4607830  57.0559740 110.7854462  87.9570484  57.2261763
   4.7756132  78.0828857  58.8583994   4.9950850  78.6830044  58.1457138
   4.5939845  78.6538172  59.6049118  40.5055952   4.3942070  30.9761977
  39.8244166   4.1936529  30.3343201  40.3108025   5.2870131  31.2611294
   1.4433858  12.1014166  72.0924711   1.9974720  12.8158903  72.4067116
   0.5768644  12.2953224  72.4499273  60.0135612  14.6938133  60.7997465
  59.7575712  14.9054873  59.9020338  59.5646000  15.3464794  61.3370514
  74.8697805   8.2814127  19.9209166  74.0870380   7.7572167  20.0905299
  75.1849985   8.5293055  20.7900643  47.3087883   5.8571643  38.7423944
  47.9704618   6.0905749  39.3935013  47.8110313   5.6483269  37.9547572
  50.6314135  12.6806104  53.2511759  50.3857899  13.5698307  53.5064983
  50.8467245  12.7493322  52.3210430  46.9060898  35.9204912  88.0685329
  47.1217918  34.9881101  88.0493259  47.7497721  36.3593125  88.1774902
  13.1666636 109.1991901  58.7959719  13.5052788 108.8721371  59.6294022
  13.6184478 108.6775589  58.1326342 109.1816044 103.5913754  50.7342720
 108.4928036 103.4579754  51.3854122 109.9517727 103.1643486  51.1094046
 103.4385395  78.5173750  51.1927891 104.3752098  78.3580208  51.3089609
 103.2005501  77.9975271  50.4250956  93.7946033  90.5573559  58.3133841
  93.5109138  91.3333893  57.8301287  94.0295792  89.9249744  57.6343393
  90.1754665  18.7467885  41.7650700  89.5031548  18.9603877  41.1180687
  90.1443958  19.4706059  42.3906517  34.1165495  27.3408985  40.4684353
  34.4661164  26.5836287  40.9380913  34.2724824  27.1429157  39.5450044
  30.3016424  61.3858891  43.3800745  29.7493911  61.6687202  42.6512003
  30.5357671  62.1966505  43.8318348  72.8545237  25.0469804  71.0645103
  73.3590031  25.0313663  71.8778324  73.2299566  24.3425584  70.5362368
   1.2283882 110.6237316  24.9162555   1.7864907 111.3968468  25.0002146
   0.3451289 110.9765148  24.8084211   8.3291781 110.8182816  38.2664156
   7.7241957 111.4976883  38.5641313   7.7625811 110.1032191  37.9767919
   3.4940845 103.2747841  51.7433786   4.0014407 103.4940338  52.5248861
   4.0493405 103.5476589  51.0129976  11.8760681  37.4720502  38.2425618
  12.1782601  38.3062243  38.6018181  10.9731650  37.3918629  38.5500813
  39.5204759   6.6880202  45.0631905  39.0844464   6.2213570  45.7761669
  39.1484714   7.5695330  45.0911093 117.8932381  93.4649086  61.1337185
 118.7954330  93.3950233  61.4458036 117.5901413  92.5590324  61.0724735
  31.8451524  47.4867535  66.3165808  31.7147112  47.5345945  65.3695202
  32.3075461  48.2956743  66.5358353  16.9709921  11.8315971  25.8924365
  17.2595251  12.5253963  26.4854145  16.0375476  11.9996774  25.7633519
  20.0579524  15.1817858  68.4401321  20.7161760  14.5300484  68.6814070
  20.4265499  16.0147381  68.7343407  42.7185965  39.7648716  37.7907825
  42.1104717  39.4526601  38.4608150  43.5818338  39.5006752  38.1089902
  17.7425337  97.0731449  51.2146616  18.4430337  96.4342880  51.3465643
  18.1551409  97.9197407  51.3856983  19.0577507  18.4654617  35.9233069
  19.3054450  19.2607784  35.4517674  18.5749459  18.7805855  36.6873932
  40.8718157  45.2449369  49.0778065  41.7917967  45.0692844  49.2753124
  40.7854700  45.0489092  48.1448841 101.7274475 100.6720734  70.5648661
 101.7974663  99.9910069  69.8959303 102.6064587 100.7315159  70.9390783
  18.2131696 100.9850407  55.1951313  17.9853213 101.5299320  55.9483957
  18.7999606 100.3177452  55.5509758  60.3178406  14.2670810   6.4317423
  61.2517786  14.4227302   6.5723401  60.2507544  13.3224368   6.2925315
 114.8246670 111.5167904  60.0198841 114.1801357 110.9811592  59.5573807
 114.7231483 111.2726212  60.9398317  67.0629072  18.2146418  60.9016848
  67.8921938  18.3783460  61.3508177  66.7556906  17.3826492  61.2617350
  38.2167196  19.1954112  31.0127068  37.6817012  19.4976103  31.7466450
  38.9240050  18.6964417  31.4213777  55.1142073  10.8732855  69.8548222
  54.3913126  11.5001297  69.8817205  55.3687239  10.7617593  70.7707977
  84.6044350 106.1724949   4.5089361  85.0810719 106.2348366   3.6811903
  85.2815342 106.2470436   5.1814079  26.2432218  20.5454445  46.6281462
  27.0262599  20.2453041  47.0896626  26.2005639  21.4834952  46.8138170
   3.3549994   6.8025500  52.9600334   3.5872987   5.9067041  53.2044268
   3.5075077   7.3146677  53.7542057  85.7370090  21.8714643  25.6000185
  84.7928619  21.8118525  25.4541731  85.9304619  22.8068089  25.5372715
  35.2599883  53.1090307  55.3906822  35.0377464  53.3374166  56.2932777
  34.4808531  52.6638889  55.0574780  16.4900184 106.6327953  74.4164515
  15.7116425 107.1121693  74.1326141  17.1585608 106.8567562  73.7690496
  84.7467709  23.9857411  56.6345835  84.5491409  24.3466091  55.7703209
  84.3393803  24.5970297  57.2482491  46.2776566  13.9403522  24.6009827
  46.7490530  13.4268105  23.9450192  46.7857981  14.7472894  24.6839190
  49.2390394   5.2895540  53.5242748  48.4352922   5.0928015  54.0054321
  49.4805002   6.1702168  53.8112593  50.6243467  17.6736867  34.6955276
  49.8172808  18.1808126  34.6077728  51.3018370  18.2344019  34.3175936
  44.0265036   7.5007963  63.3797407  44.0641212   6.9360244  62.6078272
  44.5891094   8.2435811  63.1607008  59.7785568  17.3944914  75.6013060
  58.8843727  17.2868991  75.9254932  59.6797848  17.4928057  74.6543074
  99.3533802 101.3663960  50.8044863  99.6826077 101.4463520  49.9092484
 100.0424099 101.7484665  51.3480854  60.7517147  31.8462563  51.4327860
  61.0329151  31.1526322  50.8360958  59.9633646  32.2065425  51.0266733
   7.2965896  25.3924513  61.1592436   6.8573391  25.0248599  60.3923225
   7.7151912  26.1902809  60.8360195  83.5410786  90.1395035  49.3224430
  83.4319305  90.3111744  48.3871078  84.3163300  89.5804787  49.3744850
  32.9844546   5.1132292  33.0849576  33.0954742   4.1789904  33.2613206
  33.6756682   5.5368429  33.5938859  75.6693029  30.3263474  54.4845200
  75.7188845  29.4872928  54.9425173  74.8773718  30.2614546  53.9507961
  95.5113220 104.2283726  85.8538628  94.8332024 104.8765659  85.6635284
  95.0558376 103.3873081  85.8168793  49.2611933   7.9446536  54.6531868
  49.1106606   8.7701249  54.1925669  50.1982164   7.9468775  54.8486710
  32.8391337  15.5034125  62.9176235  32.6956606  16.1787903  63.5805798
  33.0814409  14.7242332  63.4180260  76.9267559  16.9357634  60.4891062
  76.6224051  16.4142478  61.2318182  77.8770685  16.8211353  60.4893637
  58.3753109  24.5625472  72.0661974  57.6828718  24.4833875  71.4100742
  57.9591179  25.0142574  72.8003454  65.7429504  17.1048748  12.7329862
  66.0852671  17.8481793  12.2364509  66.3421106  17.0155787  13.4741068
   5.8056694  94.6402550  75.6664371   5.4398233  95.0520897  76.4492369
   6.4010161  95.2974510  75.3060436  18.1232035 103.7738514  46.9813251
  18.4354913 103.5176659  47.8491259  17.9341364 102.9454422  46.5406227
  33.3241177  22.9610682  61.6242552  33.5686445  22.5713158  62.4636173
  32.5295663  22.4940658  61.3657427  70.1692057  21.9436836  13.2156301
  69.3958855  21.9911313  13.7777293  70.7909012  22.5544119  13.6115265
  25.6175876  52.6446676  50.3348923  26.1428905  52.3781872  49.5803881
  25.3963923  51.8237591  50.7746792  44.9590683  30.4995918  50.9590149
  44.5796156  31.3231373  50.6523895  44.3719196  29.8242188  50.6193686
  37.0301199  94.9718857  48.2029200  36.3421822  95.3751850  47.6734686
  36.6165709  94.1967010  48.5827875  23.9999318   1.2557934  74.9023390
  23.8790821   1.0085152  75.8191156  24.2776036   0.4477165  74.4709015
  43.3286667  20.0909543  45.0251150  43.7154436  20.5421090  44.2747164
  43.6150503  19.1823602  44.9319792  57.3438120  17.8446877  37.4713755
  58.0694866  17.3915911  37.9007149  56.7402554  17.1456420  37.2198033
 109.6950912  90.3635788  47.0803928 110.0758934  91.1248112  47.5182819
 110.3038025  89.6493626  47.2690821  30.1801395  20.2034426  56.2861919
  29.7907186  19.4817162  55.7925415  30.6661105  19.7763586  56.9916487
  32.5426579  22.1265340  83.6443424  32.5992513  21.1814690  83.5033321
  33.0018377  22.5082374  82.8962135  32.9877043  56.1201715  58.8964319
  32.9496288  56.2384129  59.8455381  32.2253680  55.5787134  58.6917496
  36.1982274   7.2713608  44.6302795  35.2720785   7.4835712  44.5143366
  36.5535712   8.0110627  45.1230288  13.4769475  98.8589668  35.9234166
  12.6945412  98.6762714  36.4437008  13.5059512  99.8137283  35.8616447
  45.7111597  40.3875065  18.5351002  45.5293751  39.4985580  18.2302153
  46.4997625  40.6474686  18.0589092  74.6774721   3.9628088  47.0180225
  74.6112537   4.8204273  46.5980959  74.9055243   3.3646470  46.3063860
  63.4384775  35.3511548  79.3803740  63.3302641  34.6140218  78.7794113
  62.9829979  36.0769033  78.9536905  38.8282299   6.4134502  78.3022308
  38.1823826   7.1106786  78.1882811  39.2364073   6.6008812  79.1475105
   9.8524493  37.6354742  90.1027203  10.1470089  38.2186341  89.4031525
  10.3149891  36.8134117  89.9399185  25.9632301  16.1244559  47.3529911
  25.0513911  16.1856961  47.0683336  26.1436915  16.9706714  47.7623606
  27.9162169   6.1954212  65.0544024  27.7579331   6.8682522  64.3922281
  28.8062048   5.8904189  64.8779774  24.5283508 104.2181969  37.0016479
  24.3485594 104.9897289  36.4643931  24.6962643 103.5196972  36.3690877
  44.7187710  25.1936173  50.1836014  44.9170065  25.7245827  50.9549713
  44.1467094  25.7473636  49.6522379  53.9918804   7.6405233  50.4502535
  54.7954559   8.1594867  50.4160452  53.9464664   7.3286510  51.3540840
  65.1056719  18.3176601  37.1320796  65.8243895  18.8760459  36.8356347
  64.3532610  18.9064837  37.1903682   0.8722865   3.4760469  28.9150214
   0.8418929   3.5709485  27.9630232   0.2710902   4.1454014  29.2417598
  48.9629507  32.6168680  42.2822142  49.4635105  33.3110881  41.8535805
  49.5807981  32.2203994  42.8964758  50.4575300   6.0681432  63.6577320
  50.5329657   6.9097209  63.2079649  50.6325483   5.4169559  62.9783535
  33.3965421 101.0605812  59.3907404  34.2548132 100.7121849  59.1494370
  33.4903502 102.0092773  59.3047762  67.0440006  23.7522531  28.5496020
  67.8190422  24.1722679  28.9226127  66.3087034  24.1466975  29.0186262
  27.4408484  44.7242451  62.6137066  27.2853184  44.4030666  63.5019016
  26.6957140  44.4000101  62.1078634  20.2899957  32.9887772  88.3848953
  19.8361874  32.7474761  87.5773907  21.0876393  33.4277129  88.0893803
  77.7241278  15.9994817  69.4967651  77.3219204  16.8677378  69.5211220
  77.0086432  15.4107344  69.2565680  26.8067765  13.0235302  55.6073618
  27.6693821  12.9697359  55.1959610  26.1927414  13.0508685  54.8735714
  54.6972990  17.2283375  81.6860390  54.5919991  17.7136815  80.8677578
  55.4894066  16.7071247  81.5551376  11.6170716   2.4333347  55.7846928
  10.8798563   2.4713328  55.1753473  11.4571202   1.6462219  56.3053703
  44.7259951   8.5969388  51.0601568  45.2726030   8.3156633  51.7938757
  45.0704145   8.1168723  50.3070688  22.2578502  35.0112891  88.2973003
  22.8360009  35.6845427  87.9385471  22.6052570  34.8387241  89.1723824
  52.6261806  12.8583944  65.9377480  52.0568323  12.6821542  66.6867542
  52.3270845  12.2507513  65.2613258  18.7005675  48.6535740  67.3517370
  18.6625791  47.7908421  66.9388485  18.7997413  49.2644262  66.6214943
  61.8368340  18.6282825  41.1310434  62.1293497  19.0326762  40.3142643
  61.2267637  17.9444230  40.8546638  56.2837362  16.4583802  46.7899179
  57.0721054  16.5397024  46.2531757  55.6444836  17.0300448  46.3647270
  29.5168829  31.0716343  67.3072338  30.2370453  31.3277006  66.7310143
  28.7973714  31.6545701  67.0649052  78.7796164   2.2414471  61.3075638
  78.7282944   3.1863493  61.4516354  79.6370506   2.1069412  60.9038877
  32.2386265   7.4734759  63.7282562  33.0006957   7.1254331  64.1912317
  31.7713118   6.6974837  63.4189224  17.4012387  14.2660356  36.6338372
  16.7241180  14.9107754  36.8388987  18.0635071  14.7597814  36.1502600
  65.9575224  44.8000956  95.6950092  65.2685642  44.9601889  95.0500774
  66.1305857  45.6596518  96.0789871   2.4972345  20.6269598  56.9506836
   1.5750620  20.7299352  56.7156792   2.9493576  20.5354476  56.1119652
  50.4145002  22.5654173  55.9534883  50.9375620  23.1337070  56.5188932
  49.5855379  23.0318117  55.8461094  46.7783165  34.6720338  39.3078470
  46.6721392  34.8810530  38.3798027  47.6358509  35.0300455  39.5374060
  22.6273775   5.2014983  74.4675636  23.3811569   4.8195547  74.0179300
  22.7664471   4.9895924  75.3905964   6.4641309  96.2190533  40.5879641
   6.9639099  96.7796898  39.9945474   7.0032054  95.4342937  40.6869078
  44.8330975   7.6255345  35.2247262  44.6388769   8.5580128  35.3195667
  44.3243790   7.2033113  35.9169459  30.5144644  10.5740499  31.4994264
  31.0231757   9.9109423  31.9660449  29.6023035  10.3262830  31.6504502
  47.7969265   2.6666519  42.7817440  48.1120157   3.5050365  43.1194735
  47.2018814   2.9034102  42.0703363  26.1490393  14.6991634  28.2304025
  26.9625258  14.2107010  28.3564091  26.3761592  15.3846943  27.6021552
  17.8112197 100.8138371  39.9775004  17.0718074 100.5258274  39.4421959
  17.8804314 101.7528152  39.8049688  38.5194325  46.4152718  93.2069588
  38.7408257  46.9550753  93.9657974  37.5693822  46.4971876  93.1237507
  43.4398699  13.4898233  80.4533386  43.3328581  13.8791990  81.3211918
  44.2332172  13.8963091  80.1046181  58.4030533  14.1891563  72.7480793
  58.7740421  13.7161016  73.4929371  58.1854248  15.0533164  73.0975008
  14.3348169 100.9458160   9.9339867  14.9575341 100.9309864  10.6607842
  14.0015137 100.0498104   9.8858386  22.6478839  10.2286661  48.6834002
  22.0857477   9.8434424  49.3555927  22.2611141   9.9436057  47.8555250
  22.4422097  23.8702869  37.0929575  22.3833752  22.9162765  37.1442533
  21.6496396  24.1343546  36.6256976  87.7293491 100.5620575  85.1931763
  87.8246212 100.2947998  86.1073589  87.2795677 101.4059162  85.2359676
  87.8048992  87.3372078  27.6830769  87.4541092  86.6992378  27.0616436
  87.3190594  88.1414986  27.5005507  24.2949271  15.9522057  80.2180958
  24.9129653  16.3387537  80.8384609  24.4813704  15.0137997  80.2475166
   1.0791818  88.3653831  34.1611481   0.4266591  88.9631176  33.7962317
   1.2700444  87.7552509  33.4487271  31.6630101  21.7327261  68.6582947
  30.7217836  21.8928194  68.5897732  31.9390512  21.5400720  67.7622366
  32.3438740  13.1074309  72.9866982  32.3709369  13.1844735  72.0329857
  33.1952596  12.7382731  73.2214260  28.3149052  19.5022702  61.9159555
  28.0927420  19.5886874  60.9889126  29.0267015  18.8625169  61.9330406
  19.8322392  25.4240012  89.1045570  20.0011349  26.2373042  88.6289024
  20.6252241  24.9031591  88.9775467  88.3188248 104.0735817  70.1855469
  88.8613796 103.3040714  70.3579521  88.4180546 104.6166706  70.9674931
  35.7693529   4.2464292  30.9534264  35.7841396   3.3072084  31.1374855
  35.8228922   4.6601945  31.8149161  35.4731083  32.8042340  59.6390772
  35.6535506  32.5581145  58.7318277  35.2617455  31.9780850  60.0738573
  61.6326046   9.9577457  19.2004156  61.6439676   9.2277980  18.5813212
  62.5042963  10.3465724  19.1282821   1.7197077  96.5198231  13.0438066
   0.8851003  96.9836617  13.1110549   1.4754094  95.5981445  12.9597878
 102.8982449  84.6579266  28.6009932 102.5300026  85.4937077  28.3144712
 103.2840633  84.8468494  29.4563770  46.9174051  54.1437531  38.3477473
  46.8325233  54.8689365  37.7287722  47.8113461  53.8253069  38.2224631
  15.5247021  89.4098949  26.6138291  15.8406913  89.4024563  27.5173378
  16.1435068  88.8549709  26.1390996  89.4929409  91.1189842  34.4870353
  89.1789722  91.3269329  33.6070251  88.8395786  91.5033913  35.0714898
  43.3880424   3.7620601  43.7650585  43.1740808   4.0227956  42.8692532
  42.6359653   4.0476704  44.2837477  64.8537397  31.3845682  71.0076427
  65.5114746  31.0969210  71.6407919  64.2058706  31.8549514  71.5322781
  23.3163095  14.9129283  46.4142323  22.9951620  15.6419492  45.8835506
  22.8467417  14.1485560  46.0803556  48.2327557  16.3936734  29.5330477
  48.8208580  16.5860224  30.2633691  47.9427862  15.4949379  29.6893358
  29.9490333   7.4846590  71.5033484  29.7350955   8.4151161  71.5719938
  29.1223741   7.0658815  71.2635708  34.8021388   3.3799836  54.0730333
  34.4535542   3.1222233  54.9264288  34.0331078   3.4296763  53.5052729
  24.4614363  22.4258041  56.6418695  24.5261884  22.4664283  57.5960112
  25.2096033  22.9344201  56.3291597  22.4727869  58.2298708  74.5264053
  22.4151635  57.3912907  74.9843216  23.2874537  58.6201572  74.8429918
   8.2529640  46.9204235  90.0490570   7.6580882  47.5825500  90.4011250
   7.6909715  46.1682892  89.8628139 100.1859760  70.4013872  94.0050793
 101.0908222  70.3077030  93.7072468  99.7784519  70.9751463  93.3562660
  23.3903646  24.6759439  61.4396238  22.7269506  25.0053287  60.8333063
  22.9758143  23.9241409  61.8629122  20.8171797  21.2425280  20.4549003
  19.9432051  21.4522719  20.1256442  20.8964396  20.2958369  20.3377461
 114.1110516 110.7867622  68.0200672 114.6802616 110.6098461  67.2711134
 114.2513466 111.7135811  68.2138634   2.8465971 100.7207298  52.7276278
   2.8342566 101.6631508  52.5605488   3.7758774 100.5018806  52.7967501
  40.8969116  37.8932858  44.2579937  41.3762856  38.6701107  44.5460510
  41.4087439  37.5547004  43.5234118  22.8496957   0.8537850  67.3662233
  23.6947751   0.8266593  66.9175196  22.8382826   0.0617134  67.9035521
 109.7716045  63.9460421  71.0198784 109.6151733  64.8890114  70.9691954
 110.6559372  63.8309240  70.6721210  46.1198139  13.4741724  19.3939245
  45.7636070  12.5865471  19.3555999  46.7752886  13.4393311  20.0906110
  46.2000847  35.0760460  75.1523066  46.3573551  34.2217875  75.5544806
  45.7237196  34.8772240  74.3462181  56.6616297  20.1957059  56.5386295
  56.4969683  20.9608006  55.9874964  56.0165262  19.5498145  56.2507057
   5.2949893  22.3740268  68.3609390   4.8397264  21.5431309  68.4972477
   6.2239808  22.1498418  68.4152317  54.8961020  27.3233223  85.0278664
  55.8496666  27.2870278  84.9528503  54.5909977  26.5285921  84.5902061
   6.7359281  27.8299785  57.0675993   7.0820427  28.7221670  57.0884848
   6.1305773  27.7905202  57.8080225  41.1564398  53.0161905  45.7733440
  40.2442360  53.0752850  45.4894018  41.1055613  52.7237463  46.6833544
  39.0134883  43.1316185  72.9120207  38.7435436  43.8757706  73.4501696
  39.0281987  43.4749460  72.0186329  98.0342388  87.1297169  67.5142336
  98.8271713  87.4745560  67.1036434  97.3288441  87.6782131  67.1710110
  59.1837215  29.6869397  76.2033796  58.4607887  29.9484062  76.7736721
  58.7978649  29.0462923  75.6059551  49.8652983 100.8223724  76.3013935
  49.7040653 100.9228992  77.2395468  50.7859659 101.0593605  76.1898518
  84.9007988 103.7783623  80.8904362  85.0297832 103.8462257  79.9444008
  85.1347542 104.6434593  81.2267303  43.0072260  51.6889286  65.6834507
  43.9618254  51.7027807  65.6143093  42.7184963  52.4386740  65.1631165
   7.7537525  35.0651646  48.5190487   7.6095521  35.6615877  47.7843952
   7.0425147  35.2603626  49.1291904 102.5668526 109.4448566  47.5358963
 101.8523884 108.8532066  47.7719402 102.5869846 110.0900269  48.2427120
  66.3028574  18.0802023  43.2402182  66.3111162  19.0372860  43.2278299
  65.4005814  17.8513336  43.4632587   0.8833223  69.1010761  83.7791061
   0.3646247  69.4403172  83.0496502   0.8867337  69.8110199  84.4211292
  48.1576347   9.5166326  61.0440922  49.0506887   9.1760135  61.0957623
  47.8801203   9.3261778  60.1480198  65.6922865   8.7416774  64.6313858
  65.7307196   7.7866620  64.6833515  64.7966528   8.9304537  64.3513298
  27.3602176  32.1564579  72.4740791  27.7769303  31.5328383  71.8793678
  26.6474748  32.5371599  71.9609547  30.2867508 105.3689480  21.8743443
  30.8484316 105.8712959  21.2841010  29.6640396 104.9289227  21.2956858
  35.9852719  32.9059815  80.5608368  36.1036491  33.3084607  81.4212036
  35.9242368  31.9679809  80.7415581  49.3570232  23.0427074  28.5382700
  49.6127987  23.9614415  28.6203504  49.9861002  22.6734042  27.9185057
  57.3487186  19.3404770  25.0608516  58.2558632  19.0805733  25.2213836
  57.2935057  20.2359438  25.3944969  59.1366196  28.9511466  49.6915913
  59.1152096  29.8896742  49.8785114  59.0815639  28.5343456  50.5515194
 110.4866505 107.5347519  64.5951319 110.3279495 108.4379482  64.8694944
 110.3793049 107.0192432  65.3944778  65.1239252  22.8941369  59.1530943
  65.2243757  22.9901433  58.2060337  64.7162485  22.0353389  59.2648745
  13.4034669  23.8257170  75.0380850  14.1622257  24.4057107  75.1023149
  13.1264222  23.6924815  75.9445715  35.9537601  14.4308698  28.1412125
  35.0667191  14.3570435  28.4932590  36.5125895  14.0487587  28.8179207
  31.2105918  43.3519888  35.9225893  31.8756676  43.9418507  36.2775111
  31.7041993  42.5915289  35.6155372  52.4380016  19.8501956  50.3854179
  52.9437208  19.1152704  50.0384760  52.0777512  20.2803493  49.6099043
  57.6494122  15.4750073  67.5676298  57.4423313  14.5952010  67.2525311
  56.8023348  15.9183240  67.6141071  77.4737978   4.5187101  77.6182938
  77.6755142   3.6695242  77.2253227  77.8912735   5.1560134  77.0388174
  20.5437779  22.9737568  46.7844963  21.0566950  23.6640215  46.3641596
  19.9911332  22.6260495  46.0845566   1.4276387  28.9224577  81.7291641
   2.2809108  28.7422872  82.1237564   0.9754422  29.4661546  82.3742580
  13.6166811  73.5186386  90.0223160  13.4750175  72.6351118  90.3622341
  13.6001706  73.4147310  89.0709114  34.3022037   9.6970946  35.2372527
  34.0803862   9.7578037  36.1664152  34.6714997   8.8198268  35.1359940
  13.1161678  97.5200272  55.9505558  12.3282743  97.4027920  56.4813232
  13.6655724  96.7669201  56.1678362  28.7321258   8.9202774  66.2928104
  28.8888812   8.1344306  66.8163633  28.5667253   8.5905653  65.4095411
 107.7431011  87.4748135  50.9394217 108.4497356  87.5455761  50.2976370
 107.5431824  86.5393448  50.9733915  45.5894995   4.9240524  70.3509045
  45.9437561   4.5227629  69.5573664  46.1863136   5.6481010  70.5400991
  38.0001616   4.3233773  67.1178818  38.7543249   3.8199040  67.4244452
  37.6223755   4.6974981  67.9138327  39.9433446  33.1670570  76.4991951
  39.9081278  32.3404074  76.0178995  40.4023409  33.7670803  75.9113789
  35.0304437   9.1939533  71.1594915  34.1420698   8.8491446  71.0693359
  35.4646397   8.5841876  71.7560577  47.3479080  16.3665915  25.1480865
  47.2687244  16.9867468  25.8729100  48.2753563  16.1301398  25.1354146
  82.4056816 110.1253319  41.4487505  83.1275177 110.6003189  41.8605375
  81.6590881 110.2742481  42.0289707  99.5644379 107.3338223  20.0530481
  99.1583443 106.4677620  20.0884414  99.9349785 107.3887920  19.1721916
  68.9007998  22.7789903  48.5951519  69.6506119  23.2912970  48.8977337
  68.8360834  22.0569921  49.2202616  30.9488201  11.3681221  60.2629614
  30.5814672  11.6405308  61.1038399  31.7290688  10.8642602  60.4944134
  62.8197289  38.4880948  68.5244846  63.1443214  39.2932153  68.1211853
  63.4033108  38.3408976  69.2687941  22.7605653  34.1143513  55.9150362
  23.2347393  34.6741438  56.5298748  22.9609370  33.2226348  56.1995125
 117.7827644   9.4135392   9.1964203 117.5956726   8.5751057   9.6186256
 117.2651386  10.0504994   9.6889371  60.0913858  11.1344504  43.9898586
  60.0929785  10.2991259  44.4572592  60.5745125  10.9581113  43.1825638
  32.2198844  45.5586243  93.0763817  33.0591965  45.8649588  92.7329540
  31.8508101  46.3211060  93.5220814  45.4738474   0.3778428  40.7918644
  46.2114382  -0.1825441  41.0330200  44.7003031  -0.1084008  41.0772181
  20.8886147  12.9567790  42.3479223  21.2912250  12.7212608  41.5120554
  21.5338516  13.5209966  42.7740145  46.3997459  28.3273196  75.3158188
  46.2318325  27.9920459  76.1965179  45.5870867  28.7685299  75.0685263
 112.4379063  99.9446011  75.5766964 111.7238426  99.9522591  76.2140989
 113.2332802  99.9872208  76.1075401  20.8430386  93.1373119  53.3042717
  20.0113058  92.9859829  53.7532139  20.6935239  93.9256382  52.7823305
 105.7802582  81.6734028  26.6337156 105.6456375  80.8996582  27.1809173
 105.1930332  81.5450478  25.8887839  36.9357681  41.7626905  64.1887617
  37.8213906  42.0121288  64.4527435  36.3772988  42.4576044  64.5372391
  53.6805868  13.0333519  30.4290509  52.8474617  13.5028815  30.3881240
  54.2854261  13.6537528  30.8358765  87.1229649  39.9077415  68.6076498
  86.5701771  40.1032972  67.8510714  87.9369450  39.5746565  68.2298470
  42.2087812  37.5978661  61.3072681  42.7503300  36.8223357  61.4539242
  42.8105450  38.3342624  61.4160347  47.6033878  24.3868399  41.5672064
  47.5946093  24.8016047  40.7045841  47.0759106  23.5956049  41.4579105
  54.3450356  18.4779525  46.1911774  53.9730072  19.2219377  46.6647959
  53.7548637  18.3471513  45.4490042  74.3548012   1.7271219  42.2494316
  74.3538189   0.9718668  41.6613674  73.5231018   2.1676403  42.0749140
  12.6836526  94.2960358  80.8290482  12.3558617  94.0755653  79.9571657
  12.5951469  93.4853649  81.3302612  44.2169237  32.9349017  50.4436016
  43.3684969  32.9082108  50.0012350  44.4831562  33.8530922  50.3958464
  38.6308050   2.9437196  32.9016805  38.0009437   2.6283479  32.2535706
  39.2221355   3.5096160  32.4053717  51.8498135  24.0993643  46.5817261
  52.4232101  24.5323277  45.9492779  52.2626591  24.2620087  47.4298668
  17.9290450  82.6222324  48.3728790  17.8806484  82.3546696  47.4551058
  18.7243021  82.2038841  48.7027073  29.5267749  20.9800220  33.7950206
  29.2280173  21.7857075  34.2167401  29.4778514  21.1679363  32.8577232
  60.8503056  20.3001022  65.6867838  60.5009460  20.7663655  64.9273252
  60.1475477  19.7041750  65.9460735  37.4101162  22.9109287  28.3320975
  36.9201303  22.7323461  27.5294447  37.1044564  23.7736273  28.6123753
  13.9831972  83.3642578  42.1848011  14.6896064  82.8172779  42.5283480
  14.2376792  83.5435390  41.2796307  47.7422571  20.8935213  56.5949059
  46.9057131  20.8788967  57.0598888  48.3981180  20.9931731  57.2849417
   9.0861803  42.7542639  86.5304375   9.9136341  42.2920656  86.6643238
   9.1772527  43.5604572  87.0383549  38.2244635   5.1141620  47.0563793
  38.3687067   4.4311139  47.7112579  37.4648690   4.8119926  46.5584421
  68.9170074  12.0064235  85.7054996  69.2136908  12.9057765  85.5663013
  69.6943426  11.5434325  86.0179424  51.8420839  36.4227343  63.8699389
  52.7601242  36.3225341  63.6181736  51.8531227  36.4073086  64.8269510
  43.1865740  45.0373459  51.7567444  42.3376846  44.6140051  51.8847990
  43.7961769  44.3133163  51.6139221  97.8794003  95.6124592  84.3727589
  98.3920479  95.6010151  85.1810265  97.0361519  95.2320004  84.6185589
  36.7936826  18.9220321  59.2711449  35.9802961  19.3037200  59.6012211
  36.5173793  18.3555961  58.5507011  53.1065083  14.0464163  77.0551109
  52.3938560  13.4895468  77.3685551  53.6862278  14.1415894  77.8108263
  54.3583822  36.2208867  41.7617941  54.2103100  36.8715739  42.4480295
  55.1970577  35.8194995  41.9892693  27.4916148 106.6407204  83.2627487
  26.8610120 106.4213371  82.5768566  28.2742000 106.9206619  82.7879524
  58.9546490  41.8570280  66.7459965  58.2207823  42.3129797  66.3339615
  59.7233868  42.1485186  66.2557888  20.9588337  26.4136076  39.2897081
  21.4614940  27.2276497  39.2597103  20.9476089  26.1055112  38.3835173
  49.5954370   5.3062809  71.1132097  49.6578693   4.7298625  70.3515816
  49.3348074   6.1534148  70.7517290  62.5461102  40.3182554  78.8869572
  62.9367161  39.4854355  78.6222506  62.2883368  40.1828146  79.7987890
  57.1162176  25.3782368  53.4256935  56.6250896  26.0576153  53.8877201
  56.7086458  25.3343916  52.5607109  35.6421828  38.5078692  51.7728090
  35.0683856  38.9067960  51.1187124  36.4396405  39.0366292  51.7462397
  75.4909658  21.1120653  87.9566193  76.3591146  21.0499525  87.5582504
  75.5148935  20.4875588  88.6816406  44.0558958  37.1282244  82.5178337
  44.1345406  37.9780602  82.0844460  43.1862545  37.1427512  82.9175091
  29.8421168  38.2713008  68.6667109  30.5367231  38.0264258  69.2780924
  30.0984931  39.1363025  68.3469057  42.7376461  29.8194766  47.7583885
  42.0239973  29.4698787  47.2247982  43.5336304  29.5484567  47.3010206
  79.3839216  16.1806285  72.9868126  79.2028093  17.1116078  72.8575516
  78.5530567  15.7460225  72.7944088  60.1872301  58.3780766  35.1060891
  59.5078516  57.9854584  35.6542921  59.7103357  58.7542486  34.3662930
  56.1721992  26.0126662  93.1907368  55.4125261  25.8886218  93.7597275
  56.8499756  26.3625884  93.7690163 111.5851593 105.1273441   0.6495380
 112.1083641 105.3746605  -0.1129072 112.0607090 105.4933453   1.3952798
  68.1498861  18.6541533  78.6228275  68.8355160  19.1765082  79.0391111
  67.4288702  18.6599374  79.2523766  46.2244892  44.7164822  74.8542118
  45.4457235  44.6186543  75.4021025  46.1122751  45.5661726  74.4279861
  27.5085497  13.3533919  44.5062351  27.9163313  12.5211930  44.2666674
  28.2410264  13.9144468  44.7610426  30.6594014  33.1872725  63.0187130
  30.6564069  32.2308064  63.0560970  31.3948607  33.4463620  63.5738754
  59.9629879   4.6014765  61.7583895  59.8572826   5.2514809  61.0637331
  60.8549261   4.7360700  62.0786428  73.9155245  11.7024624  67.2549200
  73.8481283  12.0833623  66.3793564  74.5094490  12.2873163  67.7254820
  70.7438660  18.6132026  66.6665268  70.4112339  17.9410863  67.2613811
  71.3262558  19.1456246  67.2083569  23.8427973  31.7161083  37.3403287
  23.7394404  30.8405662  36.9675374  24.7696233  31.9210720  37.2169685
  20.8189774  35.9219956  30.8644605  20.5532622  35.1306081  30.3961301
  21.7752004  35.8815670  30.8797789  46.0524988   1.0265592  74.1947412
  45.2863979   0.5883867  74.5653105  45.6918573   1.6344380  73.5492563
  49.6576643  28.7181139  46.4808321  48.9928150  28.4861493  47.1292114
  50.4593754  28.3050179  46.8015289  67.9151964  14.9714553  27.3323393
  67.8422832  15.9062231  27.1396661  68.0156660  14.9300551  28.2833505
  79.4353628  14.3092525  27.9959178  79.4999075  15.1393354  28.4681749
  78.5350561  14.2876029  27.6715589  62.7936888  21.0828876  51.6192484
  62.4717379  21.9279480  51.9330168  62.1164942  20.7777786  51.0154676
  45.0721502  28.2645893  63.5966015  44.4776106  28.8144255  63.0862761
  45.1934338  28.7410450  64.4178915  58.5571814  28.1972265  40.5687428
  59.2702961  28.2163906  41.2069607  58.0680084  27.4020386  40.7799768
  41.3744879  10.2697515  64.6360540  41.2718439   9.3182343  64.6183777
  41.8120146  10.4480326  65.4685307  64.0498543   3.2367089  81.5737629
  63.7466764   2.7369773  80.8157539  64.7924042   3.7434980  81.2451172
  20.3191924  29.6942377  25.6189203  21.0860634  29.1850758  25.8813930
  19.5808697  29.0987730  25.7475090  52.0362997   5.1541322  55.0874710
  52.8564978   4.6664244  55.0122786  51.5985346   5.0175458  54.2472696
  49.3143082  38.3932066  47.6028776  50.0707579  38.8644004  47.9521561
  48.5758638  38.9847732  47.7477169  40.1121426  34.1889191  55.0701475
  40.4339790  33.7625647  54.2758751  39.1671181  34.0372682  55.0572729
  65.0392246  29.8913836  68.7912369  65.0204659  30.4847121  69.5421314
  65.3110504  29.0498948  69.1576242  51.9803619  43.7055445  52.1362782
  52.1760559  43.2163763  52.9354382  52.7850246  44.1885710  51.9480276
  13.5878861  15.3102362  62.0576954  13.3556342  14.8076272  62.8385115
  14.0776682  14.6939969  61.5130901  71.2261581  34.1477036  69.0193605
  70.6619120  33.4289408  69.3043804  70.8828259  34.9166465  69.4744158
  69.9498034  20.1629853  55.6517601  70.0113058  20.6276059  56.4863682
  69.7184372  19.2661452  55.8933830  63.3072567  10.3917634  62.9884481
  63.3127975  11.3486063  63.0140114  63.2235050  10.1774716  62.0593119
  43.7557489   0.2431152  74.9553442  43.2187677   1.0288475  74.8528624
  43.2764247  -0.4378082  74.4833040  37.6016855  42.2629547  34.6454120
  37.1265316  42.4413729  35.4569721  37.4054050  41.3468313  34.4494057
  50.1996660  51.1670637  75.7620621  50.5328226  51.5991354  74.9755812
  50.9825802  50.9659719  76.2747383  36.7702961   3.0334327  85.4793739
  35.9963202   2.4728113  85.5332088  37.0484400   3.1456697  86.3883686
  45.9466505  21.2448359  71.8290472  45.2767992  21.3966084  72.4957514
  46.7736292  21.2695289  72.3104334   9.4258785  25.4589891  45.9450960
   9.2697674  24.5775938  46.2842226   9.4713128  26.0113335  46.7255354
  31.1436224  15.6778705  72.2174931  31.3487267  14.7740579  72.4568367
  31.6372252  16.2090218  72.8423691  55.0471544  39.1705871  40.9795141
  55.5202103  39.9463463  40.6784344  54.2811108  39.5191526  41.4354849
  49.7098875  30.7989216  64.8930311  50.0410795  29.9162674  65.0587654
  49.4639587  30.7926869  63.9679861  75.7208109  37.0811224  77.7487516
  75.3522730  36.6020727  78.4909916  75.7576799  37.9905367  78.0451298
 104.3573284   7.8747463  22.1054387 104.9200153   8.6323524  22.2655940
 104.7284698   7.4612468  21.3260150  58.6659575  19.6737790  71.9376516
  58.1532097  19.9836862  71.1911392  58.3836603  18.7677157  72.0625162
  54.1292477  23.8736057  68.0548811  53.5078239  24.3548608  68.6011982
  54.4044828  23.1354403  68.5985661  44.7103262  66.0738897  40.2509117
  44.9020052  65.1759720  39.9802995  45.3730106  66.6040945  39.8082352
  62.6292849  10.8771956  74.4297314  62.8870821  11.2345207  75.2794933
  62.8555536  11.5639472  73.8025141  43.0333424  19.9934006  64.8103762
  42.2459126  19.5038319  64.5726633  43.7400866  19.5550907  64.3364191
  47.8891802  39.4985223  43.2593060  48.7019634  39.6329498  43.7466908
  47.8302193  40.2567768  42.6780987  50.4063463   8.4290373  79.9370575
  50.8483267   8.2707238  80.7712173  50.5249310   7.6164979  79.4451714
  56.8830347   5.9935439  48.4794855  56.5984535   5.2402383  48.9969540
  56.2935066   6.7006433  48.7415934  41.4358711  48.0111885  46.0161400
  40.7810020  48.5570240  46.4513874  41.4936209  48.3674049  45.1295710
  61.4904022   5.7454747  81.6735363  61.3431740   5.0152111  82.2745991
  61.8197632   5.3349566  80.8740234  48.9210844  21.0453558  87.5605774
  48.1388903  20.5028844  87.6612091  48.5924053  21.8799043  87.2263241
  49.7002506  50.1849604  72.8330231  49.6824980  49.5604086  73.5581779
  50.5793953  50.5623388  72.8634167  53.3197212  21.7834330  59.0372086
  54.0418053  21.5653968  59.6265221  53.7313271  21.8756557  58.1779575
  29.9761558  24.1190529  38.0115366  29.6035242  24.3351984  38.8663244
  30.2250814  24.9645019  37.6380610   8.5362554  40.3646421  82.9932499
   9.3839145  39.9463129  83.1439304   8.0982053  40.3313923  83.8436794
  44.4890261  16.6148365  63.0310774  44.1509533  16.2323749  62.2213459
  44.4673967  17.5593281  62.8771257  45.2569056  33.5138369  87.1127319
  44.9826097  32.6471949  87.4125957  44.6182489  33.7474275  86.4390945
  18.3149540   9.0938199  43.2692337  18.2129085   9.9630755  43.6568069
  17.5034988   8.9522046  42.7816725  42.4268103  39.4998431  78.6465645
  42.7599478  38.6360979  78.8898706  42.8905869  40.1066685  79.2235470
  63.7177086  39.1659975  59.5065308  62.9460239  39.0449214  60.0597763
  63.4382582  38.8747215  58.6386061  29.4817019 104.5724201  55.6586266
  30.0377774 104.2967319  56.3873291  28.5930371 104.5497513  56.0135794
  50.5336523  36.8819332  28.0136800  49.7373390  36.5176511  27.6271415
  50.2188015  37.5174546  28.6564970  32.5378203  17.7991104  45.8435440
  32.2019267  17.0942020  46.3971758  33.4399867  17.9253161  46.1374807
  17.2284019 105.9940338  55.2096653  16.6335917 105.6060028  55.8514309
  17.3459613 106.8962860  55.5069256 113.8339233 104.3843269  26.2649775
 114.0559196 103.4952545  26.5415621 113.4124374 104.2718887  25.4129553
  38.0786395  22.3037696  60.3631210  37.5741386  22.6498914  61.0992622
  37.4518847  21.7726469  59.8718739  56.3994217  17.7648699  22.9475045
  56.1094046  16.8929672  23.2156563  56.5494680  18.2308722  23.7700367
  40.8700275  40.8211946  71.6560650  41.2085629  41.6144562  72.0712328
  40.6476641  40.2445364  72.3869896  33.9337707  20.3569794  43.4480906
  34.0762925  20.0006700  44.3249989  33.8913679  19.5871973  42.8807592
  44.5414686  17.9658699  44.0274143  45.2739143  18.1833827  43.4508324
  44.1425228  17.1934545  43.6268520  76.8248320  18.7753427  69.2509413
  77.7222300  19.1039836  69.1971016  76.6939735  18.3005917  68.4301376
   4.0450355  87.7860832  85.3107262   4.8738486  87.4980450  84.9281883
   3.9757559  88.7086773  85.0652695  77.6662111  32.1756291  55.5458689
  76.9344711  31.6537762  55.2165413  78.1259251  32.4672079  54.7585487
  29.4652343  74.7333002  32.7862811  28.6171722  75.0108337  33.1326842
  29.5711374  75.2376366  31.9796467  38.0187702  40.5376196  52.1184635
  37.7075243  41.3091993  52.5917816  38.1351757  39.8717213  52.7961493
  48.8496494  35.5823326  56.7844915  49.4681025  36.0046268  57.3806620
  48.5382271  34.8158646  57.2659206  52.5480986  48.7744713  62.2962523
  52.4420261  48.4337664  61.4080524  51.6536427  48.9051390  62.6110649
  45.3940773  33.9864230  72.7447367  45.3873205  34.7786045  72.2074890
  44.4706202  33.8131332  72.9275656  41.0662985  22.9420543  63.2756376
  41.5928507  22.8237009  64.0661860  41.1658812  22.1195984  62.7961779
  79.1813326  12.4686599  78.6396503  79.0556860  13.2745230  78.1386185
  79.9914455  12.0948851  78.2928944  34.8475909  39.3701792  56.9571972
  34.5893764  38.6111546  57.4801064  34.5288205  40.1233244  57.4545813
   4.4725201  40.5102921  80.7200146   4.0995693  40.1559639  81.5272236
   5.4193431  40.4576540  80.8503532  34.3516994  22.4410462  38.2798600
  33.9603758  22.4762940  39.1527033  33.6256313  22.2085476  37.7010679
  59.9486446  39.9264407  88.1834030  59.5526409  39.4413972  87.4594307
  59.3108797  39.8591375  88.8940048  52.9949045  31.4824581  73.6761904
  52.4325752  31.3535166  72.9123926  53.6238241  32.1494031  73.4007311
  30.7514215  43.7114906  18.9491355  30.3275752  42.8572845  18.8660049
  30.6295013  43.9509678  19.8678398  45.4174280  14.8196054  34.1724372
  46.0528183  15.4389191  33.8133216  45.7596588  14.6009123  35.0392032
  41.6902924  26.5991259  43.5801220  41.5554476  26.9078922  42.6841784
  40.9342003  26.0393906  43.7569046  92.0940971   9.2706907  65.4689026
  91.6226387   8.4606475  65.2745247  92.4133205   9.1532201  66.3636255
  63.7454462   1.3329804  48.1392241  63.7138605   2.2693866  47.9433250
  63.5265160   1.2753350  49.0692663  64.6663857  31.4726019  76.4183092
  64.2061472  30.9248757  75.7823753  65.5927515  31.3603902  76.2050390
  43.6466837  25.4351068  46.5997791  43.0774784  24.7423601  46.9349432
  44.3520451  24.9692202  46.1507273  26.1829019  32.6780987  61.4306879
  26.8654060  32.0107913  61.5022516  25.8311677  32.7570152  62.3174143
  95.8858299 100.9039402  28.2140851  96.1887360 101.7759037  27.9607964
  96.3094711 100.7385063  29.0563393  27.1046543  35.5215025  48.8748074
  27.7150869  34.8079896  49.0605545  26.2627077  35.0870180  48.7384987
  55.6500959  42.1543932  78.3219528  56.1516905  42.2451735  77.5117683
  55.9819555  42.8509569  78.8884354  53.0404282  47.2975206  66.6173029
  52.3916864  46.5996933  66.5256453  53.6650324  46.9609880  67.2598362
  24.4471788   6.6165042  63.2563448  24.9428940   7.1557015  63.8725948
  23.5387254   6.6931725  63.5480070  31.2190700  30.9001803  69.9778461
  31.2997532  30.9052467  70.9316254  30.3340745  31.2242889  69.8106194
  97.1332169  27.2767448  49.7424889  96.9619942  28.1589007  49.4127655
  96.2661552  26.9219470  49.9388313  40.4842281  28.3217573  69.8614836
  39.7274470  27.7643442  70.0426102  40.9404230  28.3863187  70.7005024
  65.6395435  26.0469913  20.8428454  64.9225092  26.4817309  20.3812265
  65.7608795  26.5648127  21.6386914  54.2918110  29.9841952  49.2429304
  55.0327778  29.8007822  48.6653852  53.6183357  30.3396082  48.6629725
  57.2211409   7.7421200  57.4834347  57.5257015   8.6212766  57.7082777
  57.4302912   7.6465267  56.5542650 110.1220226 108.6332130  94.1834736
 110.7971001 108.0008411  93.9372444 110.5863380 109.4681168  94.2433167
  55.4699469   6.8749237  71.8014193  56.3628769   6.5758502  71.6297579
  55.0353575   6.8328762  70.9496021   5.1023310 108.0489635  31.1512470
   4.9113759 108.5833073  30.3803754   4.7992787 107.1720409  30.9158635
  59.8384142  23.0406618  43.5541248  60.1431084  23.8560891  43.1560421
  59.8943472  22.3948002  42.8498745  17.1480823  34.5627642  59.9636698
  17.6487970  34.9107742  60.7015085  17.7393508  33.9354730  59.5475674
  39.5992565  14.4763124  33.9207315  38.7003779  14.3641615  33.6114287
  39.9780369  15.1239574  33.3263302 106.4901257  82.9119396   2.8454021
 105.5968189  82.9379845   2.5025475 106.8419456  82.0779610   2.5340512
 117.4366979 104.5596981  84.6056843 116.9989047 105.0143814  85.3252983
 118.3684693 104.7251415  84.7494316  69.5465040   5.2274269  22.4054503
  69.7252369   5.1413393  23.3418655  70.4034233   5.3927082  22.0122600
  44.4440603  23.8957381  56.4909935  45.0329876  24.6261692  56.6803789
  44.5597982  23.7311912  55.5551720  41.0371065   0.3298677  36.2803674
  41.0840034   0.0279095  37.1874785  40.1731062   0.7353222  36.2072659
  79.3663120  44.1130352  71.1911011  78.5100603  43.6900282  71.2553549
  79.9924374  43.3890820  71.2007475  72.8318739  65.8829165  82.9235077
  72.9498768  65.6733942  83.8500118  73.5511065  66.4807272  82.7196503
  45.7265377  47.8504086  67.0309210  45.3021193  48.2492352  67.7905560
  45.0843287  47.9345465  66.3261366  70.4488754  38.8096070  93.3353233
  69.6938467  38.7233973  93.9173317  70.8525562  37.9416966  93.3365440
  88.8576031  32.2831988  84.8375320  88.5375118  31.6705871  84.1753578
  88.4907627  31.9597173  85.6603432  49.1272306  44.9762583  86.8146229
  48.7624550  44.0953827  86.7296219  49.7895193  44.8960304  87.5010395
  72.5782204  59.7439623  95.2119350  72.6210117  59.0992832  94.5056820
  73.4872723  60.0112343  95.3476524  53.4835243  31.9603729  59.3938780
  53.3393288  31.0229850  59.5232821  52.8204393  32.3823643  59.9402094
  57.8084898  55.2351952  62.1778345  58.1650305  56.0926247  61.9456196
  58.1082535  54.6538830  61.4789438  66.0649538  21.2261033  49.1191149
  66.3524342  20.3871751  48.7588549  65.7172775  21.0088062  49.9840641
  66.6011047   5.1490593  73.0825567  67.1486473   4.3904501  72.8802109
  65.7919836   4.7744146  73.4306908  60.1375675  16.2346137  55.3430843
  60.0574160  15.7238519  56.1486483  61.0787964  16.3764608  55.2420759
  58.8132191  61.0653210  63.7723446  58.0673599  60.7031107  63.2940865
  59.0620136  60.3747463  64.3867111  54.7534657  47.0144463  90.2486706
  55.3862476  46.3616180  89.9492741  54.2000628  47.1793270  89.4852638
  25.0017405  47.1023655  64.2396116  25.1573944  47.5030375  65.0948668
  25.8374715  47.1856642  63.7804270  69.2277002  38.6288071  87.4812126
  68.7979794  39.0522003  86.7380428  69.8297310  39.2917585  87.8192806
  71.9790792  45.4035807  76.8520832  72.3015738  46.1039734  76.2849092
  71.0544062  45.6111050  76.9867945  56.4582443  58.5934210  65.7524824
  56.4526987  58.9388037  64.8597813  56.4759350  57.6428509  65.6414223
  50.1837587  47.6234674  67.1763992  49.5598602  47.0911026  67.6699305
  50.8216524  47.9117680  67.8292418  56.7802477  47.1559906  65.2477503
  57.1495008  46.5452862  64.6098423  55.9929943  47.4979639  64.8240519
  58.8412762  24.0021729  90.9169102  59.5356798  23.5129666  91.3581657
  58.0620575  23.4554172  91.0174370  27.0160532  30.7179928  89.5778370
  26.6813684  30.0613499  88.9670658  26.6581845  30.4595423  90.4271698
 111.4736366  78.9628124  44.7195196 112.2419548  78.7402487  45.2452421
 110.8518600  79.3302727  45.3476906 117.5554276  48.1600428  65.5274391
 116.7075539  48.5755062  65.3701687 117.4522686  47.2701073  65.1903868
  68.0407572  62.9271650  73.2514715  68.7232208  62.8099585  72.5906086
  68.4153032  63.5496044  73.8747787  76.9011974  42.6460505  83.4316826
  77.7887011  42.6550102  83.0732250  76.7371082  41.7267752  83.6420250
  88.7320137  62.3246956  95.2532482  89.6420860  62.1149588  95.0434685
  88.4675980  61.6475582  95.8759785  88.4302807  66.8618917  71.2156630
  87.5739288  67.2800159  71.3054419  89.0144444  67.3940134  71.7558765
  96.3397980  48.8144827  59.1789532  95.7770920  48.3122444  58.5895872
  96.8128586  49.4158602  58.6038160  54.6434641  78.1876945  51.2371826
  54.5995235  79.1139841  51.4744377  54.7116756  78.1879759  50.2824163
  82.0068836  61.0936117  60.0455284  81.9701481  60.6389904  60.8870745
  82.6829529  61.7609453  60.1631212  62.9649734  77.2822142  47.2915363
  62.8238726  77.8117895  48.0763149  62.2699356  77.5530291  46.6916895
  75.0982857  69.3295240  55.5358934  74.9522972  68.7632513  56.2936878
  75.0573063  68.7386656  54.7839355 108.7705803  58.5153246  62.9101849
 108.8377666  59.4646692  62.8078938 109.3091583  58.3182955  63.6765671
  74.4881058  77.8101540  67.8485250  74.3872070  76.9072485  67.5471735
  75.4083347  78.0160809  67.6841927  65.4745197  73.9288568  28.2858205
  65.7910824  73.5015488  29.0816998  65.5192709  73.2480621  27.6144409
  47.3279524  89.8320484  50.8963060  47.6601982  88.9343739  50.8902550
  48.0943775  90.3697681  51.0955048  74.6931028  88.8106728  34.5937204
  74.4637012  88.9601135  35.5109310  73.8728333  88.9398003  34.1175723
 106.2794685  85.6068897  48.1426716 106.7712688  85.5704212  48.9630604
 106.4921284  86.4641953  47.7738428  60.4601908  46.5436649  76.0084057
  59.7563457  45.9197617  75.8307219  60.9835815  46.5489101  75.2069902
  76.7691553   0.1383922  52.8191662  77.1964610   0.3540848  53.6480951
  75.8753765  -0.0999214  53.0653381  78.6827183  79.1090584  40.5579329
  77.8498888  79.2283487  41.0144424  79.3217134  79.5707750  41.1008263
  49.9701738  86.0766125  56.4746332  49.0232086  86.0991764  56.3368559
  50.2072668  86.9857025  56.6578722 102.9840279  79.1236162  83.3965874
 103.2478714  79.5159531  84.2288685 102.3791313  79.7588539  83.0134296
  76.2384748  54.7361946  47.1997356  76.2488508  55.5479717  46.6926479
  75.7032537  54.1361809  46.6803503 111.3078880  79.4127560  55.0162268
 110.6054020  79.9172735  54.6060944 110.9421921  79.1307259  55.8546543
  71.0556555  56.6144371  80.6479740  71.8716621  56.6113615  80.1476192
  70.4196548  56.1907959  80.0715542  58.5504007  65.3725052  62.1790695
  57.7643967  65.8877802  62.3604965  58.5647392  64.7071934  62.8670979
 101.1284351  70.5243540  54.4771624 101.2120152  71.3489151  53.9982653
 100.6193447  70.7500792  55.2556944  64.8037863  89.6937847  67.0085096
  64.5194674  90.1862049  67.7785206  64.2023516  88.9504623  66.9640541
  62.6011229  83.8334560  56.2045670  62.4874067  84.4420910  56.9345427
  63.0487442  84.3469334  55.5321026  74.2652941  89.0562344  62.7019262
  73.9740801  88.9792156  63.6104918  74.6078920  88.1889534  62.4858809
  63.0891132  82.1989441  58.1693411  63.9637375  82.5195980  58.3894539
  62.8633404  82.6559258  57.3591471  98.2962418  57.7213478  43.5827255
  98.6178589  58.2828856  42.8774118  98.6002254  58.1463242  44.3847370
  96.6492653  36.9099784  61.2415648  95.7016182  36.9713068  61.3616943
  96.9478226  37.8192592  61.2240839  59.9458408  56.2275791  60.6724644
  60.6590891  55.6619740  60.9684420  60.3784609  57.0383930  60.4047918
  73.2924891  59.5159864  42.4854231  73.4303999  59.1572857  41.6087532
  73.7897587  60.3338671  42.4905205  75.1566267  69.3347359  35.4581404
  75.4429674  69.5650482  34.5742869  75.0344515  68.3857632  35.4306626
 117.9591120 104.9146276   1.4139623 117.0837343 104.8423248   1.0335512
 118.1242121 105.8564668   1.4577074  81.3190842  59.1501522  79.1094971
  81.5364838  58.3966064  78.5607338  82.0156479  59.7828913  78.9343548
  59.0613365  65.9996367  48.4416342  59.0907907  66.7255402  47.8183937
  58.1964254  66.0662937  48.8462543 102.9845524  80.5668545  57.0765448
 102.8891373  81.3474178  56.5307903 103.7128448  80.7720661  57.6628065
  83.7838173  84.0696430  52.3574400  83.5172939  83.4285641  53.0163813
  82.9700184  84.3107224  51.9149065 107.8570175  71.7605972  46.2338257
 106.9930649  71.9868851  46.5782261 107.9599094  70.8309031  46.4370966
  75.4273129  68.4497738   1.6199829  74.9833202  68.1333113   0.8332466
  75.2270412  69.3853664   1.6480693  91.9141579  51.2154961  58.4905338
  91.0811424  51.1996365  58.0192947  92.5788784  51.2210131  57.8018093
  80.6083107  63.2470942  43.4567118  80.8298874  62.7792835  44.2618752
  79.7094440  63.5464621  43.5932684 106.5571976  28.4918070  92.2506523
 106.2155056  27.6039219  92.1450996 107.2922707  28.3951592  92.8560925
  50.8169317  62.0293188  36.1697960  50.7927513  61.6695881  35.2830935
  51.2052917  62.8979397  36.0653615  61.0649920  54.5957804  63.6251831
  61.5422058  54.7175026  62.8044033  61.0047770  53.6460972  63.7286568
  62.3916817  61.0367346  70.3529024  63.0961418  61.6824627  70.4077196
  61.8787098  61.3060093  69.5909405  55.1810694  37.9036069  21.5805483
  55.4951811  37.6434064  22.4464941  55.8911943  38.4326887  21.2171912
  72.4280787  92.2170353  47.2087431  71.7496014  92.7819920  47.5784969
  73.2427216  92.5346279  47.5982714  72.0827246  85.6450176  57.3228598
  72.3079109  85.0448799  58.0337477  72.4076986  85.2131557  56.5328455
  83.2391262  74.5586157  46.2785912  82.9086590  74.5336294  45.3805971
  83.9420795  75.2079487  46.2571335  76.1832476  41.2216949  76.9954300
  76.4765882  42.1201277  76.8437862  76.3347387  40.7763433  76.1617947
  34.0011621  33.4260178  14.7691619  33.9355564  33.2569504  13.8292980
  34.3307066  32.6063037  15.1375425  86.3255692  47.5718546  72.6086426
  86.1932564  48.2043028  73.3148527  85.4549980  47.2085953  72.4462175
  64.0842628  61.3620567  42.5056553  64.8308897  61.3926888  43.1038570
  63.4566498  61.9839287  42.8739071  62.7092457  97.6663589  74.6576023
  62.0023727  97.6595020  75.3029823  63.2574320  96.9184017  74.8948431
  52.8549862  53.8223839  36.6471291  52.8837872  54.6586847  36.1823702
  52.2336578  53.9663124  37.3609018  62.5796604   7.6064008   8.3511472
  62.1136427   8.4424621   8.3590269  63.3222151   7.7516091   7.7648419
  51.2809277 107.8717995  86.9635963  51.8104172 107.1235561  87.2392941
  50.7167339 107.5244045  86.2727737  69.3488550  21.0612392  68.5365772
  68.6134052  20.7044005  69.0345812  69.2899704  22.0076299  68.6673784
  86.9189072  19.4371867  81.0955334  86.2611866  18.9387155  81.5804768
  87.3653698  19.9577010  81.7633438 114.6070862  64.3527269  50.4246855
 115.3814316  64.7381020  50.8347034 114.0567780  65.1029110  50.1997137
  81.8868923  30.0678754  85.4631996  82.7871990  29.7885227  85.6294250
  81.9571209  31.0041714  85.2770710  51.5674114  79.4147825  58.1235647
  51.1308146  79.1566849  58.9353514  52.2739553  79.9956179  58.4058094
  78.7939262  58.5701752  66.7095613  79.0130424  58.6093855  67.6405191
  78.1903839  57.8308296  66.6364908  83.6309528  70.3985453  39.4196320
  84.2458916  70.9908390  39.8523712  84.0346241  69.5342731  39.4991374
  77.6742744  54.3283272  81.5255642  77.2987032  53.8343000  80.7967854
  78.3961248  54.8205042  81.1345100  72.8355742  77.3197317  85.6898594
  73.0263376  77.2378492  84.7554398  72.1458292  77.9817867  85.7363796
  64.8361635  93.7914181  51.8096161  65.6769848  93.3435631  51.7165041
  64.6177340  93.7004089  52.7371073 102.8844452  53.1429768  60.2542734
 103.2345676  54.0333605  60.2249861 102.3608971  53.0651331  59.4567347
  57.5485706  52.1040010  77.9425859  58.3358097  52.0883083  77.3983097
  57.8415060  52.4704409  78.7769413  86.8407631  86.8719482  76.0479927
  86.6454506  87.6623917  75.5447197  86.0448074  86.7070675  76.5534639
  59.9214268  57.2603273  54.2946005  60.7769871  57.2509480  54.7237492
  59.4319582  56.5567780  54.7208309 114.3231392  81.4679146  64.2582989
 114.4031906  82.4097633  64.4091082 114.7938442  81.3156986  63.4388494
  84.0671730  88.2510471  46.1861467  83.1321907  88.2107353  46.3871861
  84.3667889  87.3447514  46.2574673  68.7244034  74.1175842  46.3238239
  69.6810150  74.1168165  46.2902784  68.5154343  73.8106918  47.2060823
 115.2159977  26.0700631  88.6691380 115.5054951  25.1842284  88.8875866
 115.0123596  26.4707279  89.5142651  97.6061535  51.0693645  54.0489960
  97.6083374  51.8234444  53.4594250  97.4597931  50.3172302  53.4753132
 112.4187279  76.2320185  38.9495921 112.2283077  76.7152882  38.1455898
 113.3653355  76.0919333  38.9263391  92.9931355  67.0727587  50.4861355
  93.2199097  66.5683985  51.2674332  92.5976849  67.8755760  50.8257294
 113.8565636  93.0024624   3.3246914 113.7552643  92.2921753   3.9583045
 113.5248661  93.7772846   3.7784067  93.4470272  68.5014820  85.7829094
  92.6070881  68.9485979  85.6788445  94.0387249  69.1772747  86.1137009
  56.8159926  35.9338135  95.6171300  56.6385138  36.6861958  96.1816228
  57.1857416  35.2751774  96.2051055  98.7105370  54.4385815  36.6312957
  98.1355762  54.4595766  35.8663034  99.4399261  55.0130844  36.3985515
 115.1256943   7.2439575  33.8295937 115.6331825   7.8606331  34.3572330
 115.0214767   7.6810843  32.9844356  41.0754251  11.6028094   3.0255124
  41.1993504  12.5464988   2.9239076  40.2000380  11.5154409   3.4027374
  79.5975113  86.3067436  52.2942305  80.2550220  86.8815994  52.6859617
  78.9686298  86.1475945  52.9980850  61.4907646  76.7003822  44.7313261
  61.0814476  76.6779995  43.8663435  62.1358109  77.4051714  44.6728897
 110.9495449  82.8609562  65.9506989 110.8861446  82.0472145  65.4506540
 111.8279743  83.1906700  65.7612610  86.4041424  70.7101822  23.9581847
  86.0766506  71.5614462  23.6677885  85.6656647  70.1141405  23.8332582
   2.5676751  46.0929108  69.9492931   2.0109133  45.3149652  69.9168968
   1.9627577  46.8131399  70.1269960  72.0063829  56.4152527  69.3750000
  71.8386030  57.3138809  69.0912008  72.3703718  55.9839296  68.6018848
   8.4873575  31.7856956  79.4948101   8.7564975  30.9950328  79.9624109
   7.9070854  31.4687848  78.8026524 112.8644753  77.2889233  48.6437511
 113.3447552  77.9444933  48.1379938 112.0668221  77.1333981  48.1379890
  83.2277775  85.1373577  44.1025019  84.1093349  85.3669930  44.3963766
  83.0321789  84.3150330  44.5516729  71.6340208  80.8299541  59.0698481
  71.8297720  79.9496937  58.7488222  70.7404900  81.0003757  58.7718678
  67.5859547  72.5540829  70.7941484  67.9164600  71.8499327  70.2363205
  67.9504871  72.3656797  71.6589355 115.2667236  79.5984650  54.6697044
 116.0465050  79.0515423  54.7648239 115.5828381  80.3938103  54.2410755
  63.3517218  68.4742355  64.5052767  63.3776951  67.5264025  64.3742466
  63.8922644  68.6236906  65.2809763 101.9823933  87.7753448  77.5349283
 101.8247223  88.7192726  77.5541353 102.5458717  87.6111984  78.2910967
 116.6162109  91.3963032  68.7683487 117.0040894  90.9917355  67.9923964
 117.1568584  91.0871792  69.4952393 113.2898808  59.9324036  56.8359566
 112.5081825  59.4655514  57.1313095 113.0415058  60.3038120  55.9894371
  42.6330185  72.6133633  35.4880285  41.7623711  72.2200394  35.4288650
  42.4789333  73.4811497  35.8614373  78.9175367  75.8445311  66.6769457
  79.0353870  75.6380892  65.7497311  78.7434196  74.9989414  67.0903397
   3.9832279  90.8069801   4.3637809   4.3916705  91.0749340   5.1869494
   3.0964237  90.5445957   4.6106970 100.0938988  97.5964165  60.5439234
 100.6105709  96.8354321  60.2789831  99.6573162  97.8808212  59.7409678
  73.1270504  22.2822523  81.1220074  73.8997602  21.7650247  80.8947945
  73.4043264  23.1909633  81.0054016  65.4359961  89.8690319  86.3591385
  64.5765209  89.7754192  86.7699623  65.5160332  90.8063126  86.1821175
  61.2670040  85.7772827  32.0414352  61.7418337  86.0659790  32.8208113
  61.8458557  85.1335430  31.6330743  60.5951071  97.3703003  76.6818428
  59.6452379  97.2889805  76.7676926  60.9354115  97.1218872  77.5413275
  88.7056637 108.2589531  16.3669562  88.4371090 107.3509693  16.5072334
  88.8826275 108.3140182  15.4278696 103.3909130  58.6359930  68.3276892
 102.6679230  58.0258131  68.1821060 103.0704403  59.2293739  69.0069723
  70.7902145  78.6111879  65.0561810  70.7764435  78.1814814  64.2009640
  71.6550732  79.0183592  65.1057434  68.9598560  88.7153149  31.0354900
  68.6316538  89.1831207  31.8033934  69.0668964  89.3941212  30.3691602
  94.3985844  98.1138134  43.8442898  95.2481270  97.8325462  44.1839886
  93.8710594  97.3152637  43.8274813  71.5753031  18.4004951  63.9127541
  71.5285063  18.3563817  64.8677921  72.1575975  17.6812840  63.6680126
  93.7157917  23.7942815  62.9666090  93.9893341  22.8989816  62.7669859
  92.8143883  23.7059069  63.2762575  69.8403645  74.5917416  77.3051882
  70.4356384  74.8647547  78.0032921  70.2539539  73.8154078  76.9277191
  70.8943748  58.9416885  47.9183292  71.3242006  58.1767893  47.5356913
  70.0293303  58.9600992  47.5089550  86.9635487  74.7008944  52.9364157
  86.2195015  75.2772617  52.7619648  87.6443672  75.2837563  53.2725525
 100.6404400  77.7323961  68.7445974 101.0097027  77.5275898  67.8855658
 100.7533932  76.9284582  69.2517042 114.3426895  23.4818196  65.1661396
 114.7768402  24.2709613  65.4901743 114.1221905  22.9882503  65.9560728
  81.9117641  69.6678448  41.8284464  82.0248413  69.2627430  42.6882935
  82.7596474  69.5572472  41.3982105  89.7308254 110.0165081  91.8430710
  90.2823639 109.9737644  92.6242352  90.2579975 110.4954243  91.2035751
  95.8184338  55.2542257  53.4100389  95.0749302  55.0744534  52.8346157
  95.8856678  56.2089682  53.4233046 107.7174091  83.8253593  15.2490354
 107.4280834  82.9354095  15.0477552 107.3119354  84.0238953  16.0930789
  86.8432236  36.3211179   4.1970292  86.0913467  36.3620853   3.6060613
  86.7988014  37.1355748   4.6979463 111.2577820   1.8424548  67.9173565
 110.6529903   2.1116689  67.2259951 112.1131039   1.8116701  67.4887514
 105.4411602  64.8098278  25.3902125 104.7736645  64.5659399  24.7489715
 105.1628113  65.6675482  25.7112622  95.4023266  65.2997494  89.7192764
  94.8320675  66.0280371  89.4730186  95.8928394  65.0994778  88.9220905
  84.7752094  59.7484207  60.3388882  84.9223423  60.5031252  60.9089804
  83.8487816  59.5375204  60.4550266   5.5712807  85.6164169  68.1143188
   5.9482455  86.2320518  67.4857235   5.8159077  84.7533321  67.7804470
  98.7380695  49.4886732  46.8613243  99.5318413  49.8444128  47.2608376
  98.9059162  48.5489511  46.7907476 116.0902500  83.9838886  56.7697859
 115.9488869  84.7478104  57.3289585 115.8442116  84.2797852  55.8933496
  99.0138435 104.3667126  38.1049085  99.7878551 104.7397041  37.6829910
  98.8850117 103.5249519  37.6677871   0.1261637  59.7464752  75.1774120
   0.0107924  58.8131809  75.3559685   0.7803242  59.7776985  74.4793224
  95.0769615  33.6740732  53.7246990  95.7831955  33.3429527  54.2795181
  94.7347069  34.4316292  54.1992569  70.5226994  87.3207569  64.5998240
  71.3313246  86.8090057  64.5781851  69.8811102  86.7741489  64.1461563
  68.0175400  16.9313490  84.4430828  68.1027985  16.8203735  83.4961700
  68.9192247  16.9781101  84.7609043  89.9601555  48.4467506  59.2808867
  89.5906162  48.0024290  60.0439405  90.3470421  49.2477989  59.6342468
  74.4846487  86.6504765  44.3115807  74.8436642  85.8315754  44.6532679
  73.6822319  86.7886353  44.8148394   0.2468034  47.7966928  31.1378407
   1.0661888  48.1423807  31.4918756   0.0674098  47.0184088  31.6654015
 100.9025288  64.9210405  63.3859396 101.5849400  64.8785591  62.7160645
 100.1198959  65.2038860  62.9129601  87.0622540  62.8667927  59.8746681
  86.9706631  62.2959948  59.1117620  86.6140556  62.3987627  60.5791569
 110.7974148  81.7468834  36.9385910 110.2755070  82.2367477  37.5741005
 111.3963413  82.3959064  36.5694141  90.5223846 100.5907536  58.8925934
  90.0690937 100.4893112  58.0556536  91.4356136 100.3806591  58.6973810
 108.6293125  66.8641186  69.0736246 108.9458847  66.7430353  68.1784391
 109.3623924  66.5921402  69.6257591  59.1767454  70.5783367  81.1830616
  58.5514021  70.9373951  80.5535698  59.8684788  70.1968622  80.6424999
 113.3063316  89.6653557  45.6401205 114.0259171  89.5865631  45.0138426
 112.7139187  88.9477444  45.4157972  73.7748194  66.3463020  67.7656651
  74.2231178  67.1025991  67.3871469  73.0376434  66.7212963  68.2475185
  86.7154789  87.8305626  20.3204560  86.2331009  87.4594402  19.5816708
  86.0969925  87.7992725  21.0503340  87.1062183  70.9264135  46.2925339
  86.3927460  71.5224886  46.0647726  86.7877674  70.0616789  46.0335827
  89.5951748  53.1004524  91.5933514  90.0837326  53.1894684  92.4116516
  89.1456413  52.2591448  91.6730881 111.8185425   9.7799420  45.5432653
 112.1885777   9.9948382  44.6870422 112.0969009  10.4981184  46.1115742
  81.7047977  67.4655533  61.1092520  82.1739769  66.7195272  60.7356930
  81.0936069  67.0755482  61.7342091  86.1994076  80.9346485  70.0767517
  86.6635895  80.9158325  70.9136581  86.4544392  80.1203346  69.6430540
  12.0960438  98.3355522  62.1883297  11.5456355  99.0970993  62.0057535
  12.9515922  98.7051868  62.4065971 108.4024906  68.0366564  50.6444502
 109.3085194  68.3228683  50.5286264 108.4482956  67.3666191  51.3264942
  82.2545433  98.2587910  83.7332058  82.9152489  98.2192039  83.0417347
  82.7397633  98.0797291  84.5386505  64.1599178  92.1413517  88.3204556
  63.5858631  91.4921570  87.9139519  63.8722420  92.9778576  87.9547691
  99.8222160  59.7714901  57.6614571  99.0059280  59.8770523  57.1728230
 100.1505280  60.6634426  57.7748680  83.7159920  47.1360540  79.4561100
  84.4394684  46.5597153  79.2098331  83.2961750  46.6920233  80.1928711
  69.5943642  62.6756334  58.7887859  70.2013159  62.3904753  58.1057596
  69.1338825  61.8776464  59.0484095  76.6977644  93.5563755  63.2196617
  77.2502279  94.2545033  63.5712814  76.4396000  93.0457783  63.9870453
  78.0216980  21.0947347   2.4196027  77.4856663  21.8369317   2.1402368
  78.7454605  21.0729146   1.7935672  36.0803127  34.7372437   0.0693529
  35.4923248  35.4490352   0.3220417  36.8070984  34.7953582   0.6895442
  76.0023355  87.2862434  70.8436680  76.0178709  86.4467430  71.3032675
  76.3319588  87.9162693  71.4844847  48.2365942  92.7342892  87.2531128
  48.2606792  91.7805099  87.1760178  48.8657379  93.0432415  86.6012192
  65.9900188  59.9533272  87.1992588  65.7679605  59.0232611  87.1556187
  66.1513615  60.1177073  88.1283379  72.0590687  70.1746178  58.5685158
  72.9657125  70.4786682  58.6107826  72.1246767  69.2656708  58.2756901
 101.4982796  67.4557495  25.6308055 100.8450222  68.0580473  25.9867835
 101.8229675  67.8926229  24.8434377  83.4855747  73.0820179  55.0798559
  84.0383053  72.6883602  55.7549524  82.6730919  73.3037424  55.5347586
  95.6961441  61.8845463  33.1886387  94.7596264  61.8823481  33.3865356
  95.9398937  62.8101778  33.1939411  79.0993118  98.1277752  57.5119305
  78.6123848  98.2147121  56.6924334  78.7743473  97.3146343  57.8985119
 110.5486774  69.6868467  91.2215424 110.5551529  68.9379168  90.6254768
 109.8275471  69.5067167  91.8246555  81.1465740  66.9625425  32.5927591
  80.4794884  67.3376083  33.1676936  81.9687080  67.0864534  33.0670762
  76.3074398  78.6768436  21.0943770  76.3354635  79.3010283  20.3692245
  76.2271261  79.2222452  21.8768859  92.3687172  56.9819593  58.7419128
  92.2833061  56.0300255  58.6894178  91.5789986  57.3170710  58.3173132
  72.8417015 103.4233570  32.2553396  73.6271191 103.8056755  32.6467371
  72.1161795 103.8932037  32.6665497  54.9775267  74.9544764  58.6340523
  54.1477871  74.7619295  59.0707254  54.8599958  75.8332205  58.2731819
  61.6104698  69.0438890  69.9475002  62.0887756  69.3934441  69.1956568
  60.6984663  69.0141010  69.6583796  67.7979803  63.9546585  63.0871582
  68.4488249  63.2754087  62.9103851  68.3125353  64.7140408  63.3606625
  70.5634737  81.6735077  42.2773552  70.7954502  82.2885323  41.5815401
  70.7851696  80.8134174  41.9205141 106.9185448  68.6230707  74.4795752
 107.3783588  67.7872229  74.4010496 106.2210846  68.5750961  73.8257599
   0.5395063  78.5595274  40.5153561  -0.0106974  78.5528517  39.7321153
   1.4272591  78.4202194  40.1856279  82.1840000  85.0801468  47.2590828
  81.6657734  84.3389797  47.5726700  83.0902290  84.8347187  47.4455118
  98.4162426  61.1838341  28.3027864  99.0992832  61.6827440  27.8547001
  97.9263783  60.7613182  27.5972724   8.5031074   6.5669769  47.0075226
   8.1254512   5.7942802  46.5873480   8.1623316   7.3050314  46.5021706
  67.3396397  69.6782875  53.2857275  67.6018000  70.1188183  52.4773693
  67.6760292  70.2395773  53.9843178 112.8516960  87.2789574  81.0731602
 113.3421421  88.0653000  80.8336639 113.5053158  86.6985321  81.4631748
  98.2202530  91.9449806  73.7248325  97.9591274  92.8294182  73.9813709
  97.4837208  91.6181850  73.2081461 107.1482277  59.8401308  43.3896112
 107.4533939  59.4367313  42.5769806 107.3519516  60.7697296  43.2867765
  69.8016596   4.7487247  17.5698185  70.1145267   5.6440574  17.6991475
  69.0010357   4.8468763  17.0544541  86.5674496  75.3640223  36.2022305
  87.0049286  76.0061407  35.6431890  86.5804291  75.7576799  37.0746398
 104.5227242  39.2545629  23.1852460 104.5578098  40.2109718  23.1684613
 105.1771069  38.9795756  22.5430632  64.7655821  75.9375525  78.0956554
  64.1907740  76.4667892  78.6485910  64.8797464  75.1207590  78.5815001
  61.3053131  81.4390278  64.9360514  62.1775532  81.7887306  64.7540283
  61.1406279  81.6700554  65.8502388  76.4833260  65.1111507  52.8575087
  76.8229675  64.7759295  52.0277500  76.4313221  64.3410635  53.4236336
  95.4648781  61.3258457  66.4118671  94.6758938  61.7794895  66.1153078
  95.3814888  60.4417944  66.0544729  80.1627445  78.4456730  67.0104933
  79.6404839  77.6437140  67.0289516  80.8287525  78.3133507  67.6851463
  77.2431707  95.1612091  84.4748020  76.6313982  95.3410339  83.7609196
  78.0935860  95.0717831  84.0446568   0.4596254  21.2890840  90.6211662
   1.2318859  21.5388036  90.1137352   0.1504965  22.1091485  91.0060883
  78.0269337  95.9033012  58.4822798  78.6893082  95.3790855  58.9324760
  77.1991634  95.6401443  58.8844919 107.8281307  63.1404638  25.3934479
 108.0142498  63.6819792  24.6264100 107.0835304  63.5697746  25.8147502
  16.2180436  60.4534769  57.5489998  16.1271322  61.4051008  57.5002241
  16.1725676  60.1615524  56.6385365  81.9720459  45.3174067  74.8668242
  81.8891048  46.1706161  75.2927208  81.2682152  44.7910118  75.2459908
  96.1774826  85.3229141  75.1624537  96.3543606  85.4143143  76.0987234
  95.5486202  84.6034431  75.1066208 117.0800304  57.0665073  89.2713833
 116.9735050  57.9958963  89.4741726 117.9267406  56.8337536  89.6523571
 105.0288486   9.5633125  54.0015602 104.8617363  10.3796697  54.4725895
 104.5194054   9.6434814  53.1951618  36.5057850  26.9738173  18.1364250
  35.8767009  26.5281081  18.7037218  36.5386796  27.8694844  18.4724736
  78.0258274  85.1138592  43.1913996  78.1484890  84.3306637  42.6549292
  77.3765421  84.8565292  43.8459587  72.6224756  68.1785059  48.5031033
  72.7471685  68.9419699  47.9393578  71.6848469  68.1735134  48.6956215
 113.3898735  90.2783394  41.2689590 112.9618263  89.4225883  41.2424374
 114.2591763  90.1228619  40.8996630  46.4110661  49.4148922  70.3657818
  46.3791704  49.6632957  71.2896395  47.2162724  49.8152542  70.0377750
  55.8841228  54.9209309  36.5997314  55.4327679  55.0402784  37.4353552
  56.6547155  54.3961430  36.8165541  88.4872246  67.5948906  42.5897217
  87.8494263  66.9833946  42.9578590  89.2735767  67.4694061  43.1208849
  88.6921215  70.0633526  41.3587809  88.9191914  70.2263689  40.4433012
  88.5953140  69.1127777  41.4159298  89.4297028  78.1166601  41.7407656
  90.3429413  78.2267046  41.4759445  89.4784641  77.7052307  42.6036549
 116.6743183  38.2551527  73.5814667 117.5757122  38.0060220  73.7855864
 116.1976242  38.1219244  74.4007587 118.2299102 102.2166920  85.8219719
 118.2931057 102.6090050  86.6927910 117.8859438 102.9174137  85.2679729
  74.0749693  72.7881289  45.4119921  74.8517561  72.4241495  44.9873161
  73.3416224  72.4601889  44.8915195  87.9603958  61.4570665  56.2111712
  87.9581165  62.4101925  56.1229992  87.2056293  61.2662411  56.7680693
  92.6415634  71.5451574  50.3430128  92.5330448  70.6519175  50.6694794
  92.0035458  72.0599270  50.8371544 107.4369621  45.2179384  76.5635490
 107.3526859  45.6907368  75.7355404 107.5179100  44.2991638  76.3075686
 114.1431236  62.4872208  58.1922817 113.6608028  63.0782843  57.6141500
 113.9249706  61.6109085  57.8749228  53.4808397  66.7315626  41.1550140
  53.4648371  66.9679451  42.0824289  52.7345324  66.1423397  41.0451221
  91.8674850  91.5811920   5.5980647  91.8821144  92.5190544   5.4071760
  90.9684467  91.4075470   5.8770066  76.1130714  95.2699947  27.7759862
  76.0395575  96.1744499  28.0805779  76.8737745  95.2740002  27.1949983
  88.8262367  95.8174706  62.9745579  87.8826904  95.7976055  63.1343985
  88.9334965  96.4336967  62.2499990  70.9930992  69.2282486  89.4587135
  70.2981377  69.7402430  89.8723698  70.6210375  68.3513355  89.3647861
  63.6195803  78.3620644  64.0836620  63.9457273  77.7920818  64.7800636
  62.7041817  78.5214472  64.3136072  94.0129948  34.2203140  82.5802994
  94.2430878  33.3563685  82.2384071  94.8548508  34.6499872  82.7316475
  89.3575954  63.1118727  62.2619009  88.9957523  62.2404289  62.1009970
  88.5907269  63.6803436  62.3324633  52.5069475  25.1728129   4.7307107
  52.4108553  25.5991459   3.8791019  52.3005342  24.2533231   4.5628935
  65.2560520  14.7891092   3.4872338  65.1335049  13.8397896   3.4852082
  64.4345236  15.1374006   3.1408057  74.7722101  69.7604656  52.0995140
  74.1061640  69.2024183  51.6980267  75.5224323  69.1808510  52.2316074
  76.0612917  59.4819832  69.1487026  76.3835430  59.2490959  70.0194216
  76.1339188  58.6730480  68.6421633  66.4287186  58.4982252  71.3710690
  67.3530960  58.4331226  71.1312342  66.4130926  59.1211748  72.0976496
  89.6099186  60.8022833  58.7285042  89.1394138  60.8795214  57.8985167
  90.3641033  61.3836479  58.6312866 103.3333397  75.0988150  49.2007732
 102.5856972  74.7342396  49.6744299 104.0982437  74.7087097  49.6238327
  10.3629708  80.0898361  56.7108059  10.9191477  79.4630480  57.1734381
   9.9029052  80.5604076  57.4058867  70.0652456  71.6479492  71.7706680
  69.8904705  71.0239029  72.4751234  70.9143591  72.0293522  71.9937563
  83.0689716  66.9769096  64.6705008  83.1440449  67.3168468  63.7788486
  82.4258423  67.5476456  65.0910616  87.7624893  64.0406036  54.7021055
  88.3037758  64.8149729  54.8556852  86.8653011  64.3739986  54.6903992
  65.0649548  60.9496689  50.1548529  64.8583984  61.7996502  50.5435705
  64.2118311  60.5493021  49.9871874  76.1209440  97.5069523  51.9198799
  75.2682257  97.3749352  51.5055370  76.7537975  97.3658657  51.2157345
 107.8668785  55.1848984  75.8594513 107.5216198  54.3158865  76.0640097
 107.2212124  55.5650139  75.2637482   5.6320524  63.7044716  64.6417141
   6.0350591  63.5828543  65.5013847   5.7751215  64.6289015  64.4387436
  95.5890942  47.0513153  52.3077297  94.8107910  47.5162840  52.0006800
  95.7159519  47.3624659  53.2040167 107.1107483  46.2828922  74.0007067
 106.6043568  45.6608057  73.4783888 107.7341461  46.6634464  73.3820105
   8.8354462  84.5575047   4.6693137   9.4998789  84.4080925   3.9966792
   9.1676635  84.0978718   5.4404175  81.7207336  77.9818535  78.5615730
  82.4954128  77.4920225  78.2856083  81.2146378  77.3569584  79.0808153
  97.7634907  84.2429638  10.2421594  98.4838867  84.8573685  10.3827369
  97.8236771  83.6313534  10.9760106 107.1271324  61.4614439  65.3051186
 107.2049809  62.1679783  65.9461927 106.7695141  60.7255745  65.8019352
  77.9959774  80.6689548  54.4255352  78.3719873  81.0169220  55.2340937
  77.8180170  81.4431858  53.8915586  11.5350509   7.0298344  48.3670473
  12.1928966   7.2404295  47.7043867  10.6980383   7.2127640  47.9402208
  83.1562042 102.3074436  61.0188580  83.3607864 102.6974297  61.8687391
  83.7962246 102.6907825  60.4191399  99.5431519  59.7864866  45.2717781
  98.8461113  59.6977329  45.9217787  99.4806194  60.6947041  44.9760342
  66.3874006  66.2906694  45.8971453  65.9766817  65.5349016  46.3170910
  65.6651831  66.8986320  45.7390022  90.0168610  67.6471567  64.6901131
  90.3901482  67.6506233  63.8087082  89.1130161  67.3573875  64.5662928
  71.4009333 108.7418079  29.1617537  72.0877600 108.8747787  29.8150706
  71.3553381 109.5731831  28.6895537  81.4976120  65.9918928  46.9447803
  81.0765648  65.2003622  47.2800970  81.5929604  66.5559340  47.7122450
  78.4755659  93.7205505  68.7079859  78.1332588  94.5921516  68.9063740
  78.9583015  93.4679604  69.4950056  89.2085934  65.3885031  27.9278994
  88.5450363  66.0507631  28.1211185  88.9806080  65.0685549  27.0550346
  84.8358822  60.7686520  85.2158642  84.6635056  60.8075476  86.1566162
  85.4579067  60.0480080  85.1159382  83.7997818  82.1204853  70.4711676
  84.5468235  81.5346050  70.3490639  83.0507469  81.5343094  70.5787373
  93.3646011  52.8449965  67.5787830  92.9399300  52.7506113  68.4314108
  92.9408073  52.1883488  67.0261145 117.1244335  52.0658636  78.7991810
 117.1574783  53.0165243  78.9058971 117.7010632  51.8880749  78.0561304
  56.5325356  92.1880245  76.4502907  56.1867952  91.9015217  75.6049395
  55.8286953  92.7129555  76.8314505 113.7081146  89.0528965  67.1146631
 113.7513256  89.8650265  67.6194477 114.5627689  88.6427402  67.2472048
  53.7283516  97.2064972  20.3868651  53.6733246  96.3621902  19.9392533
  54.6673059  97.3743629  20.4669690  58.3802891  59.9481249  69.3527937
  58.3736849  60.5279350  68.5912132  57.8479242  59.1981697  69.0874815
   0.5735561  71.5235901  47.8314161   0.0676991  71.3576269  48.6268997
   0.2650124  70.8645868  47.2095203  93.6071110  92.8345490  73.1922626
  92.9916382  92.5067997  73.8480186  93.1431961  92.7405834  72.3602819
  87.1125507  58.5153961  67.9861736  87.3465633  59.0897894  68.7152481
  86.1758614  58.6632586  67.8558731  59.1532421  53.7049770  31.5269852
  58.5444355  54.3749905  31.2160611  58.6039686  52.9372406  31.6854477
  59.3721294  73.7115192  79.7599411  59.2362309  74.6544313  79.8531294
  58.5636759  73.3192635  80.0897503  63.6782503  54.6732998  51.1679840
  64.5966959  54.4955635  51.3707066  63.7061691  55.1863289  50.3603649
   7.8190595  63.1142998  48.8561583   7.2852939  63.9058828  48.9248323
   8.7006807  63.4355593  48.6670351  57.3826599  70.7411432  37.6892161
  57.0143938  69.8576355  37.6841235  57.6104355  70.9109545  36.7751551
  11.1642873  52.8727198  67.8192234  11.1999214  52.1868753  68.4859896
  10.4923463  52.5755978  67.2056723  98.4423351  62.5536394  50.4761171
  99.1140175  61.9741106  50.1166391  97.7765465  61.9610786  50.8251572
  81.8735313  85.1761723  78.3906221  81.9798946  85.7785892  79.1268396
  80.9336185  85.1827431  78.2096386  90.9273815  84.7169399  88.9780045
  91.2180424  85.0092506  89.8418903  90.2340221  85.3316212  88.7379169
  86.8399715  60.3758287  46.6329002  85.9115028  60.5892515  46.7257786
  86.8648434  59.4191980  46.6113281  89.1188717  86.7908573  87.5868893
  89.8344803  86.9025135  86.9610596  89.3569279  87.3513222  88.3254337
  78.9811993  86.4490891  61.6465187  78.5688353  86.2675858  60.8019829
  78.2917595  86.2848854  62.2899008  82.9543591  58.1514645  55.6037378
  82.5186348  58.7970209  56.1601877  82.4554062  57.3453999  55.7361698
  87.7378941  53.4967709  71.3561201  87.1198368  53.3030653  70.6513309
  88.0686378  52.6402760  71.6267729  92.4888802 100.9080696  63.1579685
  91.6500473 101.1355782  62.7569246  92.8864098 101.7509842  63.3763409
  78.6025000  94.9849796  74.9821997  79.1575289  94.3788719  75.4729176
  77.7920628  94.4986248  74.8309374  80.2447224  83.1996441  53.6950588
  80.8163548  83.9597034  53.8035917  80.6054497  82.5418282  54.2895222
  94.7280025  49.2534685  77.4303961  94.5115948  49.6056366  78.2937479
  93.9373302  49.3937445  76.9094419  58.8707590  59.9133778  13.1495655
  59.5123339  60.4045296  12.6363611  58.3664513  60.5850554  13.6086500
 100.7059956 100.6097507  53.7846041 101.4776039 100.0433350  53.7890720
 100.9794521 101.3831234  53.2912874 112.4439907 101.4472675  34.1948152
 113.3052921 101.1848831  33.8699532 112.6032066 102.2692108  34.6588087
 102.5481987  62.8844357  89.4708920 101.8686199  62.3544741  89.0542984
 102.9124546  62.3163319  90.1497173 101.4370918 107.7270889  34.6161461
 102.1374989 107.1735287  34.2708445 101.8618870 108.2589340  35.2891350
  84.3635941  95.7836342  62.4963045  84.7406387  96.5058136  61.9937897
  84.1928196  95.1026249  61.8456984  12.9592490  49.0835142  68.5062647
  13.0375326  49.4069242  67.6087618  13.7433922  49.4098425  68.9476919
 105.2743530  82.5318241  19.2318273 104.3794823  82.4577236  18.9002454
 105.6142044  81.6373634  19.2059326 102.4903011  68.0648470  38.8955426
 102.9848385  67.2778463  39.1242242 102.1502018  68.3851957  39.7309732
 108.5628223 103.8885307  54.6120644 108.3644009 103.7646198  55.5402374
 109.2589474 104.5454502  54.6015787  96.5271568  96.3446045  38.5622525
  96.4114857  96.0084248  39.4509768  95.7205486  96.8274117  38.3819342
 108.2859802  70.7134533  49.8132086 108.2178307  70.4840326  48.8864088
 108.0210209  69.9189806  50.2767229  89.0347099  70.1986742  24.5022249
  89.5502377  70.7729006  23.9358974  88.1257439  70.4408598  24.3251729
  82.0694351  54.0848351  74.2169905  82.7920437  54.6825933  74.4086981
  81.8160248  54.2958307  73.3183813 112.7628136  96.3102341  44.1056490
 111.8995380  96.6893959  43.9406729 112.9789448  95.8458328  43.2970428
  17.9347646  47.4271727  78.4116983  17.3555064  46.8372679  78.8940954
  18.8050973  47.2550344  78.7710285  74.2009306  64.7050524  79.1976404
  74.6917725  64.0953064  78.6467123  74.7701883  64.8578405  79.9518490
  19.8670781  11.3317621  50.6752920  19.0737319  11.1381876  51.1746550
  20.3181005  10.4902852  50.6065416  96.1337852  83.1358051  84.0528965
  96.0662556  82.4081039  84.6710587  97.0022678  83.5054493  84.2120361
  78.1888199  65.5692053  83.6594486  77.5245762  66.2287474  83.4593964
  78.5385132  65.3147745  82.8055096  91.3345146  63.0169725  92.6597786
  90.5589294  63.2124376  92.1339512  91.6791344  63.8752222  92.9065037
 110.2960968  78.8741922  83.7541199 110.4405117  78.1363916  84.3465996
 110.0178909  78.4703541  82.9320812  98.3780003 107.8067780  83.4765434
  97.8315735 107.0209312  83.4667206  98.8400555 107.7667618  84.3138790
   7.2815156  85.0970554  65.3883648   7.1716797  85.1813126  64.4412279
   7.7437973  85.8940887  65.6477165 116.7537689  90.4722881  49.6301413
 116.0995102  90.3265858  50.3134775 116.9029617  91.4177513  49.6390772
  96.4464951  75.3385973  86.0410786  95.5761242  74.9489498  86.1239624
  96.5167809  75.5731201  85.1157188  14.9388182   5.4701155  68.7471056
  14.0149522   5.2543330  68.8741493  14.9388969   6.4009941  68.5241795
  90.6428242 108.0985928  67.7279997  90.2929688 107.2076225  67.7263117
  90.5256462 108.4002209  68.6288452  95.2744484  80.3785801  37.5961137
  95.2263451  81.2598419  37.2255850  95.5927467  79.8333120  36.8766665
  95.8076954 106.0721588  75.0432777  96.5940094 105.8228970  75.5288744
  96.0111427 105.8593559  74.1324806  63.5134602 103.6224365  58.0348349
  63.7021065 102.6874542  58.1151438  64.2374372 103.9689159  57.5132608
 105.3872299  83.8184071  54.7814608 106.1784363  83.4372902  55.1622295
 105.4820061  84.7600365  54.9248981 102.9695034  70.6696558  45.2572298
 103.0402470  70.3814363  44.3471956 103.2768059  69.9219751  45.7698393
   1.0632960 109.1992760  93.0364132   0.3041235 109.0672684  93.6042690
   1.6975164 109.6581554  93.5872555   1.3042910  91.0237598  69.7436762
   1.8542524  91.5863228  69.1984320   1.4351264  90.1444340  69.3888569
  32.8205704   0.0771282  61.2992144  32.6720261  -0.2246620  60.4030609
  32.2753167   0.8594940  61.3819408  78.1364202  91.7326736  37.2218013
  77.8259277  91.3634777  36.3950443  77.9966164  92.6752090  37.1307087
 100.5074120  95.0272369  85.9489822 101.1339283  95.5622578  85.4616928
 100.8222771  94.1300011  85.8391857  88.3194160  88.7185287  80.6032085
  88.9021301  88.8378048  79.8532438  88.2000637  89.6001530  80.9563828
  75.4679644 111.0300515  52.7184010  75.8027613 110.1390528  52.8197145
  75.2755224 111.3165736  53.6112070 109.8216057  87.2562218  24.9622369
 109.7282124  88.1585884  25.2675915 110.3722763  86.8356705  25.6226325
  41.4733124   5.3721172  59.7079849  41.8202925   5.3611898  58.8159513
  40.5239868   5.3216225  59.5963478  45.9978390  30.4773355   3.1727502
  45.8768797  29.6576786   3.6520875  45.7258558  31.1574984   3.7888953
  70.9490490  78.7373209  30.0475240  71.2651110  78.6623716  30.9479237
  70.8663893  79.6795177  29.9003482  67.7306890  88.6404324  52.7050829
  67.7420902  87.7475262  52.3603964  66.8109894  88.9021683  52.6617813
  11.2799442  65.1306105  64.7682810  10.9142864  65.6291103  64.0375137
  11.1670661  65.7017422  65.5280876 108.7529112  11.3678593  96.5364387
 109.1691638  10.5469222  96.7991746 108.1316782  11.1137242  95.8540035
  98.0221176  62.7439404  30.8812189  97.4307728  62.5743484  30.1478887
  98.8911057  62.7898741  30.4824877 117.6535511  34.3071175  56.7250347
 117.0274162  34.9257445  56.3488865 118.4070873  34.3408775  56.1357307
  11.3443410  90.5661869  56.7391682  11.1989915  90.1479626  55.8905268
  11.9125664  91.3115311  56.5446854 116.0057068  32.5558114  45.0696230
 116.9016743  32.7433205  44.7897959 115.8921432  31.6208458  44.8988104
  89.2024612  70.8735323  48.9551353  88.8840485  70.1240826  49.4582891
  88.9280891  70.6924677  48.0561543  85.7903004  68.4142876  65.1510954
  85.5153370  69.0341330  65.8266783  85.3471279  67.5975323  65.3807306
  98.6126614   9.8490161  23.4722137  98.1060886   9.8047519  24.2831755
  98.2476902  10.5989242  23.0024624   4.1830984  71.8676853  77.9902029
   4.4171894  72.0927954  78.8906240   3.5692215  72.5521946  77.7240515
 112.8699875  68.2486391  73.2286406 112.7045727  68.9824581  72.6367092
 113.3981514  68.6237144  73.9333344  12.7724159  92.5699711  51.1494255
  13.4929633  92.5035572  50.5228186  12.1138072  91.9568920  50.8229303
  14.5903695 101.3491726  70.1308632  14.8138511 100.4230976  70.0377846
  14.4098628 101.6429234  69.2379141   0.1970660  68.8996506  36.2313867
   0.9683024  68.3929396  35.9770656  -0.3291048  68.2909775  36.7499375
  26.4664388   3.1994912  46.1851883  25.9444714   2.7285355  45.5355883
  26.6248512   4.0565461  45.7894707  86.8589211 104.6337891  47.0886946
  86.3835430 104.7126007  46.2616301  86.9970417 103.6927986  47.1968317
  92.4497700  87.3321629  68.8348055  91.7655087  87.9743958  68.6462641
  92.6700020  87.4798298  69.7545433 115.7721806   3.4559762  15.3911543
 115.5493641   2.5830561  15.0677454 114.9296474   3.8497767  15.6176150
  93.8372707  13.2431781   1.6953607  94.0167141  13.2799685   0.7558498
  93.1992435  13.9408886   1.8448456 100.1381111  46.9758463  19.2406189
  99.7820568  46.1743736  18.8570786 100.9563065  46.7005253  19.6541262
 110.2500057  96.4153099  70.8348131 109.7269440  95.7532692  71.2868595
 110.3035259  97.1426392  71.4547873 110.5404282  96.9017982  42.6046801
 110.8526325  96.9091225  41.6998577 110.0475883  96.0848141  42.6813936
 103.6637306  88.3726215  50.3504515 104.5870399  88.5103512  50.5620384
 103.1944370  88.6401463  51.1406517  39.4170189  19.9914992  21.1287332
  40.3160477  19.8029315  21.3978457  39.3395352  19.5977020  20.2597380
   6.9236994  83.2908154  86.8811512   7.6207995  82.7240849  86.5508461
   6.2513477  82.6857758  87.1943665 109.8520756   5.9556937  54.1791296
 109.9760628   6.8420517  53.8396788 109.9440765   6.0473609  55.1274776
 116.7889023 108.7077808  68.2418728 116.2603951 108.0954266  68.7536669
 116.1587048 109.1520119  67.6746511  87.2428226  60.8164215  35.5219102
  87.1429443  60.0897312  36.1368704  86.8480206  61.5648413  35.9693742
  78.0598402 105.5379295  12.6684904  78.6293077 105.1173496  12.0242429
  78.6513948 105.8081627  13.3708227 101.1799717  57.6273012  58.6208391
 100.3636932  57.1338511  58.5406542 101.0081482  58.4504557  58.1635380
  58.7219477  72.4893045  54.8344231  59.5913410  72.6563311  54.4704247
  58.4837198  73.3073473  55.2706385  10.5896401 110.6340795   0.1625890
   9.8884224 110.7034593   0.8104391  10.3585171 109.8655801  -0.3591567
  68.0021620  79.0201855  18.4081995  68.4946823  78.1994724  18.4172046
  68.5949469  79.6507835  17.9993260  91.9996929 107.8270340  50.1298332
  92.6139736 108.3439541  50.6510592  91.1479282 108.2327557  50.2914572
  47.1529055  80.4023647  49.0474272  46.2902927  80.8086777  49.1313076
  47.0377874  79.7329426  48.3729982  17.4846017  62.0144415  73.4081507
  17.7328634  61.3657141  72.7495527  18.2812476  62.5246572  73.5539865
  19.2652678  73.2661772  28.7651801  19.8413301  74.0047455  28.9624095
  19.8585367  72.5240183  28.6491466  71.0266733  73.1199312  89.3037128
  70.3575993  72.7928352  88.7024117  71.7032528  73.4851027  88.7335205
  11.6413164  96.6118717  68.4777594  11.5322137  95.7135868  68.7898827
  10.8915544  96.7576981  67.9008484   7.0089561  72.7886677  29.6989322
   7.2199935  73.7036276  29.5130730   7.1340293  72.7012014  30.6438851
  70.5688381 103.8031960  70.8416557  70.4267502 103.4872723  69.9493361
  70.5912113 103.0093861  71.3760710  90.5910301 100.4618835  81.1388397
  89.7129250 100.0975513  81.2503052  90.7159519 101.0240078  81.9034576
 113.8392830  61.6339874  18.6083543 113.2871342  62.4054766  18.4811807
 114.7210789  61.9308567  18.3835614 103.6836624  60.1952887  50.3376675
 103.7974834  59.5331335  51.0194445 103.0655003  60.8221292  50.7133961
  41.7642927   1.9081464  77.6630449  41.2381315   2.6757768  77.4391413
  42.4477100   1.8825805  76.9933319  11.1637831  72.0140553  70.5058908
  11.7785454  71.9520473  71.2369585  11.2726331  71.1901951  70.0308800
  76.6656542  65.3302336  58.7746954  76.6307354  64.5200348  59.2832041
  77.2880268  65.8829927  59.2472839  94.1364479  95.7608700  50.8999634
  94.4492912  96.6557312  50.7673883  93.2688713  95.7481003  50.4957676
  86.0803699  70.7656145  35.0233245  86.7949677  70.7800341  35.6600189
  85.8316326  71.6843176  34.9216080  79.0558100  71.3053513  69.7274160
  79.9248075  71.6822481  69.5894718  79.1910124  70.3602362  69.6588087
  12.7924180  41.5892076  22.5480247  13.4580600  41.6391325  23.2340693
  13.1886029  41.0428810  21.8692040  91.2517738  84.5759201  73.4797335
  91.2480736  85.5169868  73.6546803  91.4259338  84.5075035  72.5409985
 112.4848938  79.8139429  85.9503269 112.7371407  79.4466305  86.7974854
 113.0184555  79.3375301  85.3142643 111.6869831   3.6270374  38.9130163
 110.8865261   3.2121378  39.2344975 111.5774155   4.5542982  39.1237617
 110.5833721 105.4311275  66.4496040 109.6826649 105.1078415  66.4706659
 111.1187363 104.6612453  66.6416645  73.0283213  21.4361978  95.8678150
  72.1593857  21.4973211  96.2646103  73.3523464  22.3368597  95.8608723
 106.7272282 107.6671600  31.3489294 105.9916973 108.1806087  31.6829848
 106.3308525 107.0582294  30.7257819  71.1078978  86.6913509  32.3904562
  71.9792223  87.0868206  32.4155140  70.6751966  87.1120644  31.6474915
  88.3688641  85.1894283  39.0973783  87.7667141  85.6346703  39.6935344
  89.0676689  85.8252811  38.9437532  38.4467816  28.5207725  62.0480013
  39.0714145  28.4221196  61.3294363  37.7628708  29.0895486  61.6944599
  30.7666326   3.5397565  50.8802700  30.0479794   4.1694033  50.9378290
  30.3343916   2.6879242  50.8187771  15.4676747  12.6546347  28.8182640
  14.5950222  13.0174410  28.9701867  15.9538388  13.3663964  28.4020042
 107.6550961  95.1432705  16.5956616 108.1992626  94.7063160  17.2507870
 106.8312740  94.6559620  16.6049826 116.8347836  96.8025398  48.5384846
 116.6328716  96.7624760  47.6036787 117.6605701  96.3264275  48.6257792
 114.8603344  90.0051975  31.8333888 114.3570614  89.7891235  32.6184106
 114.3156719  89.6995258  31.1080313 109.5873070  66.7798328  36.3201976
 109.0350342  65.9980297  36.3226366 109.4766140  67.1540022  37.1942544
  92.3616886  47.9684734  71.1042404  91.8669033  48.0947638  71.9138479
  91.8639278  48.4480286  70.4420519  86.6253471  76.8010807  62.0490980
  87.5163269  76.4516544  62.0321369  86.0661507  76.0277414  62.1231413
  97.6912498  88.5883617  61.8008947  96.9380379  89.0246677  61.4027262
  98.4105015  88.7465668  61.1894369   7.2375989  69.4919205  67.9538822
   7.8538740  69.2925596  68.6586475   7.5784981  70.2936125  67.5572586
  98.7977409  68.6559248  58.8777924  98.7693310  69.5541668  59.2073107
  99.5409775  68.2579279  59.3310261  96.0601521 100.2884388  57.9000044
  96.9005680 100.7306099  58.0201197  95.9260178 100.2823639  56.9522667
  24.3419886  15.1335323  36.4543629  24.1426229  14.9628258  37.3748779
  25.0103641  14.4861007  36.2299991  73.4262800  77.8695488  51.8944454
  72.4929667  78.0258369  52.0384264  73.7101030  78.6017513  51.3471317
  17.4029195  16.8058789  76.9519806  16.5285766  17.1904409  77.0141792
  17.2517991  15.8611786  76.9825983  49.8861933  91.1511993  84.3525314
  49.3559980  90.3548145  84.3225670  50.5961323  90.9898186  83.7310982
  67.4819088  89.8671436  33.2022429  66.7437649  90.4352188  33.4228253
  68.2479382  90.3240204  33.5496616  83.3931637  96.7870712  19.4366741
  82.7597904  96.0751438  19.5274067  83.9977932  96.4848137  18.7589657
 112.7937889 105.3230667  64.6610975 112.5625134 104.9117565  63.8282919
 111.9728756 105.3464031  65.1528311  54.1440630  79.3215322  60.4205036
  53.8493204  79.8453522  61.1654663  54.9047852  78.8431120  60.7501268
  72.5344944  84.1314316  76.0641336  71.9607067  84.2624855  75.3092670
  73.3943748  84.4276524  75.7656670  86.3658047  63.6350489  80.9037590
  86.9033909  63.2132101  81.5740490  86.4350986  64.5704222  81.0948277
  77.8077888  76.1902952  48.8850927  78.1132603  77.0693445  48.6610603
  77.2131634  75.9546328  48.1729746 104.9704933  66.5887070  61.7707586
 104.9973011  67.3776388  62.3121405 105.6858730  66.7031002  61.1451626
  13.5098231 103.5282803  33.6925101  13.9675403 103.1090832  32.9638124
  13.2229674 102.8012848  34.2451644 104.6270275  73.6611223  79.6089411
 105.4323101  73.7681198  80.1152039 104.1384220  74.4698000  79.7623825
  95.2842903  46.1180878  79.5112944  95.0867462  45.4985523  78.8088846
  94.4350719  46.3055325  79.9111891   6.8311578  96.2787151  52.4041557
   7.3830974  96.9493961  52.0019436   7.4226671  95.5418777  52.5571918
  39.2666364  94.3150139  44.0356636  39.5611739  93.7729359  44.7675276
  39.8245168  94.0525341  43.3034706  97.9713345  95.7886505  62.4252081
  97.9086113  94.9273872  62.0122671  98.4770393  96.3149452  61.8059206
  77.6848221  47.6347160  82.9876328  76.8783236  47.7030516  82.4766254
  77.4505949  47.9743052  83.8513756 102.5131512  96.5668869  84.6050644
 102.3731041  96.5479565  83.6583519 103.2863235  97.1189880  84.7218037
  73.5906076  63.5810375  95.1603222  74.4266319  63.9298201  95.4695988
  72.9782438  63.7584448  95.8743000 116.9611835  86.2918091  49.4284105
 117.6233673  85.7925606  48.9503908 116.3914108  86.6480160  48.7467146
 101.6304874  99.9978828  30.2140832 102.5541592  99.7467995  30.2106094
 101.1565208  99.1668987  30.2467418  84.6424103 108.7587357  65.5113792
  85.0146008 108.5230923  66.3611937  85.2842617 109.3550777  65.1258516
  10.6582940   8.4449095  78.9278650   9.8770046   8.3683634  78.3801794
  10.4208374   8.0087465  79.7461605   7.9598272  98.0719662  72.6891661
   8.7225735  98.3603954  73.1904221   7.2414720  98.6161423  73.0117702
  55.0257921  83.9943409  30.1167369  55.9142208  84.3428421  30.1907086
  54.9624491  83.6901283  29.2113781  93.7900352  90.0562191  22.1809602
  92.9168892  90.1467323  21.7993045  93.8855839  90.8236122  22.7450609
  90.9624767  78.9069986  55.6833267  91.8268871  79.0146399  56.0801220
  90.3514385  79.2124557  56.3538218  67.6494074 101.5765190  42.6313210
  67.5856113 100.6816959  42.9651833  67.1701145 101.5578365  41.8029737
 109.4490433 101.6545486  18.4921420 109.6726227 102.4657440  18.9484513
 108.5891247 101.8251038  18.1078565   7.6034445  75.6059122  92.6567459
   7.6066107  74.6961784  92.9544163   7.5944561  76.1217117  93.4630394
 107.7122498  88.5396290  21.5772963 106.9993114  88.9951134  21.1295319
 107.6152420  88.7881470  22.4965668  11.2042880  68.0338144  55.1181889
  10.4151261  68.1659269  55.6435490  11.5962112  67.2351313  55.4713631
  95.0843430  78.0741310  42.5877810  95.0103664  78.5813570  41.7794037
  95.8843327  77.5605726  42.4759436  74.8187542  63.5505533  75.7848930
  74.4441032  63.5601330  74.9041128  75.1533175  62.6602888  75.8931923
  95.7679939  74.9996138  62.0379162  96.4059830  74.2988729  61.9031620
  95.4483032  74.8641825  62.9299307  68.0320263  93.5385036  47.6486683
  67.4224949  93.9353180  47.0263815  68.5699511  92.9523468  47.1164179
  80.8016300  93.4003162  57.5021410  80.5681419  94.1149330  56.9096613
  80.9250259  93.8240337  58.3515310  66.6090155  86.9263649  71.2476110
  67.5453568  87.0929146  71.1391926  66.2410069  87.0491314  70.3725529
  85.9285927  80.5888367  51.6058445  86.3708782  80.4204178  50.7738352
  86.5224075  81.1716270  52.0790911 100.5438614  92.4806309  47.4460840
 100.8862209  91.9337368  48.1531334 100.7341766  91.9873619  46.6481447
  95.4670048  40.9590530  78.4194613  94.6136093  41.3745832  78.5431099
  95.7276821  40.6813812  79.2976284  94.6501732  52.1469259  57.2022867
  94.8578644  52.2257948  58.1333494  94.2269707  52.9762697  56.9801998
 108.9555836 102.7684498  72.5935698 108.7892723 101.8258476  72.5844908
 108.5399342 103.0926991  71.7946196 115.0714970  79.3051291  71.3933802
 114.4517040  79.4539738  70.6792831 114.8992825  80.0150681  72.0118904
 110.2768993 105.7042885  59.2814350 110.7587624 106.3470078  58.7609005
 110.3773689 106.0039997  60.1849365 108.3435345  79.9830055  95.5113411
 107.6681614  79.4612074  95.0779438 109.1083241  79.4081402  95.5406570
 116.0750580  91.3922882  35.1216841 115.8452320  92.2329903  34.7259259
 116.4504051  90.8837891  34.4028115   0.7367050  56.6029882  56.4770269
   0.8299465  55.6684494  56.6618967  -0.0879622  56.6708374  55.9958267
  72.5503922  60.2286863  80.6912804  72.0425653  59.7567415  81.3512897
  72.4167395  61.1528158  80.9018898  75.8270693 103.5186672  60.0164461
  75.9936810 104.4572735  60.1029634  74.8741007 103.4396172  60.0593519
  14.0593648  98.2199955  48.9844942  13.7004399  98.2402325  48.0973673
  15.0081253  98.2038403  48.8586950  76.4464951  81.2855148  11.3263023
  77.3062563  81.5083504  10.9693813  76.6320705  80.6543541  12.0215929
  27.2262502   1.6603038  29.4233465  27.9926610   2.2015022  29.6129537
  27.1812749   1.6352440  28.4675312   2.2181057   0.6792019  74.9495077
   1.7978978  -0.0016262  74.4240236   1.6066670   1.4151237  74.9212503
  11.9089580  15.3909969  83.7320995  11.9201553  16.3366663  83.8797951
  12.5444996  15.2506602  83.0302238   0.8221705  75.7941294  23.4625077
   1.7134364  75.5332279  23.6944723   0.8411607  76.7510223  23.4774637
  87.2313118  66.7082644  52.0993328  86.5141869  66.4563656  52.6811552
  88.0073166  66.7035437  52.6597118  32.9343653   9.8776078  52.2431087
  33.6117387  10.4821801  51.9399738  32.9752445   9.1446173  51.6288757
  57.2357750  49.3950462   4.0370664  58.0228615  48.8611746   4.1452691
  57.3671103  49.8494482   3.2049003   1.3777341  84.3526077  60.5047941
   0.5750462  83.8413048  60.4023790   2.0071538  83.7374878  60.8812094
 114.6620369  44.1188002  67.3016167 114.6831417  45.0609398  67.1338034
 113.8506794  43.9806938  67.7903461  85.8080387  71.6672754  40.7117987
  86.5611839  71.8769884  40.1595116  86.0616112  70.8649254  41.1680460
  89.5642281  73.5134506  35.0936651  89.9524689  74.0779018  34.4251657
  89.0807724  74.1129827  35.6620550  45.2736044  24.6490550   4.8570636
  46.0492849  24.6570778   5.4178536  44.7376394  23.9338684   5.1998240
  19.1829693  61.2403202  30.7783008  19.6261907  60.3977442  30.8775473
  18.2565296  61.0409689  30.9132147  86.7696667 110.0825500  64.2475414
  86.6717052 110.9650040  64.6052074  87.7104282 109.9106979  64.2882061
   0.5033113 105.4032803  24.5440698  -0.0494469 106.1519814  24.7679877
  -0.0896709 104.7884750  24.1120815 110.1997471  64.6689463  76.6994429
 111.0882568  64.9620247  76.4972496 110.3062534  63.7622070  76.9870472
  20.5038786   2.0489630  52.2639847  20.9092307   2.9005104  52.4276543
  21.1710095   1.4126754  52.5214863   3.5375801  59.6109104  68.4564352
   3.5993522  58.8985252  69.0927649   2.7183697  60.0557852  68.6737204
  14.8179424   0.9445475  89.7019672  15.4333818   0.9310282  88.9689732
  14.8624766   1.8406138  90.0356007  93.1081200  88.9182568  40.3189468
  93.3204937  89.8512173  40.3454590  93.6483192  88.5697079  39.6097708
  75.2999115  73.2884502  32.2603250  75.9310770  74.0027380  32.3477983
  74.7237825  73.5638905  31.5472746 106.1423779  94.9809456  39.7230816
 106.1897469  94.2952156  39.0569329 107.0299816  95.0320530  40.0777435
  94.1938210  99.4066715  69.9541426  94.1138935  99.1961670  69.0237999
  94.9514484  98.9018154  70.2497053  86.1936951  66.1549187  48.6429071
  86.3874531  65.2954006  48.2688522  86.4797401  66.7771626  47.9741621
 103.4527493  69.0266037  34.8185730 102.5588131  69.1398621  35.1414990
 103.8003922  69.9164438  34.7588849  73.5284472  64.9876070  59.2188978
  72.5718403  64.9689627  59.2469740  73.7973833  64.2017841  59.6947002
  12.1420050  21.4737654  42.3767519  12.1526456  21.9025278  41.5210152
  11.6170537  22.0535111  42.9286146   1.0278119 105.2728748  51.9236374
   0.9852904 104.4593906  52.4263048   0.9371211 104.9960232  51.0118437
  99.0544701  97.9049873  38.7703705  99.3705463  97.2949696  39.4368553
  98.2724094  97.4847221  38.4126043 114.2739487  78.5348701  46.4739323
 114.5255756  78.2656574  45.5905056 115.0214577  79.0410471  46.7921114
  77.6844072  18.6136723   1.0070491  77.0790482  19.2724621   1.3472949
  77.1187830  17.9484916   0.6148264 108.4441757 110.3791046  23.3188605
 109.3594265 110.4908848  23.5758543 108.4793186 110.2012253  22.3789907
   1.8413737  88.4129047  53.3236265   1.4345577  87.5464535  53.3248186
   1.1459004  89.0044308  53.6110926  84.0870285 105.0574303  71.8810034
  84.8969841 104.8331833  72.3391724  83.4471226 105.1953888  72.5793743
  90.9145641  80.4266357  33.1311154  90.1975346  79.7942257  33.0846620
  90.5582714  81.1558533  33.6385965  95.5704403  80.7026100  57.5934792
  95.2635098  81.3929558  58.1812334  96.2943745  81.1026096  57.1116543
  69.8383808  90.4468346  29.2574191  70.4808044  90.3332329  28.5569811
  69.6807384  91.3904953  29.2870903 108.4881115  12.4090242  47.2402334
 108.9987087  12.9619157  46.6487694 108.2757282  12.9801834  47.9784060
 116.0173130  81.7758179  53.3184052 115.6197834  81.8742085  52.4532318
 115.7237434  82.5455379  53.8058186  10.1486325  93.0138016  54.3460512
  10.9660244  92.5298405  54.4639158  10.3607166  93.9096069  54.6083260
  86.2794971  83.6227894  51.0250616  86.9436359  83.5058689  51.7043829
  85.4502583  83.6474895  51.5025377  10.9530091  95.0692368   8.3099484
  11.5657008  94.7598934   7.6427549  11.5113699  95.4226303   9.0024656
 103.5689354  91.8866158  53.7628317 104.4652176  91.5755463  53.6357403
 103.5449314  92.7351665  53.3205557   9.2339981  72.5335598  61.5426350
   9.0829700  72.7577114  62.4608803  10.1300633  72.8224182  61.3698292
  30.6510425  26.3577175  42.2841406  30.0055122  25.8540154  41.7883539
  31.4697742  26.2370300  41.8031549   5.2354723   5.2722293  56.4368391
   4.7680724   4.9435100  57.2047710   5.6846261   4.5045495  56.0830593
  23.6582088  60.4620886  29.0189934  23.6361074  61.2788725  29.5176029
  24.4924021  60.4900312  28.5504055 108.2854080  93.2216835  47.0335865
 107.3921490  93.5626316  46.9880724 108.8301563  93.9955902  47.1769667
  41.1885071  16.4405918  94.0028381  40.6612015  15.7116497  94.3296814
  40.6275082  16.8719053  93.3582592  14.2346156 101.9362926  57.3655033
  14.4780707 101.5057182  58.1849909  14.5793939 101.3621235  56.6816282
 116.7966557 102.2384930  55.7162046 117.0632076 101.5433502  56.3178253
 116.1453915 101.8269348  55.1481390  29.6732688  23.8873458  33.1103468
  28.8783050  23.6764336  32.6206756  29.4444036  24.6688199  33.6134911
 113.3122158 109.7398376  58.5279512 113.3525658 110.2509022  57.7196074
 114.0274239 109.1086864  58.4482336  30.6557107   1.0713513  17.4979854
  31.4397883   0.7507205  17.9436874  30.2935171   0.2984558  17.0647645
  90.2835464  85.3347492  61.8489456  89.5968533  84.8414898  61.4001989
  90.1840687  86.2307453  61.5271854 116.0633755  85.1620579  51.7862129
 116.3853359  85.6501293  51.0283470 116.8543720  84.9122047  52.2638416
  82.5728226 100.4299641  88.9092827  83.0364799 100.5396557  88.0790806
  83.0142212  99.6949100  89.3348312  37.0547676  13.2022369  78.3584976
  37.0452881  12.5154102  77.6918554  37.3246026  12.7541959  79.1601706
   7.2359121  90.0220966  42.1273279   6.8000942  89.3173218  41.6481781
   7.2104621  90.7694054  41.5297365  17.4479640  97.5729370  93.7917805
  16.5590608  97.6391888  94.1406250  17.9169798  97.0371532  94.4314575
 107.2047234  90.8765697  41.0636902 107.5265789  90.6135559  41.9259357
 106.2567616  90.9501553  41.1741066  14.1321003  91.2962818  80.5140114
  14.8774219  90.7489395  80.2667236  13.6741769  91.4637375  79.6903038
  37.3419499  33.1967258  54.7350788  36.5145063  32.8815198  55.0986958
  37.2702670  34.1506553  54.7683859  27.8479147  41.5032530  90.4401112
  28.5361600  42.1573639  90.3189087  27.5517702  41.2999582  89.5528603
 115.8575439  95.6766129  57.6425982 116.2507820  95.7876492  56.7770004
 115.2499866  96.4116001  57.7257299  92.6611710 103.9741421  84.3893814
  92.9347420 104.8366356  84.7016144  92.1412277 104.1565895  83.6066914
  58.5436583  33.8012981   1.1660181  58.5780907  32.8547001   1.3038553
  59.4523191  34.0523887   1.0001172  74.7012568  80.2901363  45.5958700
  75.6432152  80.4557514  45.5569553  74.3808651  80.5234051  44.7245693
  49.8961878  19.7522509  63.3070326  49.5230436  19.0638697  63.8576031
  50.4319191  19.2832375  62.6673079  85.1242733 108.3981991  71.5604687
  84.3418312 108.3022594  71.0175037  84.7871304 108.6068153  72.4316978
   5.0462151 103.6550808   1.3880986   4.1749480 103.9949512   1.5920833
   5.1657236 102.9234600   1.9936427 117.2171116  84.0822887  76.8246365
 117.0104408  85.0168419  76.8134499 116.4904594  83.6819935  77.3020983
 110.1022243  86.5038490  70.0594234 110.2771759  87.4432182  70.1161385
 110.4048920  86.2561607  69.1857672 103.8960552  66.5763617  67.7690411
 103.4577370  66.0845947  67.0745754 103.1819534  66.9563532  68.2807922
  19.6373439   7.4008554  65.2388954  19.0272105   8.1012440  65.4700327
  19.3853045   6.6683894  65.8012104  83.4647083  84.7171974  37.1138668
  84.1743469  85.2732277  37.4355316  83.9002323  84.0698147  36.5593815
   6.5220344  87.2956657  27.4155045   7.2665715  86.8214130  27.7856112
   6.4906341  88.1151009  27.9092455 106.7729473  99.5776653  13.4349978
 106.0273266  99.4122887  12.8579938 107.0989990  98.7064648  13.6606848
  20.0626898  17.2367072  85.3207493  20.6779933  16.5475261  85.0704288
  19.2519438  17.0112085  84.8645973  56.5514994   6.4840174  42.0236158
  56.0621166   6.4883322  41.2009907  57.4701548   6.4612705  41.7556763
  27.9572034   0.6636333  72.7185631  27.1750450   0.2835935  72.3185301
  28.0353665   0.2180729  73.5621262  15.5277073   6.9194543  22.0357203
  16.4686966   6.8134928  22.1755219  15.4499769   7.1830535  21.1188197
  97.2194767  98.2534313  79.5803928  96.2869644  98.4220219  79.7153711
  97.4996948  97.8048038  80.3781700   4.4887611  82.4651814  63.7733030
   5.0576282  81.8571854  64.2455006   4.0003237  82.9187775  64.4602585
 111.4006042  75.4118586  57.0520735 111.1663437  75.4066801  57.9801512
 110.5606937  75.4223537  56.5930986  54.7428799  31.9269919   2.8098476
  55.5123377  32.4865532   2.9150200  54.1263294  32.2407579   3.4713992
   8.8108116  74.7894812  86.4337635   9.5462394  75.2453184  86.8431282
   9.0345079  73.8615274  86.5051460  36.2310171 109.6619606  33.0418420
  35.6496620 109.5481014  33.7937021  37.0231748 110.0544071  33.4088612
  27.7875113  92.9143620  80.0375462  27.8022599  91.9580269  80.0755596
  27.3207617  93.1146526  79.2262173  41.2685776   0.2311080  38.9837813
  40.8473063   1.0774583  39.1336203  41.4205885  -0.1194830  39.8613977
  23.5167217  81.9643879  53.2458639  24.4276404  81.6721058  53.2136822
  23.3573508  82.3470688  52.3830843  98.9917850 109.5533276  28.4657574
  99.5435143 109.7942066  29.2099357  99.6086216 109.3994808  27.7501631
  36.9322705   5.4146343  57.4758720  36.3083720   6.0470349  57.8323126
  37.1234369   4.8281604  58.2078123  72.2261095  92.1115017  38.0843449
  73.0537415  92.4887466  38.3825803  72.3799610  91.1667442  38.0837059
  94.3793106  74.9278069  64.6171713  93.6216640  74.3443775  64.5746231
  94.0081406  75.7886744  64.8104715  42.9771662   5.4548335  30.3458476
  42.1214581   5.0953138  30.5798078  43.6065769   4.8533487  30.7437086
   6.8899900  85.7607651  38.8610911   7.7721202  85.4898453  38.6067700
   6.4540327  84.9477768  39.1164637   7.8438812  92.9572773  55.3856468
   7.5838917  92.0517540  55.2163553   8.7639540  92.9951382  55.1243734
   3.9999038  95.5188084  44.1683292   4.7886658  95.0760078  43.8552523
   4.0156385  96.3716698  43.7340307  29.3927741  85.5608845  61.7280197
  30.0905561  85.5805206  61.0730743  29.6597838  86.2069225  62.3819065
  39.6228242  85.2339458  20.5554652  39.9267030  86.1324501  20.4266739
  39.7953367  85.0528812  21.4794183 114.7292900   6.4483267  54.6715879
 115.0068951   7.3152757  54.3756676 113.8993168   6.2954694  54.2199135
  74.5539284  82.9678917  27.4412346  74.2804861  83.6465263  28.0584121
  74.0018988  82.2151089  27.6529431  58.0992937   1.5920845  36.4186192
  58.8284826   1.8152867  35.8400893  57.3821306   1.3693900  35.8250594
   3.5866979   3.1316590  42.8158045   3.5457703   3.6728007  43.6042976
   2.7007827   2.7824247  42.7187443  37.8460622 106.6824818  48.3780479
  38.3827090 106.4135838  47.6324368  36.9480062 106.6589928  48.0476332
 108.6016846  85.2640057  74.7820234 109.3345070  85.0522804  74.2037725
 109.0048027  85.7134628  75.5248022 116.6295910  27.8080440  72.7129126
 117.5755119  27.6827002  72.6369762 116.2693501  27.3933983  71.9289970
   1.9385645  82.7581596  45.6835032   2.3295075  82.9455280  46.5369034
   2.6852936  82.5785732  45.1122141 110.2681732  81.2857246  43.2499599
 110.6532955  81.5385437  42.4109173 110.8475399  80.6002045  43.5825729
  73.1434584 103.4676170  59.9732828  72.6440382 104.1310883  60.4493237
  72.5272512 102.7452564  59.8519945  86.9314766  91.0519981  39.5661020
  86.1663818  91.2545490  39.0277505  87.4358940  90.4304600  39.0412354
  98.2409954 105.4848194  29.0440011  99.1866207 105.3413486  29.0061092
  98.1001759 105.9346008  29.8771310  36.1118340  16.8088686  43.4494400
  36.5570641  15.9765208  43.2907057  36.7628121  17.3465133  43.9004374
  17.6240027  32.5165033  86.8295670  17.3763418  31.9168591  87.5333595
  17.6530433  31.9673204  86.0461235  86.8299770  57.9676676  57.7490711
  86.4281178  57.1407557  57.4826956  86.4440346  58.6205816  57.1651316
   7.0043147  80.1820183  31.5691543   6.1358887  80.3681087  31.9261384
   7.0699447  80.7412434  30.7950783 112.5088692  13.9438915  86.4785194
 113.2948494  13.6362839  86.0270309 111.9986820  13.1500494  86.6389942
  92.4940395  77.8366375  78.5101795  91.8357563  78.1827974  79.1127348
  92.1492767  78.0344629  77.6394081  96.2011147 102.5409126  32.3513818
  95.7742119 101.7218113  32.1002531  96.9800758 102.5848389  31.7968321
  40.0420475  49.2040682   0.1630863  40.4997492  48.6722946  -0.4880320
  39.5467901  48.5716009   0.6835994  72.6149321  71.0973501  34.9724507
  72.8773737  70.2483225  34.6167707  72.3336458  71.6005468  34.2083144
  91.7897701 108.3000183  55.9670401  92.3719692 107.6095104  55.6500626
  92.3574448 108.8751411  56.4800930  79.9942017  83.1411743  81.7151356
  80.5751324  83.8910675  81.8432522  80.3331757  82.4713898  82.3090363
   3.9810336  60.4030132  63.7122250   4.7529978  59.9419355  63.3840275
   3.3823374  59.7063160  63.9813185   9.1149342 108.5411930  64.5178461
   8.5796911 108.7925243  65.2705622   8.4828371 108.3825493  63.8167667
  18.3407426  13.6073959  44.1457510  18.7014318  14.4655073  44.3688679
  18.8295949  13.3368254  43.3685493 105.8426189  71.2081814  83.8089275
 105.6114101  71.9496727  84.3683624 106.3411999  70.6236792  84.3799019
  48.7319756   2.2280322  53.9961481  48.3103895   2.9690239  53.5609150
  48.0418348   1.5687667  54.0689898  20.6664538  98.1619930  60.2184820
  20.8614564  98.1059647  59.2830324  20.9481621  97.3185825  60.5727959
   8.4997505  12.8183293  85.9832287   9.2227143  12.4237812  86.4709663
   8.8150507  13.6922252  85.7527447  92.7877045  92.9407692  29.9604177
  92.7011967  92.4029160  30.7474780  92.2138977  92.5212288  29.3193555
  94.2504978  58.2723093  85.7803631  94.2342091  57.7300787  84.9917221
  95.0736332  58.7572002  85.7206726  84.0029812  91.9553280  58.1511307
  83.1528664  92.0861053  58.5711670  84.6398258  92.0849609  58.8538790
  72.4804020 100.8035660  33.1132841  72.5913286 101.5036774  32.4700308
  72.3001242 101.2598324  33.9352012 105.0189209  74.2944193  34.1724777
 104.6044827  73.7188673  33.5296583 105.7490730  74.6944904  33.7001848
 107.5642490  91.8589687  56.2900591 106.6109371  91.7887497  56.2400818
 107.8639317  91.6912270  55.3965902  79.4549561  87.0119858  49.4080830
  79.4068480  87.0603275  50.3628540  79.4560051  87.9253674  49.1217756
   3.5394558  84.7121143  50.6638813   2.7838945  85.2836895  50.8004761
   4.2848039  85.2194881  50.9852266  12.5103509  76.4286900  67.8578091
  11.6906798  75.9636879  67.6900434  12.2374713  77.2743320  68.2137060
  53.1334114   1.8621978  48.9720535  52.4717188   2.2392702  48.3922148
  52.6442528   1.5895042  49.7483206  25.1453686  81.0860634  88.0886173
  24.3041801  80.7948017  87.7367687  24.9180055  81.5728664  88.8808060
 114.3783760  94.4374180  55.5205441 113.6438179  94.8916626  55.9332323
 114.9360847  95.1393223  55.1851177  13.9678550  70.9086561  36.8612289
  14.5191324  70.2295256  36.4725041  13.0839658  70.5420017  36.8380713
 100.4979229  79.6907568  65.1200485 100.8243847  80.5903435  65.0999069
  99.8586273  79.6519899  64.4086885 110.3507519  79.6948338  51.6960621
 110.8481598  80.4618645  51.4123487 110.0872993  79.8987103  52.5934219
 108.7589264  81.0969925  47.5357246 107.9334450  81.5630245  47.4029922
 109.4218063  81.7869854  47.5630283 107.2684288  72.7070713  61.2727880
 108.1499100  72.8497744  61.6175365 106.9923592  71.8753862  61.6579151
 112.6082325 101.8405724  62.1902800 113.4322453 101.8785286  61.7047024
 112.1922302 101.0312939  61.8932199 109.9346066  93.5281372  57.1480989
 109.3131542  94.1217518  56.7266226 109.8093987  92.6920795  56.6991282
  43.5880947  20.0941968  74.1238260  44.0965033  20.9011769  74.0429497
  44.0438747  19.5905375  74.7982311 100.5341434 101.0772324  76.7019558
  99.6382618 101.3466549  76.9045448 101.0510349 101.3852882  77.4463749
  37.4736166  10.2195919  65.3250504  38.3585691  10.0477850  65.0032187
  36.9855452   9.4217950  65.1212406   2.5629625  83.7802315  65.1640034
   1.7682020  84.1094494  64.7442341   2.2460946  83.2633495  65.9047174
  34.1549015  13.0722976  68.2168579  34.1453242  13.8495004  67.6582003
  34.8861694  12.5496995  67.8876543 112.2837162  48.0406046  12.5074649
 112.7069092  47.9454231  13.3607435 111.3542843  47.8942060  12.6834106
  37.5790143  40.5655384   2.5349328  37.6644301  39.9916649   1.7736140
  37.3997307  39.9714732   3.2637519  62.8406763   0.3155738  42.2357655
  63.0576992   0.2454620  43.1654024  61.9130325   0.5512947  42.2234869
  78.8387203 101.1796951  28.2274389  78.5489941 102.0908642  28.2729602
  79.7860384 101.2355614  28.1021738  93.0263710  83.8457584  92.8163624
  93.0781555  82.9415607  93.1261730  93.3573341  84.3685150  93.5467148
  11.1641920 101.6792774  19.1020870  11.2434304 102.3493767  19.7809935
  12.0534694 101.3422775  18.9932346  23.5029816   0.7146309  39.0306854
  23.9611077  -0.0921013  39.2663455  23.6134362   1.2839840  39.7921729
  97.5901794  85.9138966  77.4527645  97.4586201  86.0141945  78.3955622
  98.0529404  86.7093849  77.1895456  29.3197441   2.9191685  15.5299234
  29.7151566   3.1964359  16.3563633  30.0486445   2.5593454  15.0244904
  46.7892981   4.5269880  80.1355171  46.8678617   3.9338550  80.8826828
  47.4813128   4.2491788  79.5353746 101.2375927  83.0919075  84.5237637
 101.1340618  83.2668686  83.5883999 100.3534698  83.1720543  84.8817158
   8.8640404  73.4562111  79.5648670   8.5699534  73.1185150  80.4108620
   8.8118744  74.4076777  79.6555376  32.6225162   5.3163129  22.7021217
  32.2611356   4.4971922  22.3634815  33.4760952   5.3956640  22.2762871
   7.7335978  10.0225866  67.2947502   7.9959649  10.9341538  67.4229765
   7.8793257   9.8602438  66.3627386  51.2028360  87.9353523  58.3566523
  51.2611103  88.7821865  57.9142475  50.5800009  88.0796528  59.0690327
   5.1562208  99.2605209  62.2576523   4.3529204  99.1828060  62.7723360
   5.7930768  99.6395779  62.8634214  35.0413561   2.6629493  23.7782240
  34.3077612   2.7629697  24.3849087  35.4520965   1.8368050  24.0331960
 112.2575569  83.0523396  69.7481728 111.9957352  83.8165092  70.2617121
 111.4429092  82.7352238  69.3582821  93.3301163  95.5047703  29.3023705
  92.8946495  95.6917572  28.4707236  93.1170368  94.5893955  29.4837999
  95.7780552  52.0870399  68.3675528  96.0558224  52.7851534  68.9606142
  95.0596333  52.4713087  67.8651190  48.7328959  10.2531481  67.2361231
  48.1841946   9.4824624  67.0905256  48.6192369  10.7808805  66.4456701
  30.6821847  96.2804890  59.1583014  30.2725911  96.8987370  58.5531187
  31.5363383  96.0940552  58.7685680  93.9667606 101.7881680  83.7174988
  93.6093712 102.6575947  83.8980198  94.7881794 101.9578838  83.2563019
  91.4260197 107.3186970  84.0679741  90.7704067 106.6215324  84.0871334
  91.1479568 107.9278183  84.7519970  44.3316078  57.3130655   2.7646932
  44.7661924  56.8239403   3.4633526  45.0409746  57.7774429   2.3204127
  99.4327259  96.0037136  45.5994511 100.2762604  96.0873032  46.0440779
  99.1128635  95.1380157  45.8534098  90.5973434  87.0602703  38.4046960
  91.2056160  86.8509102  39.1135073  91.1497211  87.1217632  37.6253867
  21.6830635  23.0876803  27.5963187  20.8081102  22.8663588  27.2774029
  22.2227430  23.1277251  26.8067789 100.7140160  89.5180321  46.0827589
 101.3160229  89.8735619  45.4289913 101.0772419  88.6597824  46.3011789
  23.2289290  17.3961413  50.4245806  23.9642549  17.3890841  49.8118162
  22.8535628  16.5181029  50.3583908  34.2941904  15.6245303  39.7351241
  34.5564175  15.8895552  38.8535166  35.0708294  15.1988077  40.0981998
  15.6028748  95.8128262  54.2839384  15.2451038  95.5646515  55.1363707
  16.5293241  95.9835815  54.4535398  32.8416514   5.3896350  44.5699692
  32.2600508   6.0657233  44.2222977  33.3509040   5.8363736  45.2462196
 118.0497552 107.5466537  65.8475685 118.0214466 106.6131020  65.6380463
 117.4394205 107.6467800  66.5781164  17.6575363  21.2547493  60.5767202
  17.3907769  21.5905070  61.4324903  17.3203921  20.3591514  60.5551100
  27.3945069   7.2330314  70.4193020  26.9201374   8.0594069  70.3281593
  26.9234490   6.7609286  71.1059284   7.0903355   2.5921646  75.9228325
   6.9689858   3.5354027  75.8141708   8.0397683   2.4750733  75.9559822
  52.3329258   3.1130424  58.0621576  51.4784098   2.9097250  57.6817560
  52.7478266   2.2597954  58.1888628  27.1806264  17.5649071  39.2967963
  26.3924193  17.9057539  38.8739657  27.6679826  17.1421289  38.5897088
   0.7893699  70.3300524  76.5676403   1.4392434  70.7770681  76.0253525
  -0.0379705  70.7618856  76.3548899 101.8189430  77.2877026  33.8843274
 101.0040855  76.9913006  34.2897630 101.5826225  77.4656439  32.9739857
  24.3608069 105.0802708   2.7821001  24.7150278 105.6088352   2.0669921
  23.4808946 104.8416519   2.4904697 116.6650295 102.3800945  26.3715029
 117.6160145 102.4889183  26.3690829 116.4205456 102.3892689  25.4460955
  78.3348894  13.2305253  61.2277937  78.5848856  13.7579560  60.4691410
  78.8521862  13.5884333  61.9492769   9.2552674 104.8265362  41.0923481
  10.0315309 105.3086185  41.3773870   8.7755013 104.6455956  41.9006252
  87.4307728 107.4646664  21.8577743  87.8193188 107.2011852  21.0236025
  87.8666019 108.2886410  22.0753527  47.7126741   5.5800992  21.5000200
  47.5899887   5.4058784  22.4331999  47.2020483   4.9002931  21.0602951
  32.0112872  92.4309731  53.1929684  32.4535680  91.7449284  52.6930046
  31.0848117  92.1928501  53.1586838   7.4935192  87.1558094  51.0630226
   7.8775680  86.7396545  51.8347502   8.2253307  87.6122761  50.6479120
  11.0061932 110.2435875  47.7289963  11.3776219 110.8364296  48.3823013
  10.0617218 110.2826500  47.8795958 110.8844471  60.7930851  43.7951231
 110.4189587  61.3762951  44.3946409 111.0379982  59.9979591  44.3054438
 114.7221088  79.1948891  74.8359299 115.5735874  78.7933159  74.6628523
 114.7096062  79.3309641  75.7833242  96.0560703  97.4678516  73.0624104
  95.7066250  96.5822887  73.1619120  96.0509300  97.8283978  73.9490938
 106.5489960  42.2396278  24.9014521 105.8573437  42.2138786  24.2402554
 106.6475487  43.1688690  25.1089001  89.2479992   2.7444455  22.6609969
  89.5797062   2.2856662  23.4328270  88.4571552   2.2631608  22.4177670
 110.5328727 110.6205297  50.9180450 111.2517000 111.1922560  51.1875772
 109.7410393 111.1072267  51.1468601  96.2057304  31.9166350  85.4559517
  95.8659649  31.0221243  85.4306316  96.2178135  32.1420145  86.3861656
   3.6982545  74.5457029  35.5311108   4.5319265  74.8831654  35.8587456
   3.1460482  75.3218794  35.4370141  33.9990449  29.6436858  37.5628304
  33.5922694  29.4124484  38.3978724  33.4658647  30.3647923  37.2282362
  51.8611050  16.4552212  78.1851435  52.5033617  15.7530081  78.0820036
  51.9828320  17.0065618  77.4122000  26.6452133 110.5228406  48.9752769
  26.6061270 111.4392698  49.2488861  26.2624371 110.5182775  48.0979538
 108.6997128  24.2239499  50.9895372 109.4907570  23.7080741  51.1455917
 108.8829613  25.0717878  51.3942862  63.3942080  20.0368500  35.7756948
  63.4949064  20.8601952  35.2979970  62.4498224  19.9486256  35.9044862
  16.0728121  84.5219326  63.6361837  15.7671547  83.9273643  62.9511356
  15.4136848  85.2155209  63.6629534  54.6528482  28.4230876  63.7645483
  53.9930964  29.0987110  63.6080503  54.3215799  27.9348588  64.5182848
  10.3430021  20.4264045  75.0253582  10.7381809  21.0530782  74.4192696
   9.7083116  19.9463475  74.4934320  33.9181924 107.5131416  23.6066031
  33.1081486 107.7118778  24.0762472  34.6144629 107.7905464  24.2019939
  92.2153187  90.7175827  55.2096462  92.5660515  91.3449478  55.8418083
  92.8234577  89.9791241  55.2424335  51.3981962  85.9567928  46.8882513
  51.5300941  86.4468479  46.0766554  51.4045191  86.6239643  47.5746012
 109.4974041  99.3002510  43.1062508 109.4097233  99.3037128  42.1530819
 109.6697712  98.3850861  43.3275986  42.6183414 101.6647816  28.7217307
  42.8899336 100.9971714  29.3516231  43.3221626 102.3132133  28.7415600
  20.1446176 104.9813271  35.0458860  19.7016072 105.5167198  34.3876052
  20.8859587 105.5159855  35.3301024  78.3959961 109.8144817  12.4707973
  79.0242100 109.0975189  12.3839068  77.6616383 109.4325352  12.9514897
 116.9652653 106.7357254  60.0283575 117.4922562 105.9624004  60.2295542
 116.9254780 107.2196865  60.8532333  78.4685278   6.8058819  29.7050667
  78.9525461   6.3916135  30.4194498  77.7388811   6.2106150  29.5333099
 104.8695374  88.8284492  69.5296955 105.5468845  88.5307503  70.1369905
 104.5432377  88.0258751  69.1227055 108.7919712 100.6727028  57.3448706
 108.9293003  99.8330879  57.7835417 107.8512764 100.7005501  57.1700573
  38.4522486  18.9560282  25.0791812  38.9836264  19.1631007  25.8479404
  37.9531336  18.1803203  25.3348994  19.5149732 106.6178417  40.6455564
  19.5831263 106.2824821  39.7516203  20.1598239 106.1126423  41.1407089
   5.0613898  11.6972625  51.5647125   4.6132317  11.9084442  50.7456970
   5.8079600  12.2957635  51.5904427  41.1059809   2.5066182  54.2797709
  40.5913019   3.2947597  54.4534636  40.9076786   1.9245677  55.0133419
 115.9724903 108.6223507  85.5937481 116.5685272 108.6639309  84.8459244
 115.6375885 109.5145988  85.6830025   1.5549833 104.7303677  71.0769796
   1.9768861 104.2122650  71.7623997   0.9498447 104.1209412  70.6543255
  42.2926617  25.9185672  13.7517238  42.7937937  26.1258292  14.5404828
  41.8959570  25.0673270  13.9367855  42.8393412   8.3562839  38.9027834
  42.9084730   7.9611564  38.0336881  43.7139273   8.2603288  39.2797732
  30.3547955  80.7478619  53.2620621  31.1977410  80.2981663  53.3207607
  30.0938988  80.6491184  52.3464155  94.4927311 106.3770103  38.5056424
  95.3823280 106.6961193  38.3539176  94.3533134 105.7220364  37.8216767
 101.1528969  84.1527462  81.9714069 101.8915462  84.3266964  81.3879871
 100.3917980  84.4955826  81.5029812  17.9519022  90.9042263  30.6150603
  17.7117252  89.9779129  30.5929995  18.0173397  91.1125660  31.5470171
  43.7584972  24.6382856  18.7467182  44.5426989  24.5053530  18.2141840
  43.6884356  25.5886579  18.8368201  88.1494904  93.3487225  57.0563698
  88.4276485  93.1733990  56.1574125  87.1965218  93.4206486  57.0025063
  46.4988995   7.5765300  69.3781233  47.2501326   7.2094011  68.9121866
  46.8332148   8.3805257  69.7756863  81.0457706  19.6711886  40.8065414
  80.7191753  19.0226054  41.4301682  81.9986343  19.6057618  40.8698845
  66.1270857  17.1361089   7.3738515  65.3474617  17.4879360   7.8035462
  66.1621714  16.2212110   7.6530683  50.2191734  17.3758483  44.9358559
  50.1745033  18.2151413  44.4777870  51.1453104  17.1358085  44.9062204
  66.0009050  11.5628052  45.2360296  66.9097519  11.3282323  45.0483942
  65.8137703  12.2899842  44.6423817   1.0048088  94.1953468  18.8265371
   1.2960777  93.8997841  19.6891153   1.3100871  93.5162544  18.2249808
 106.5669918 109.9104118  46.0924387 106.6041851 110.8524799  45.9270144
 107.4576664 109.6779823  46.3549566  25.1150155  29.2343616  83.2065964
  24.7741389  29.4358826  84.0780449  24.3684483  29.3635130  82.6216221
  90.6373787  94.6845818  41.6143227  90.5223560  95.0408268  42.4952841
  89.9845695  93.9874172  41.5507746  39.8578000   5.0007081  53.4600687
  38.9821410   5.1175022  53.8285923  39.8417664   5.4979241  52.6422930
  17.5819230 106.0382652  30.9427547  18.2559133 105.8648777  31.5999508
  17.9221582 106.7785263  30.4402757  77.3321974  55.5718751  95.0343400
  77.6801073  54.7182793  95.2923546  76.4236319  55.5611367  95.3353781
 106.7343521  82.8311157  47.5383759 106.4369106  83.7406826  47.5596571
 106.4018536  82.4513054  48.3516550  42.9205656  13.4157193   9.2988729
  43.3665133  12.5715709   9.2297673  42.2901440  13.4132338   8.5785973
  32.3454285  12.6710904  42.6149845  33.2737899  12.4421966  42.5704479
  32.3279262  13.6222732  42.5092697  33.2919979  73.5515213  30.3187084
  33.0156970  73.9236069  31.1562276  34.1514349  73.1701136  30.4979515
   7.6472890 109.7157955  30.7196760   7.7829552 108.8757706  30.2812791
   7.9647583 109.5745182  31.6115761  41.0765314   7.0906663  54.8158360
  41.3768864   7.8539646  54.3224859  40.8457422   6.4477342  54.1453075
  15.7951856  30.3776431  32.8988099  15.2888358  30.1345778  33.6738968
  15.8690917  31.3306046  32.9501486  26.2859011  93.4584522  77.8058910
  26.3156199  92.8822422  77.0421314  25.3824186  93.3983231  78.1162691
  60.0080299  33.3168578  61.0296583  60.2886915  33.6164975  60.1649761
  60.5772829  33.7837648  61.6413689  16.7423582  98.3250141  48.9755297
  17.1085453  97.9609489  49.7815084  17.4502337  98.2500267  48.3355951
  25.9558320  91.3819027  33.5737753  25.5678630  92.0781136  33.0436730
  26.0338688  90.6397057  32.9743767  16.5934312   6.6167778  25.6419611
  17.2296524   6.4067805  24.9583268  15.7944989   6.8411267  25.1648784
  64.4971514   2.6747659  67.8984976  64.0637064   1.8220064  67.8644848
  64.2630863   3.0283597  68.7566423  14.6357131  95.2406120  56.8724632
  14.7847319  94.3050671  57.0095205  15.2938974  95.6705093  57.4185514
  25.8258748  62.9482412   4.1086262  25.0875640  62.4587250   4.4712639
  25.6831908  63.8484335   4.4010729  14.8853230  81.6214943  48.0751896
  14.2311049  82.2334385  47.7379179  15.4311013  82.1508312  48.6567020
  60.4818392  11.3410437  13.6958992  59.7784138  11.9847882  13.7796652
  60.2260017  10.6290495  14.2822802  21.0078764 109.1134453  26.9232869
  21.5824914 108.4477234  27.3012590  21.1467671 109.8875141  27.4689531
  52.2653770   6.6462362  12.9107261  52.4820948   6.7243773  13.8397896
  52.7052546   5.8441985  12.6288104 100.5010891 109.2831230  25.4347587
 100.8248997 108.7084579  24.7411227  99.6203327 109.5281601  25.1511025
  10.2321053  97.8687859  46.3962221  10.7768238  97.1172523  46.6301346
  10.7938147  98.4075546  45.8390474  11.7114437   2.7270505  48.1198502
  10.8351123   2.4636683  47.8389454  12.1918654   2.8689349  47.3041916
  55.1070929   6.2672722  53.5846663  54.9446487   6.0794753  54.5091009
  54.6975756   5.5394799  53.1168556 108.7927151 103.6620140  57.4602652
 108.9907265 102.7642822  57.1935844 108.8094330 103.6368656  58.4169912
  35.5824018  17.1653366  26.6404033  35.7512379  16.2714601  26.9382477
  36.0086322  17.7200258  27.2937655 106.5296364  98.4387493  59.7321892
 106.1737633  98.2322979  58.8679171 106.0904789  97.8280544  60.3241587
  85.7602501 101.6126537  43.1305170  86.3257885 102.3844910  43.1049776
  85.2734566 101.6994190  43.9501095  11.2474966  96.6758633  13.5545075
  10.5502355  97.2991657  13.7583530  11.8527031  96.7435455  14.2930031
   2.2532025  59.2072201  21.6479731   1.8310724  59.7088242  22.3454165
   1.7910153  59.4685841  20.8515406  59.7791672   3.0808106  31.7207026
  60.0597477   3.9958918  31.7090678  60.1812553   2.6970828  30.9413981
 115.6069946 109.8923111  66.1486959 115.8146286 110.5443859  65.4794359
 115.5077076 109.0736103  65.6627846 106.3897705  97.0824432  53.8433361
 105.8650398  96.3450241  53.5317278 107.0905781  96.6784191  54.3550634
  23.0468130  85.6738567  51.3540125  23.6087370  85.9834003  52.0644045
  22.4004006  86.3704109  51.2390947  63.7508202  34.0633655  46.7363548
  63.3299255  34.6685481  47.3469543  64.6520090  34.3789506  46.6693020
  38.1925201  89.3272209  28.5514450  38.8996291  89.5859814  27.9604554
  37.6337934  90.1022053  28.6101890  40.7180405  95.0717926  26.1941266
  40.2661991  95.9055614  26.0641003  40.0280523  94.4645882  26.4614367
  45.8314848   3.5147908  36.0606360  45.7505798   3.5165754  37.0144105
  46.0277939   2.6046237  35.8386207  43.4476757  11.8168616  46.5446806
  43.3702087  11.3031888  45.7407093  44.3903780  11.8822491  46.6972303
  14.1406417  11.1052251  71.1336660  13.8182282  10.2158666  70.9876442
  14.1343606  11.2090552  72.0851946   6.3274759  89.3996334  45.7524920
   5.9548330  90.2451801  46.0023403   7.2361678  89.4409084  46.0504961
  43.5772991  92.6797676  28.8861656  43.8564920  93.3599472  28.2732725
  42.8899384  92.2043705  28.4195161  56.7808008  18.8075364  42.1653652
  56.8831873  19.7574234  42.2242260  57.4589586  18.4572899  42.7430010
  55.4629946  35.9397197  58.3631468  55.1505804  35.1859188  57.8627348
  54.6652985  36.3891554  58.6422873  37.3876286 107.7721691  56.8837738
  37.7350664 107.9988098  56.0211277  37.8727365 108.3302879  57.4915552
  64.3910503  19.9076247  57.4366951  65.2223206  19.4498658  57.5619221
  64.5905447  20.5976415  56.8039942  63.3795643   9.7541374  51.2867785
  64.0084076  10.4446709  51.0771418  63.7500095   8.9648587  50.8917570
  63.0912924  25.8661103  44.3584538  63.9080954  26.3639069  44.3940067
  62.8659344  25.7098413  45.2755260  19.4610512  78.0418205  24.2597723
  18.6474228  78.4792376  24.0089583  20.0186729  78.1105518  23.4848094
  60.4299450  14.5930874  26.5505528  59.7715092  15.2723813  26.4047647
  61.0432243  14.6937966  25.8225584  74.6848631   5.7443327  39.9027014
  74.7090960   4.7896251  39.8380613  74.6100998   5.9190542  40.8408451
  71.7071772  38.5593605  19.0942442  72.0021534  38.4074140  19.9920928
  71.4544821  39.4824624  19.0781403  25.1198769  10.0189912  75.0354195
  25.3610945   9.9404472  74.1124487  24.6391606  10.8450615  75.0878811
  37.4154162  26.0216355  21.4412379  37.8103328  25.3365135  21.9805741
  38.1400895  26.6123247  21.2358928  34.6514368   6.3675034  34.8179698
  35.4203176   5.8949119  35.1368904  34.0119410   6.2899733  35.5259728
  40.3085136  16.6896164  47.3660183  40.2805805  16.1630476  48.1648779
  40.3729057  16.0481632  46.6584730  65.5929470   2.0814013  57.7958298
  65.2167511   2.9506734  57.6577139  66.5356493   2.2354443  57.8575659
  44.9085665  17.8142941  20.4523373  45.8043814  17.8058469  20.1151776
  44.9627447  18.3194005  21.2636089  54.2821264  15.1314604  93.2540894
  54.1824102  14.3590653  92.6975822  55.0637102  15.5697989  92.9176140
  16.6524255  75.4194546  76.8347931  17.0030904  76.2965822  76.9894266
  17.0754862  74.8722839  77.4965000   9.6191436 100.9484196  81.3981533
  10.3155029 100.3467655  81.6614532   8.9226156 100.8035469  82.0385361
  33.9989567  90.0037479  30.4272342  34.3662167  90.1572990  31.2977386
  34.1178536  90.8346558  29.9671388  31.2321186   1.9528066  35.4776692
  30.6287289   2.4195182  34.8994541  30.9921002   2.2419526  36.3580203
  32.9409003  80.8841228  46.8570042  32.8963709  79.9616623  47.1086359
  32.1299148  81.2639999  47.1949816  70.1450634  21.0267615  39.8820043
  69.9766302  20.4497218  40.6269121  71.0572195  21.2963581  39.9893236
  50.8142662  33.9150429  25.7311988  51.5622187  34.0440822  26.3144231
  51.0636044  33.1710768  25.1829505  15.2981246  95.6551361  27.4461293
  15.0359392  94.7764111  27.1716452  15.8335245  95.5124760  28.2266593
  64.5989466  18.7643039  48.4476805  64.4043779  19.2204607  47.6289654
  63.7715292  18.3508420  48.6939764   9.8856330  97.8458595  52.5273991
  10.4895687  97.1184540  52.3778248  10.1694739  98.5229778  51.9132519
  85.9786510  45.9720516  75.9520960  85.8301449  45.1251125  76.3726568
  85.3001499  46.0275841  75.2792072  57.3709726  11.5885890  17.2768056
  57.4518299  10.7018495  16.9255400  57.1244335  12.1235359  16.5222967
  54.2193747   2.7123642  35.8786225  53.6679077   2.0180175  35.5180740
  53.9999723   2.7331141  36.8101072  34.3191409  97.5815296  58.5241079
  34.8201227  98.3909035  58.4233189  34.3833590  97.3746300  59.4564724
  21.1585832  16.9263113  36.4968514  20.4992032  17.5781345  36.2589955
  21.9953632  17.3618603  36.3345933  45.0321341  13.4093988  60.1487827
  45.8696222  12.9806054  60.3248119  44.3739510  12.7757895  60.4343796
  32.6558828  68.1209421  31.1991978  32.5368428  68.9417553  31.6770315
  31.7709923  67.8644371  30.9395742  52.3527575  25.4218364  37.8847647
  52.0688295  26.0096645  38.5848188  52.6686335  26.0056806  37.1951413
   9.8060858  86.9432545  58.9936018   9.6170151  86.9538689  59.9318790
  10.4760921  87.6167870  58.8766527  42.9145050  20.6163335  55.3516579
  43.2145405  21.3301516  54.7889137  42.2255707  20.1857209  54.8455191
  57.5262022  22.4168849  60.5464935  57.1072149  21.5623927  60.6490707
  57.0796728  22.8143978  59.7989464  55.0389481  27.3515201  38.2151270
  55.2414703  27.3063135  39.1495633  55.3368664  26.5121078  37.8646040
  48.0379343  32.0268059  55.7851315  48.2529593  31.9026351  56.7095661
  47.0950651  32.1916914  55.7785940  55.4261637  24.5584750  61.3150358
  56.0532761  24.5956826  62.0372391  54.8201513  23.8591504  61.5598345
  51.9211483  31.2754488  48.3934641  51.5808725  31.1576414  47.5065804
  51.1597347  31.1527324  48.9604044  86.0186291 110.5680656  70.2387381
  85.6461906 109.8008728  70.6733990  86.5822697 110.9683609  70.9007788
  33.4477782  40.7888651  64.2344570  34.2283988  41.1463451  63.8112879
  33.3854771  41.2642717  65.0629091  23.4964609  19.8863173  53.7432718
  24.0949297  19.3270755  53.2479811  23.1086016  19.3032575  54.3958330
  65.0751257  27.2838950  73.5058546  65.3921366  26.9127750  74.3292665
  65.1052570  26.5542889  72.8869867  50.4682112   8.3335698  39.3953276
  51.0224771   8.8871288  38.8452387  51.0337543   8.0769664  40.1237154
  43.4979963 101.6433048  39.9374223  44.0492678 102.3202515  40.3299427
  42.6804733 101.6825962  40.4337502  44.6893072  10.1445258  58.8653803
  43.9195251  10.4504418  58.3857107  44.4437551   9.2756933  59.1832876
  76.4661980  37.9186106  13.4168017  75.5341864  38.0172062  13.2222056
  76.8766212  37.7863717  12.5622284 111.8590260 100.8024693  38.4113741
 110.9929085 101.0184574  38.7569499 111.7198944 100.0081158  37.8957319
   2.7974778 105.2681065  33.7955785   2.2698820 104.5123482  33.5372972
   2.3050500 106.0243130  33.4763718   7.3915619  82.1769333  29.7018075
   7.0701349  83.0747509  29.6190739   7.2807848  81.8014336  28.8283348
  26.2099838  14.1565251  49.1292429  26.1708999  14.7444594  48.3748960
  25.4079676  14.3406510  49.6182203  58.7530899  33.4759378  63.6622620
  59.6938658  33.6517096  63.6787891  58.6803532  32.5955987  63.2935524
  82.7468967   9.9197012  42.2047520  83.5232925  10.4778934  42.2479725
  82.6246929   9.7512907  41.2704420  60.3754807  12.8952992  31.0630488
  60.3765106  13.5658717  30.3799939  60.3468227  12.0665133  30.5850053
  27.7880454 102.1609402   4.2531186  28.7188125 102.3001671   4.4278225
  27.5840950 102.7691746   3.5427070  63.0609226  21.2208557  39.0220785
  63.5271168  20.5786872  39.5573521  63.6306429  21.3610601  38.2657790
  84.5216656   2.8326201   8.6921144  85.1046848   2.2404234   8.2171172
  84.6795082   3.6907905   8.2985866   7.2846252  97.7207088  23.1663132
   8.0512410  97.9095459  23.7074876   6.6875631  98.4498310  23.3340335
  33.3087397  14.1249633  24.7466254  32.8717518  14.5078921  25.5073094
  34.0928173  14.6606016  24.6260238  74.8835373   4.6548533  43.3249569
  74.6288347   3.8754395  42.8311205  74.1303587   4.8396277  43.8860369
   8.2261515 108.2455921  48.2657862   7.3217595 108.0768013  48.5300159
   8.1671470 108.9976501  47.6765871  57.4602270  14.6648431  38.5650182
  56.7016649  14.3227112  39.0380478  57.1438074  14.8019457  37.6720953
  47.9970932  18.5110474  33.6795259  47.5249529  17.9101396  33.1031346
  47.3418617  18.7967527  34.3161392  80.9359646  29.8684978   5.7251823
  81.8004990  30.1123714   5.3945136  81.0217953  28.9449859   5.9618056
 115.6456757  87.2770786  34.5725417 116.0232925  87.8554440  33.9098763
 116.1361313  87.4746513  35.3704405  37.1849739   9.6437076   0.3461618
  36.7336523  10.0336173  -0.4025107  36.8976700  10.1639465   1.0965223
  44.0434456  13.0924678  65.7777023  44.0280199  12.1421015  65.8908319
  43.9361811  13.2232952  64.8355722 109.0719414  93.3294773  37.3295832
 109.3586540  94.0722370  37.8609371 108.1253624  93.2887554  37.4658179
  36.4758635  73.8862944  47.1465158  37.2483277  74.1111898  47.6651192
  36.7758942  73.1936407  46.5579176  65.7633495  22.4835181  26.0474157
  65.9908152  23.0338502  25.2979970  66.3139534  22.8090596  26.7595148
  53.2088327   4.4193128  67.8960037  53.7946653   3.7414008  67.5591516
  52.6859426   4.6820304  67.1385098  63.6016560  22.7969193  34.4135785
  64.3236113  23.0031800  33.8198853  62.8193569  22.8410649  33.8637686
  59.6309471  13.3159912  40.5760956  58.7671232  12.9044008  40.5508184
  59.8155928  13.5414743  39.6643400 116.7683697 107.2912598  49.4460154
 116.0284901 106.7767525  49.7686434 117.5008583 106.6752243  49.4327784
  67.5343704   2.2678065  19.5579314  66.7704058   2.4683507  20.0986433
  68.1895638   2.9146492  19.8197448 110.0122166  98.1459618  30.9711075
 109.6600819  97.4804497  31.5621519 110.0936317  97.6990891  30.1285458
  49.1487312   1.3501240  12.3845983  50.0660944   1.4045328  12.6524067
  48.8417530   0.5198338  12.7487600  67.4012566  14.9071586  60.0338602
  68.3343697  14.9681997  59.8293877  67.2671270  13.9890075  60.2688980
   5.7084513  98.4823322  46.4570093   5.6265390  98.4810734  45.5033207
   6.0090977  97.5995541  46.6727543  94.3122101 106.3549900  59.1743946
  94.8514557 106.4944363  59.9528503  93.5965824 105.7953262  59.4758701
  42.6102829   4.3030494  69.7867727  42.9807949   3.5149363  69.3894958
  42.7929306   4.9983820  69.1548061  60.0639105  13.5562503  45.2765131
  60.9547424  13.9021480  45.2217340  60.0806093  12.7651429  44.7379017
  31.4892173  73.7988186  66.8837976  31.8186140  74.6966219  66.8428373
  30.9913588  73.6891651  66.0736465  16.3173044 101.0067844  64.4923687
  17.2426486 101.2513447  64.4797134  16.1796033 100.6354713  65.3638029
  50.9856701   8.4876698  67.1985817  50.5245543   9.3092823  67.0295906
  51.6665554   8.7205869  67.8297520  65.8569336   8.1549037  60.0122976
  65.3805590   8.5787183  59.2983818  66.2617588   8.8774174  60.4922199
  50.7389069  18.6503768  22.8108668  51.3556385  18.3285904  23.4683847
  49.9548054  18.1158280  22.9360461  56.2228775   1.0756434  77.7130985
  56.4777184   0.6233159  78.5172701  56.8509531   1.7934866  77.6327467
  29.6496272 104.9152565   5.5616039  29.0365887 105.6198692   5.3519869
  29.9318457 104.5820236   4.7098172  46.3860369  33.2575703  41.5988159
  46.4126778  33.7649918  40.7876158  47.2900105  32.9728675  41.7330313
  45.4533195 104.2080307  46.0192013  45.8680773 104.2139912  46.8818569
  44.8582315 103.4587288  46.0447264  59.9333143   8.8327318  31.7401767
  59.2225218   8.9043540  31.1030936  59.7099924   9.4678605  32.4205971
  53.6034203  31.9035387  31.3436723  53.2257605  31.8796444  30.4644513
  53.5222483  32.8180456  31.6144419  32.4578261  85.2588367  41.8836546
  32.0557714  84.5760918  42.4207211  32.0122290  86.0640717  42.1468544
  19.5334661 103.9459801  75.8346844  18.6601555 103.7635136  75.4878855
  19.6314216 103.3390999  76.5683985  54.9285793   6.1445296  17.8426790
  55.4664516   6.9362837  17.8355312  54.5537567   6.1175513  18.7230253
 115.6839085 106.9620609   7.5303549 116.2819386 106.5209866   8.1337225
 114.9667931 107.2686768   8.0852973  49.6511555  43.7010288  40.7473564
  50.0370455  43.8526392  41.6101074  50.4014254  43.5484552  40.1728582
  55.3789425  24.6149969  20.6509042  54.8638582  24.4262409  19.8664987
  54.7363472  24.6362662  21.3600230  88.1416607 109.8168659  42.0799255
  87.9150581 109.3221760  42.8674316  87.5488853 109.4812870  41.4074373
   7.6986766 103.7044430  74.3755579   7.5702512 104.6455956  74.2573547
   7.7400255 103.5856628  75.3244591  71.9888926   2.2233090  24.6549869
  72.2759771   2.1856995  25.5673456  71.7364216   3.1368107  24.5208025
  50.8146524  18.2929564  14.9803638  50.5122471  19.1184270  14.6017075
  50.0111341  17.8260934  15.2097702  44.5489597 110.0561428  48.4700537
  43.9020109 110.0439167  47.7646875  45.0479078 109.2479229  48.3514690
  42.7410936  28.5813355  15.8728027  43.0962944  28.9944553  15.0857854
  41.7926836  28.6781478  15.7868850  65.0495005   9.5390916  38.0434561
  64.8567486   9.9644673  38.8790011  64.3403339   8.9067566  37.9273939
  81.5703869  16.9283736  58.8851404  82.0803261  16.8935490  59.6944523
  82.1166611  17.4290383  58.2792091  16.5595734  74.7879839  18.5425806
  15.6875098  74.9067831  18.1662512  17.1330559  75.3197908  17.9907382
 115.3741455 101.2949181  64.6789217 114.6186352 101.2743473  65.2662945
 115.1067638 100.7675076  63.9262104  49.2137194  20.2623224  21.1542964
  48.6965895  20.7282233  21.8113708  49.9348927  19.8731184  21.6489315
 116.1199570 111.3380623  37.9605651 116.4259434 110.4764652  38.2438588
 115.1783943 111.3262749  38.1324530  67.7421045  17.4435627  29.2590117
  68.5059547  16.9876540  29.6124411  67.9767990  18.3706808  29.2990422
  27.6857305  17.0825171  34.5037627  28.4557796  16.8585789  33.9811659
  27.0279217  16.4348423  34.2507076  56.9675827  32.7159119  42.1966553
  57.6533413  32.6318598  42.8591490  57.1391582  32.0020986  41.5824366
  43.3036477  -0.0370266  19.0394235  42.6200897  -0.2454712  19.6762371
  42.8361070   0.3730724  18.3117878  30.8739686  19.5192122  44.8438597
  31.5172505  18.8777220  45.1453733  31.1918616  19.7906470  43.9827585
  21.7950439 106.1230946  68.2272053  20.8601284 106.1805344  68.0300665
  21.8326926 105.9998989  69.1757011  53.4614277  29.5043540  37.2610068
  54.1051149  29.0120721  37.7704740  52.8288984  28.8458133  36.9738483
  66.8068027   3.6200818  66.0187578  67.5424671   3.0969253  65.7004166
  66.5174246   3.1688368  66.8117666  85.8865643 108.1998253  68.1116962
  85.5581284 107.3736095  68.4662914  86.2946701 108.6360645  68.8596058
  61.6229582  17.3848355  51.6321754  60.9281015  18.0400109  51.6965580
  61.2088108  16.5682507  51.9112873   1.0884738 102.9800701   8.0700040
   0.2036917 103.0610275   8.4261489   1.5509461 102.4281502   8.7006646
  60.4763079  99.2707443  70.1426363  61.3843966  99.5152283  70.3210449
  60.2768564  99.6860695  69.3036175  48.6434603  14.2166305  49.8646402
  48.4734964  14.5601320  50.7417679  47.8110790  13.8294494  49.5936012
  52.9790831  16.6924989  35.8349490  52.0893383  16.9676685  35.6138968
  53.3589697  17.4479818  36.2834620   9.3622583 107.5412750  39.4499946
   9.4520378 108.4903908  39.3643069   8.8490880 107.4203968  40.2489185
  26.6482210  95.9638977  38.9036655  25.7662678  96.2897491  38.7241888
  26.6989684  95.1352501  38.4272265  76.6385937  19.3755496  16.9234657
  76.9026232  19.0376973  16.0676765  76.7445278  20.3239989  16.8496096
  54.1942120   8.5798913  29.8086405  53.9916134   9.1677034  30.5364180
  55.1430368   8.6483663  29.7024536  33.0535126  81.2654400  60.0157452
  32.6757550  82.0199680  60.4676533  32.4871945  81.1334515  59.2554235
  54.6420956   2.4243575  64.1061020  54.6070051   3.0127129  63.3518887
  54.1676188   1.6428894  63.8225365  30.0256109   0.3132964  28.3783245
  29.6997571  -0.5701482  28.2063460  29.8695779   0.4484034  29.3130064
 118.0918503  83.8656807  64.6969128 117.6592255  83.6216164  65.5151367
 117.3825932  84.1770554  64.1345787 103.8368320  88.9613247  55.0007582
 104.1534424  89.2477131  54.1440344 104.3721771  88.1960011  55.2103567
  89.7619152   5.3161615  40.9273911  89.9815655   6.2051624  41.2060738
  89.6713829   5.3787130  39.9765372  48.2893991  33.3142924  58.5084724
  48.8166332  33.8766456  59.0759373  48.1339598  32.5265384  59.0295410
  26.5387344   7.1919346  48.3014488  26.1616778   7.0860821  47.4280310
  26.0694790   7.9373276  48.6761761   9.2612958 101.1135387  21.8982768
   8.4657633 100.6421661  22.1455956   8.9506334 101.8424034  21.3611794
  54.1777897  32.6512957  41.3380432  55.1227427  32.7474380  41.4565849
  54.0833187  31.8739557  40.7875443  15.6423628  88.5125542  55.5802011
  16.4725542  88.3253860  56.0183525  14.9766171  88.1443214  56.1610746
  28.7521577 109.9012566  66.6563177  28.7525105 108.9554310  66.8034410
  28.0109572 110.2231789  67.1693707  14.5074093  83.3094406  31.9539475
  14.8798764  83.2754707  32.8350520  13.8204539  83.9736843  32.0097542
  34.1401625  47.7161646  34.6668625  33.2773709  47.6496744  34.2577147
  34.7092128  47.1803761  34.1142821  42.3737669  82.9382801  49.0188217
  41.6379642  83.0385113  48.4148455  42.1840286  83.5491276  49.7309256
  70.2375364   2.5006333  19.0723801  69.9788427   3.2880896  18.5936081
  69.5828295   1.8462546  18.8287044  43.7683630 103.9463711  27.0443726
  43.7031412 102.9916096  27.0239854  43.8303471 104.2019176  26.1239982
  50.2917480  26.1353707  40.6476212  49.6958447  25.9181261  39.9307323
  49.7222948  26.2353063  41.4104891  82.4453163  29.4759369  12.3771894
  83.2382393  28.9629579  12.2211170  82.1814442  29.7792697  11.5085173
  13.7410545 106.7881680  51.3212919  13.4199297 106.8991089  50.4264164
  14.2140472 105.9561634  51.3046026   2.9172704  98.8796520  73.4878922
   2.8403386  99.0901375  74.4184875   2.1778338  99.3291569  73.0787325
  50.0725269  18.1370544  26.2653661  49.2816544  18.1526148  26.8043566
  50.3011608  17.2097051  26.2022662  46.7300367  38.2881999  37.8152633
  46.6678762  38.2259893  36.8621111  47.5193214  37.7939510  38.0365777
 106.0161304  96.3129711  57.2107506 105.2103424  95.7970238  57.1838570
 106.4744186  96.0009098  57.9910183  55.3084564  12.0192790  66.2123203
  54.4116497  12.3204422  66.3581562  55.3977680  11.2509441  66.7761660
  82.9148579  17.3780990  66.3775396  82.2358513  17.9195499  66.7800474
  83.7049675  17.5700486  66.8826246  35.2345324 110.3778934  67.6166868
  35.3597283 111.2479115  67.9956675  34.2893672 110.3090858  67.4819326
   9.2541069  97.6436329   3.8347447   8.3630657  97.9423237   3.6529201
   9.7842413  98.0348778   3.1403983   9.1206145   9.0904593  35.3587461
   8.6947626   8.3730698  34.8894548  10.0487006   9.0006691  35.1423502
  33.3654785 100.9844971  74.3803167  33.2557344 101.7776775  74.9047709
  32.6197505 100.4341221  74.6195078  10.3325844 104.7474670  19.3431389
  10.6294668 104.3638325  20.1683140  10.1905406 105.6720257  19.5462537
  36.8906879  15.4924500  59.0393829  37.1558785  16.1708570  59.6604061
  36.5271235  15.9757888  58.2974720  45.4135370   4.3790913  62.8723431
  45.4309559   4.6455804  63.7915325  46.2635517   4.6526057  62.5275230
  15.9568679 109.4866467  14.7226977  15.1799524 109.5713139  14.1700077
  16.5732765 108.9804745  14.1934860  27.5167322 101.5429497  51.5754509
  27.8817034 100.8209515  51.0638428  27.7229619 102.3262024  51.0653305
  21.5688133  95.2851009  22.7997994  21.1814952  95.5675125  21.9712710
  22.5048757  95.4570198  22.6975203  72.9324341   0.7664844  46.4211702
  72.5698280   1.3321039  47.1029520  72.1754026   0.2952439  46.0732269
  79.3202782  20.8397150  36.2845755  78.3973646  20.8295703  36.5382671
  79.7375774  21.4190173  36.9221473  29.3479013  89.5950699  67.4306250
  28.8636541  89.1969299  66.7072821  29.0206361  89.1493893  68.2119703
  64.4947052  17.6544130  51.1163092  63.5530472  17.5954604  51.2776756
  64.5650148  18.0763984  50.2600288  25.0372410 109.3570232  41.7775869
  25.3595948 109.3287182  40.8767414  24.5596981 110.1845932  41.8351984
  52.7753448   3.0729023  70.3790140  53.3662987   3.6627117  69.9108982
  51.9041395   3.4419069  70.2338839  60.1279545  13.3200133  52.4909639
  60.1899576  12.5285721  51.9561672  61.0352087  13.6021149  52.6073503
  82.1771336  12.1230793  28.2245445  81.4107227  12.6628685  28.0309939
  82.9111671  12.6030803  27.8410983  27.0245910  88.6226845  51.7294550
  26.4317393  88.2676220  51.0671186  27.9005313  88.4383965  51.3903379
  59.8846626  20.5307412  31.6869116  60.1899815  19.6602166  31.4315748
  58.9301348  20.4592204  31.6872334  14.0598071  99.5976448  21.2024999
  14.1180944 100.3270626  21.8195701  13.1215858  99.4909954  21.0456610
 100.9894943  37.4953198   1.1537930 101.3881588  36.6700864   0.8775950
 100.8514881  37.3913622   2.0952705  77.8019619  30.8684707  57.8879642
  78.1142044  31.4893985  58.5461283  77.7869415  31.3705063  57.0731258
 103.7123871  83.6417484  33.6238050 104.0422726  83.9779186  34.4571090
 103.4372902  82.7459431  33.8189721  59.9697590  12.9739881  37.8066754
  60.1545095  12.1391463  37.3763990  59.0266180  13.0959702  37.6978564
  74.6098137  12.5576401  34.1328692  75.2779341  11.8734825  34.1750121
  74.5933247  12.8199422  33.2124591  24.5491099 110.2883339  17.6350558
  24.1275907 111.0417652  18.0484486  23.8317513 109.8121738  17.2168434
  94.9224663  27.1851420  55.0858450  94.7281361  26.5960884  55.8148718
  95.6199551  27.7519202  55.4152441  18.7177312   7.3129112  52.8629398
  18.3334768   8.0589128  53.3234453  18.5957801   7.5153548  51.9353771
  25.0064683   1.5610173  31.5988922  25.7288671   1.9290993  31.0900831
  25.4174781   0.8975090  32.1530247  45.7590246   6.6250139  49.2871571
  45.3125048   5.8281893  49.0009403  46.6871357   6.4474988  49.1344404
  62.9705095  27.2907138  28.8245416  63.5755730  27.0785475  29.5352602
  62.9037237  26.4817047  28.3173180  28.9975190   1.5742674  53.8496113
  29.2972517   1.4314210  54.7473812  28.3071709   0.9237542  53.7212229
  81.7339897   8.1777430  49.9253988  82.1543694   7.9834884  50.7631207
  82.0040131   9.0737092  49.7239876 111.5619564  42.9631138  83.9943409
 111.5030098  43.3869982  83.1381416 111.1207962  43.5672235  84.5915604
  56.7115593   8.3910602  30.8209467  56.7399406   7.5271565  31.2321615
  56.6965628   9.0053087  31.5549135  43.6563921  38.7324381  40.7032442
  43.5633659  37.9458904  40.1657343  43.2121611  38.5161924  41.5230799
 101.1530113 104.7965050  54.5875359 101.2827301 104.0010834  55.1039696
 102.0032501 104.9578476  54.1785240  79.8398113  18.5236549  38.4889984
  80.0052834  18.8996184  39.3535781  79.5874214  19.2712080  37.9470611
  41.4412403  20.3487444  33.2793450  40.7101488  19.7357833  33.3569193
  41.4515305  20.8161974  34.1145778  18.9808106  17.1660244   0.8356157
  19.5714676  17.7536070   1.3068932  19.0259528  17.4601603  -0.0741524
 115.0265026  90.0511456  52.2961521 115.3793049  89.2776489  52.7360106
 114.6936989  90.5996799  53.0064821  51.8728828  40.2933407  66.4983273
  52.2481680  40.3760958  67.3749924  52.4302578  39.6511507  66.0588312
  99.1334820  89.2518044  38.2969570  99.4435692  88.3462334  38.2951140
  98.3098888  89.2239475  37.8099799  53.5849142   2.8942445  38.3670473
  54.4717312   2.7752405  38.7070775  53.0142736   2.6248187  39.0867805
  40.3012657  26.3492441  49.8218822  40.5560446  27.0364404  50.4375744
  39.4551468  26.6366887  49.4788218  50.6418991  28.1047511  49.5517254
  49.6934319  28.2319856  49.5305157  50.9041071  28.4027219  50.4227543
  64.9883366  29.7373033  93.5502052  65.9138489  29.8944592  93.7371635
  64.5216179  30.1959372  94.2488194  75.8100414  23.7525868  36.5939212
  74.9597359  23.7955356  36.1564708  76.3090181  24.4785118  36.2193751
  77.0898819   5.1044911  52.1496344  77.8269053   5.6334931  52.4548912
  77.1593714   5.1250571  51.1951828  75.2543306  12.1044397  40.2078772
  75.0299263  12.5943077  40.9990168  76.0506916  12.5249958  39.8835707
  44.1191912   4.0217763  49.5679951  43.7720966   3.2283366  49.1603041
  43.3622169   4.6026358  49.6443319  70.2298307  29.7496724  53.8815212
  69.5792246  29.9787903  53.2178640  70.2856398  30.5250835  54.4399595
  63.1373596  33.8410735  38.9256287  63.3310509  32.9047823  38.9711714
  63.5346365  34.2065668  39.7160816  17.0985150  39.9260616  32.0873237
  16.5526474  40.5617762  32.5500631  17.6866305  39.5813155  32.7592635
  69.2411661  12.6467490  27.0313716  68.8702154  13.5218871  27.1443367
  68.4969759  12.1025622  26.7739367  69.7515440   3.5310236  47.3834658
  70.4746008   3.2435104  47.9409170  69.3222284   2.7201089  47.1108150
  19.9073303  92.5096893  56.0791969  19.6305180  91.6321754  56.3429689
  19.0991485  93.0224705  56.0678148  31.2116766 102.6952457  36.7680645
  30.7383513 102.6983833  35.9360886  30.7998848 103.3909798  37.2805285
  52.1391296  20.0302839  33.4644818  52.5410318  20.8528781  33.1851220
  51.6211081  19.7486043  32.7104616  70.7495165   0.5937040  28.4343743
  71.1730194   0.1042867  27.7291465  71.4738464   0.9162571  28.9705944
  98.9111233  27.3984361  40.7623577  97.9720497  27.4382520  40.9433985
  99.0968800  26.4645004  40.6649399  73.7398958  14.5972466  29.2743278
  73.1202984  14.2684245  28.6230159  73.6031580  14.0377665  30.0388646
  94.7083092  44.5414209  92.2179127  95.5115795  44.7805548  91.7555046
  94.3699837  45.3709698  92.5549793  47.6208591   5.7848632  61.3939857
  48.5060167   5.6100118  61.0743713  47.1979761   6.2612474  60.6795216
  64.1050005   7.5671178  22.3115683  64.0033007   6.8374181  21.7004800
  63.2135677   7.8843600  22.4562716  45.3601217 109.7095966  28.2213759
  45.5453157 109.9762344  27.3209119  44.4048166 109.7156429  28.2812953
  68.7390995   0.9946688  45.9219027  68.7085581   0.4316804  46.6954279
  69.4660330   0.6499179  45.4033041  38.0993772  39.6798658  44.5189095
  38.3746529  40.5872011  44.6500349  37.2461891  39.7479725  44.0903473
  48.6905956  25.8434129  59.1673851  48.4961033  26.6040897  59.7148991
  49.3107939  25.3288245  59.6838951  74.3676567   7.8106439  42.4529696
  73.4728909   7.9794174  42.1577835  74.3999100   8.1722748  43.3386421
  72.3773241  30.4378867  70.8279276  71.7134666  30.6263137  71.4912701
  72.2472286  29.5138788  70.6145859  57.7839899  30.4814625  81.9046021
  57.8971434  31.2434483  82.4727631  58.2970190  29.7911525  82.3247242
  92.3873520  12.6007366  36.3846183  92.4942589  11.7740583  36.8551540
  91.4456463  12.6659822  36.2259841  85.1538467   4.3481293  59.2583561
  84.7866917   4.3554735  60.1423120  86.0815144   4.1496858  59.3859577
  45.2610445 100.5239201  49.2283916  45.3313923 101.4372826  49.5059681
  46.1661482 100.2458668  49.0880108  55.9358454  46.5156078  73.6247969
  56.6185427  45.9026766  73.8976908  55.3656149  46.5949821  74.3895006
  73.8482523  39.7095966  40.4902220  74.4001389  38.9430928  40.6455517
  74.3119240  40.4292965  40.9183264  62.1506786  18.1820810  48.8968468
  61.6411304  18.9470339  48.6295652  61.7877197  17.9381096  49.7483015
  79.2581606  11.7309296  20.7724237  78.4695959  12.2422600  20.5909348
  78.9867115  10.8210254  20.6515026  90.0175381   2.9994088  69.8655176
  90.1183319   2.0862201  70.1341391  89.8664379   2.9560405  68.9213133
  38.7219262  10.1392770  22.3503828  39.4868898   9.8746067  22.8612781
  39.0796566  10.4029238  21.5025902  29.7631454 104.2675114  38.3384204
  28.9721203 103.7286949  38.3518815  29.8034930 104.6556091  39.2124844
  86.6885185  76.4373398   1.2673166  85.7936287  76.1413336   1.1006331
  87.1571922  76.2533903   0.4532243  25.4698300  23.1854558  42.3203993
  25.4374886  23.6335206  43.1656361  26.3441777  22.7972221  42.2884226
  40.6056690 103.2440948  93.5330105  40.5580473 102.9378986  92.6273632
  41.5137148 103.5261917  93.6430359  56.1746550  15.9776449  27.3778224
  56.9984674  16.4576781  27.2933459  56.4384270  15.0605571  27.4527001
  84.5448494  25.4440379  54.3920660  84.9834633  26.0675764  54.9709034
  84.6642113  25.8070803  53.5144663  55.8687544  19.7585547  76.6076565
  55.3246164  19.0135670  76.8628788  55.9238815  20.2965879  77.3974133
  29.4603896  78.4790707  47.1691179  30.1336265  77.9649973  46.7233467
  29.1685009  79.1118288  46.5128756   9.2939395 108.6551857  60.9768486
   9.5135999 107.7889538  61.3198137   9.6282321 108.6495113  60.0799417
  42.2272778  25.2101660  10.3426480  42.5827312  26.0833001  10.5085492
  41.8109035  24.9603629  11.1675513  43.4404469  37.4308300  43.3160162
  43.2503653  37.7874184  44.1837406  43.8551140  36.5858173  43.4898996
  74.0284395  16.0646629  53.3721018  74.6203613  16.8137360  53.3031940
  73.8968277  15.9491765  54.3131542  95.8185673  19.2387438  44.0942574
  96.4502716  19.9142540  43.8475323  94.9932194  19.5294940  43.7063313
  63.2110834  24.8823738  47.1026945  63.2768774  25.6094360  47.7217913
  64.0219879  24.3888950  47.2257376  63.1795502   9.0512931  27.7891088
  63.0408669   9.0519083  28.7362099  62.6127005   9.7505450  27.4635863
  67.6620770  25.0146079  50.4511213  67.0903969  25.6164265  49.9744368
  68.3652020  24.8126316  49.8338318  66.6296053  24.5489478  70.1590061
  67.4577093  24.2359281  69.7950077  66.7544222  24.5089602  71.1071920
  95.5514240  16.2701654  50.5214262  95.1268673  15.6383646  51.1017799
  94.8281860  16.7633820  50.1342535  13.9048254  87.5043678  46.2103367
  14.2572248  87.9775906  45.4566097  12.9654396  87.6870441  46.1899996
  74.0090704  17.4421096  26.8312573  74.2408228  16.7976773  26.1625051
  73.0584240  17.3685753  26.9154954  83.9015675   2.0068318  42.5241947
  83.2613373   1.5667513  41.9650269  83.5406685   2.8832939  42.6576138
  61.5877151  27.8249979  66.5631676  61.9267607  28.4443974  67.2094059
  61.6402769  28.2945967  65.7307339  77.2656012  40.3264999  39.7749758
  77.0374346  39.5203114  40.2378321  78.1726360  40.4991007  40.0274134
  73.5644341   7.8627044  58.2552147  72.6581955   7.9598755  57.9627657
  73.8421392   8.7521863  58.4741545  86.0178566  13.0530787  44.2134428
  85.5314255  12.9981351  45.0359964  86.2275982  13.9824140  44.1208363
  34.3254948  12.2895932  22.9015279  33.5990834  12.0073867  22.3457241
  34.0148830  13.0978215  23.3095956  72.5928116  42.9609585  83.0859375
  72.0765829  42.2071695  82.8003883  72.5959921  42.9010296  84.0412521
  53.5376310  48.6474943  40.5021858  54.4891596  48.5584784  40.5561066
  53.3314133  48.4634876  39.5857525  77.7838993  37.8030920  41.3378668
  78.0441713  38.1615520  42.1863937  78.6105442  37.6251388  40.8892918
  85.1290798  11.3487875  42.2294235  85.4160500  11.8391001  41.4590502
  85.3023720  11.9359291  42.9652691  36.4882874 103.4554386  54.2297029
  36.5987730 102.6454067  53.7318373  36.0893679 103.1773186  55.0541687
  83.5034370  30.9743929  35.6284761  84.1732502  31.4742827  36.0950613
  83.8884830  30.8017778  34.7693038  91.1422825  -0.3268839  37.1198893
  91.8830490   0.1967745  36.8144727  90.7677364   0.1837667  37.8376508
  75.4880285  29.3074012  32.8864121  76.3255262  29.6520734  33.1962991
  75.1600409  29.9779344  32.2872090  13.6604202 100.3470421  27.5603175
  13.5083938 100.0310993  26.6696429  12.9965663  99.9035263  28.0883551
  76.6551399  20.0399733  60.5856991  76.4532852  19.1055322  60.6337309
  76.1409235  20.4326558  61.2911129  58.2143402  18.6831427  65.0513506
  58.8193417  18.2554030  65.6573582  57.4557638  18.1002665  65.0189400
  87.2394085  13.3899391  64.2797232  86.9644547  14.3006229  64.1734648
  86.7361355  13.0737960  65.0300550  52.4772501  18.0941045  17.1296382
  53.4213543  18.0675507  16.9741046  52.0940638  18.2024360  16.2591982
  43.9329433   5.6560230  46.5497160  44.7148418   5.1160651  46.6650867
  43.5556698   5.3574795  45.7222080  56.1419630  25.9329915  44.6284580
  55.8700085  26.7142415  44.1468811  57.0571947  25.8045411  44.3792915
  38.4796166  12.3803461  57.4048042  38.7555814  12.9234982  56.6665220
  38.6474895  11.4827693  57.1177387 114.8587418 104.6243095  16.8599153
 115.1766396 103.7436390  16.6609097 113.9141273 104.5182037  16.9725311
  86.8844986   7.4651217  65.4190493  86.6739941   8.3334917  65.0757551
  86.1620903   6.9099551  65.1255512  84.2516899 101.4332104  40.5273533
  84.4490433 100.9642410  41.3381290  85.0244522 101.9757938  40.3703260
  38.2071400  45.6472397  59.5152712  37.8765392  46.0241222  60.3306770
  38.4446502  44.7490263  59.7455597  93.5897732  12.2970295  40.1585436
  94.2374420  11.9109869  39.5688558  93.2514477  13.0539644  39.6801996
  15.5786943 110.4460716  30.4551291  14.8303223 110.9423256  30.1236105
  15.4361379 109.5553017  30.1350808  78.0065250  16.3085568  63.3982038
  78.4482431  15.5546498  63.7890244  78.6186075  16.6274512  62.7349567
  45.2080297 100.2396202  53.8948393  44.5079994  99.6590042  53.5963917
  45.3470850  99.9963570  54.8101091  14.9509621  96.9879436  66.2714624
  14.1574383  96.5138245  66.0229397  15.6647646  96.3836193  66.0677004
  71.7490673  27.0769191  49.0080261  72.2055387  26.9165635  48.1820965
  72.4403524  27.0648742  49.6700001  56.2585068 101.5415764  77.3704338
  55.4723454 101.0381126  77.5818825  56.0225964 102.0355320  76.5852022
  15.1745594 108.1548691  87.8885841  15.1417696 107.1983433  87.9032326
  14.2586732 108.4268379  87.9470253  60.5932379   6.0364020  32.0365858
  61.1488819   6.2227660  32.7933955  60.2545643   6.8916065  31.7717123
 112.4049664  27.0316887   6.7020082 112.2859764  27.1055770   7.6489049
 112.4046898  27.9363537   6.3892609  50.8241320  20.5839109  48.2451868
  50.3089142  19.8922586  47.8299761  50.3753138  21.3943195  48.0042934
  63.0159235   3.3700746  27.3510981  63.6807156   2.9198492  26.8299651
  62.7313995   4.0983304  26.7989016   6.6882622 111.3342392  17.9771304
   5.8974802 111.8505069  17.8210294   6.5501129 110.9387999  18.8378131
  96.6058159   7.4676925  52.7072001  96.9360161   6.5740770  52.6142025
  97.0823574   7.9691821  52.0456505  46.5942812   0.8473937  44.4827795
  46.9515371   1.5776563  43.9774895  45.7511997   1.1677607  44.8034239
  46.7915344  97.4516582  42.1871376  46.3240814  98.2363892  41.9009399
  46.9275808  97.5827694  43.1255054  54.9252510   3.9079419  45.5790854
  54.8232889   3.3532947  46.3525200  54.1096687   3.7916052  45.0917196
  49.1053724   8.8843369  44.7497797  48.7884474   9.1074371  45.6250000
  48.3205605   8.8914454  44.2018318  51.1725664  32.7078366  40.4580688
  52.0616007  33.0434775  40.5729246  50.6934500  33.4318089  40.0548983
  65.6718242   0.7459686  52.0544100  65.4774583  -0.1665451  52.2683382
  66.2607324   1.0351704  52.7513933  60.5032682   4.9377772  54.6158743
  61.0420132   4.7729850  53.8420391  59.6304607   5.1172709  54.2662668
  10.5900204  52.7419853  39.9665546  11.1023438  53.3831024  40.4592276
  10.9375393  52.7910233  39.0760183  66.7989254  10.1007748  18.1990731
  67.2469378  10.9441030  18.1334090  66.1800957  10.2138448  18.9205313
 111.8542957  14.5010781  62.2082233 111.7542267  15.4485881  62.3001099
 112.3957062  14.2439198  62.9545307   4.7008798 106.0654736  56.9795465
   4.1510162 106.5699959  57.5789976   4.1858932 106.0058403  56.1748981
  79.0868950  23.6219478  30.5132794  78.2624769  23.9574862  30.8653855
  78.8532257  22.7843118  30.1132822  53.6769676  21.9450545  56.0558462
  54.3028831  22.2231650  55.3871822  53.0129719  22.6344585  56.0639048
  79.1355467   9.4496369  62.3195744  78.7559986   8.6350691  61.9899464
  79.9605370   9.5397031  61.8425894  56.4946890  16.7462027  64.3838358
  56.5901804  15.8922946  64.8056793  55.7439756  16.6419208  63.7992096
  45.6108427  25.6257176  64.7824764  44.7059631  25.3327250  64.8900986
  45.5627823  26.3122582  64.1172028  83.9200497  17.4300611  25.9032869
  83.2733250  17.0895219  25.2852154  84.7627449  17.2815073  25.4743004
  99.6823978   5.1190412  22.1362972  99.1718292   4.7480300  21.4166403
 100.3484535   5.6551337  21.7059517  47.9463530  29.3922353  50.4589319
  47.0942068  29.6641517  50.7997227  48.5800743  29.7735333  51.0665846
  34.2147756   3.3377028  57.0319700  34.9380255   3.2285225  57.6493979
  33.7108946   4.0729421  57.3809052  72.6085329  13.6740553  42.5700045
  72.0436954  13.9761019  41.8586969  72.0431376  13.1165445  43.1045532
  30.2212596  24.2451525  13.1633067  29.7751236  25.0435257  12.8808308
  30.7494140  24.5185041  13.9133489  14.5000315 103.4104156  21.1613441
  14.9756205 103.2817078  20.3406835  14.2019641 104.3193150  21.1254239
  46.9664097  28.5755634  56.6684723  47.8434229  28.8766074  56.9060755
  46.3843727  29.0273809  57.2794771  11.0465336 106.4916420  30.6607437
  11.3985658 106.0782623  31.4490438  11.7130995 106.3373470  29.9913311
  57.8437853  18.2410073  60.9961176  57.9803181  17.5506258  61.6449356
  57.3727655  17.8098130  60.2830648  57.1772671  26.4349890  59.9624872
  56.8016815  25.6291509  60.3171587  56.6682053  27.1359396  60.3696156
  81.5842247  12.8988886  59.2245722  82.2978687  13.4408128  59.5611143
  82.0226192  12.1995664  58.7398148 117.1168613  84.1234779  94.2955875
 116.5171432  83.8818741  95.0014114 116.6312981  84.7658443  93.7780762
  43.4296751  10.3377569  44.0635729  43.8695526  10.2146184  43.2223988
  42.7944660   9.6231103  44.1085625  76.9406641   1.3880585  38.1788778
  77.8775657   1.5789268  38.2237649  76.7798841   1.1932514  37.2556067
  95.4376316  30.3243542  58.4961939  94.8916245  31.1091805  58.5425949
  96.0631371  30.4249811  59.2137241  51.0403299 106.7903042  40.3604460
  50.6698799 105.9783840  40.7065487  50.3478241 107.1532440  39.8082352
  89.4558144  14.2090249  39.5367265  90.3935337  14.0267611  39.5974374
  89.0507126  13.3480310  39.4327497  48.5105658  35.7210636  43.1455660
  48.6761999  35.6868744  42.2034264  47.6922464  36.2108779  43.2272625
  58.6975193  22.6990366  25.1332879  59.0693617  23.0773568  24.3365192
  58.4225893  23.4552264  25.6517696  62.8912449  14.3956029  37.5609589
  62.1392441  13.8511145  37.3280144  63.3962536  13.8581383  38.1711483
  45.5086851   2.9061490  41.3675737  45.1537228   2.0404172  41.1657333
  44.7893858   3.3646372  41.8018866  24.8510695 106.7961884  23.1508899
  25.7164264 106.8328285  22.7433991  24.4328165 107.6196003  22.8993320
  47.4908829  17.9743171  27.3878813  46.5740824  17.7224684  27.2770762
  47.7058029  17.7088416  28.2820654  71.7797184  20.7607460  49.5975256
  72.5496531  20.9771371  50.1234627  72.1364784  20.3668833  48.8013935
  47.6974106   5.1072872  14.4134176  47.1620083   4.7572201  15.1254785
  48.4962463   4.5803061  14.4330204  51.4968634  48.6789894  42.4560976
  52.0250320  48.5440922  41.6692877  51.7079544  47.9327202  43.0171251
  76.7746973  16.1413348  36.4283180  77.3768330  15.4881191  36.7846560
  77.1643877  16.3951254  35.5916786  55.5879021   6.3439178   5.8653140
  55.5020666   7.1765065   6.3297057  55.0234652   6.4383358   5.0980282
  62.3344278   4.1385239  50.5441952  62.4669075   4.4339865  49.6434259
  62.2508287   3.1875336  50.4744816  73.7132120   2.8723723  70.4028559
  73.1155872   2.5795740  71.0908604  74.1908646   3.6030641  70.7954979
  57.2095108 103.2941341  33.0390882  57.8932524 103.9482403  33.1835747
  56.4859533 103.7858009  32.6505566  46.9809103  34.5473266  85.4672146
  47.7456236  34.2804670  85.9773445  46.2543774  34.5141149  86.0895348
  82.7791691  39.2393470  16.9784534  83.5252094  39.6829486  17.3820245
  82.1916485  39.9483919  16.7170811  49.7558928 110.7509613   8.8783491
  50.3485632 110.4043961   9.5453340  48.9119959 110.8264732   9.3237323
  48.4977150  42.4650192  43.0014181  48.8595104  42.4063730  42.1171713
  49.1830778  42.1059084  43.5649300  28.4762049  32.9113770  40.6872320
  28.7734222  33.7324119  41.0793972  28.3659220  33.1156230  39.7586036
  69.0439939  30.1168466  33.2373953  69.0188074  30.3289771  32.3043370
  69.9767160  30.0648379  33.4461021  46.2265348  99.2243671  19.3909216
  46.6275358  98.3584213  19.3163407  46.0849237  99.5015049  18.4857285
 105.0625992  24.9778390  41.7255211 105.2440166  25.4735088  40.9270048
 104.6310234  24.1801643  41.4194298  34.9321485 106.6659737  30.0056100
  35.7104707 106.1791229  30.2765846  34.2744565 105.9913635  29.8365903
  73.0252314  10.8426309  46.8071270  72.6396418  11.5851486  47.2721195
  73.9601040  10.8948565  47.0059252   3.9104050  93.7251472   8.1353146
   3.6625353  94.1285133   7.3033988   4.7436365  93.2910728   7.9521680
  53.9267874   9.8268950  89.7418880  54.3818951  10.6592250  89.6140862
  53.9261532   9.6974266  90.6902981  69.8569155  15.9203196  37.7474928
  69.0601969  15.7971084  38.2635260  70.3896189  15.1490808  37.9415274
  61.5673399   7.4689877  55.3647232  61.7277384   6.5463012  55.1668501
  60.6141043   7.5413990  55.4129839  75.4921722  41.7036390  41.5307426
  75.8469248  41.6957188  42.4197435  76.1194420  41.1938715  41.0180044
  57.6484728  25.6322503  41.4231920  58.2853460  24.9972510  41.0954762
  56.8257856  25.1450086  41.4680815  76.3911676  36.3911939  38.5013652
  75.8852720  36.6261101  39.2792559  76.3869095  35.4340410  38.4929228
  59.5790863   8.7608415  25.0166464  58.7391710   8.5203719  25.4077387
  59.6253252   9.7119004  25.1145267  66.6467953  30.5737710  39.6755791
  67.5875330  30.4024434  39.6320772  66.3625622  30.1461196  40.4833889
 116.5569210  28.2919526  41.4054441 115.8922195  27.6111555  41.3009357
 116.2659550  29.0008402  40.8318090  81.6501904  29.0570617  34.2323875
  82.3157597  29.0083408  33.5461783  81.4338303  29.9876714  34.2905569
  98.1618977  54.6520948  54.5111561  98.3766842  55.5689812  54.6826887
  97.2086143  54.6414280  54.4253254 115.7991219  36.0590339  77.1295881
 115.6417561  37.0030808  77.1139479 115.6155491  35.7707763  76.2354708
 104.1409016  79.5394945  40.1691151 104.7518921  78.8035774  40.1322699
 103.3784389  79.2428780  39.6722245 116.9930553  68.7176418  58.9516401
 116.3370609  69.3329191  59.2792702 117.7650356  68.8793087  59.4939852
  96.5572262  64.5858097  32.7177858  95.8156204  64.4650221  32.1247745
  97.2948647  64.1767502  32.2652435  95.8759403  78.4393167  72.2301245
  95.7493401  79.3560839  71.9856977  95.4890060  78.3684731  73.1027603
  81.6281128  64.3378019  68.8428879  80.8757210  64.1967964  68.2682180
  82.1147251  65.0510597  68.4297180  83.1079197  68.2770109  46.3183880
  82.7355576  68.0530405  45.4654980  82.5478554  67.8259706  46.9501543
   7.5014687  73.3587360  25.1968193   8.3598822  73.7024403  25.4442549
   6.8894631  74.0604877  25.4186821 116.7376995  50.8307362  45.3921604
 117.3612118  51.4976549  45.6797218 117.1790123  49.9993563  45.5661631
   7.4872768  37.9305315  59.7271872   6.5728605  37.7910614  59.9734020
   7.9684496  37.8773570  60.5529451 106.0789204  60.0116301  46.9001245
 106.5975571  59.3198919  46.4893293 105.2147961  59.9354649  46.4954996
  89.5680046  58.5920238  48.8281155  90.0437450  59.3651152  48.5244226
  90.2056217  57.8804445  48.7704420  80.0060558  79.3720913  36.4014482
  79.1095209  79.0469503  36.4835429  79.9789524  80.2487373  36.7848301
  90.1602268  57.9090118  67.2813463  89.3950272  58.2869768  67.7147532
  89.8642445  57.0506144  66.9783926   7.8717858  94.1345692  37.4866700
   8.2659036  93.4425068  36.9556785   8.0724275  93.8874817  38.3893991
  64.0335417  82.9242134   7.7041298  64.1511774  82.2851849   8.4070033
  63.8289070  83.7426758   8.1563228  98.2902050  71.3126326  66.8720055
  98.3764458  71.0245371  67.7807426  97.3619175  71.1948109  66.6704655
 106.9097233  49.0936613  14.5974910 107.6857185  49.6464777  14.5055187
 106.6832161  48.8476849  13.7005961  99.2439175  75.8684111  28.9640069
  99.1478729  74.9830055  28.6132002  99.6290970  76.3701963  28.2456136
  96.2147427  75.2306366  42.0236158  95.3798485  74.8465586  42.2913074
  96.1353683  75.3395987  41.0759544  80.8404160  64.0561438  54.2143822
  80.4623795  63.6690807  53.4247637  80.0841427  64.3437433  54.7258234
  85.0847530  70.3321266  67.1850491  85.8080673  69.9800920  67.7038145
  84.7060108  71.0171127  67.7360296 109.2753315  55.3145313  42.1978283
 109.5731735  56.2221861  42.1371365 109.6773815  54.8797274  41.4458132
  23.7949657  56.1072397  33.2130957  23.1093264  56.6056824  32.7684760
  24.0008450  55.3927660  32.6102901  95.4924297  46.5588665  72.2070312
  95.4562473  47.1672916  71.4689684  96.2719727  46.8219042  72.6962757
  86.6304874  41.4999151  71.2938881  87.4974823  41.9035530  71.3343382
  86.6669464  40.9306526  70.5252314  80.4642010  75.1340485  37.3352051
  79.6317863  75.5265570  37.0720577  80.2152634  74.3482399  37.8217912
 112.4354744  87.6316833  40.9491396 112.8803349  86.9229984  41.4140081
 111.5221500  87.3495007  40.8998013  70.7409239  80.7664490  53.3816004
  70.4135132  81.3830090  54.0364981  71.6447020  81.0403824  53.2254791
 101.8754482  85.1179123  56.8445683 101.4494419  84.8140049  57.6460552
 101.1804867  85.5597305  56.3566637  74.8985910  75.9311867  62.1671009
  75.7843971  75.6255913  62.3625231  74.7675180  75.7115984  61.2446928
  75.3438425  70.0883532  42.5215483  75.3708601  70.5123663  41.6638088
  75.4644394  69.1577673  42.3326015  72.3321962  71.9429779  43.5410738
  72.1712208  72.7998590  43.1460142  72.6881838  71.4133692  42.8276157
  68.9624214  59.5888901  83.8638210  68.1655788  60.1016665  83.9992332
  69.1707706  59.2370129  84.7292709  99.8280907  57.1256351  48.0689478
 100.2263927  57.8608561  48.5348225 100.4402065  56.4009857  48.1971169
  84.3451881  87.8321648  26.7710471  84.7985458  87.0769310  26.3964415
  83.5045433  87.8577995  26.3140011 113.4155083  69.9106741  64.0773964
 114.0506172  70.6263781  64.0523005 113.3148956  69.7122765  65.0083876
  95.0895500  36.5776849  29.8852777  95.0234413  36.8630576  28.9740014
  94.4271564  35.8919191  29.9701548  90.0347424  53.6830044  17.7000391
  90.5005741  53.2242393  17.0009184  90.0962830  54.6080732  17.4619377
  97.8248405  49.0493679  16.9434154  98.2812405  49.8427725  16.6633523
  96.9613647  49.1130495  16.5352702  77.1371984  68.7286282  21.6474414
  77.5569391  69.0735769  22.4355125  76.2107229  68.6627674  21.8788147
 103.3811569  98.0772305  22.3611522 103.9822674  98.5312557  21.7705894
 103.2771111  98.6740208  23.1022620  98.6083698  75.9133577  47.8219557
  97.6911640  75.8199453  47.5646067  98.7732315  76.8554592  47.7832985
 109.0171051  32.0543504  34.5504999 108.3270073  32.5423074  34.9998188
 108.8667583  32.2275972  33.6211944  15.0714016  66.8070364  48.0233574
  15.6988883  67.4657345  47.7256918  14.2442751  67.0622730  47.6147652
  92.5964165  53.7240219  19.2179191  92.0649052  53.6074352  20.0054002
  92.8540516  52.8363180  18.9692497   4.8604318  57.2141075  51.2815285
   5.3414720  56.4082384  51.4696884   5.3450996  57.8963804  51.7461109
  98.7606907  76.2669277  42.0495224  97.9993057  75.7628345  42.3366070
  98.6479473  76.3528824  41.1028767 110.8841515  64.0007210  64.2186260
 110.4059792  63.5624743  63.5146904 110.5930042  63.5596275  65.0166893
  61.5992928  71.0379505  22.1955061  62.1520233  71.0627460  21.4144135
  61.5463638  70.1094627  22.4220896  64.0443707  81.3054657  63.7824917
  64.0919638  81.4710712  62.8409290  63.7987947  80.3828716  63.8512945
  64.4699526  67.9693651  45.6569290  63.6503077  67.8444052  46.1352634
  64.2954016  68.7058210  45.0709295  81.9519806  69.5530653  78.5199213
  82.7373409  69.9086380  78.9358568  82.0207691  68.6069250  78.6476660
 100.3783131 108.1694412  48.1269741 100.5798721 107.2776318  47.8436327
 100.0763226 108.0713654  49.0299797  79.0051985  39.1157532  11.3469875
  79.6998692  38.8139200  11.9322741  79.3331003  39.9421215  10.9922612
 105.2614307  48.2967329  77.2561693 105.3778458  48.6151314  76.3610125
 105.1330090  47.3530817  77.1599340 112.2267914  85.8758450  65.1092243
 112.8977108  86.4382839  64.7222424 111.6935444  85.5931473  64.3662786
  91.2652588  97.7524471  50.4789782  91.1652088  98.5358429  49.9381256
  91.3129234  98.0847549  51.3753796  84.3629360  81.9687176  59.7607899
  84.4115925  81.1323452  59.2978191  84.0382099  81.7416191  60.6321144
  92.3920059  64.4640398  44.9012852  92.6612854  65.2759647  44.4717503
  93.0841255  64.2895317  45.5390501   5.6415933  25.8649158  86.7597103
   4.8830748  26.0425997  86.2035561   5.7972181  24.9257684  86.6596413
 117.8596878  66.2673759  41.2515926 118.1142807  67.1031570  41.6425991
 117.6019287  65.7234049  41.9958305 105.7805347  75.4884958  36.9866705
 105.0232697  75.5306959  36.4027190 106.5259457  75.7102966  36.4286470
  99.6411324  41.5687180   9.3536830  98.8481712  41.7727757   8.8578975
  99.7937870  40.6382370   9.1889602  35.9177732  28.7937713  92.5010777
  36.8006301  28.4305644  92.4312401  35.3678012  28.0442858  92.7291965
  85.1334190  62.5965834  32.9404068  85.1654625  63.1994200  32.1975780
  86.0214329  62.6090765  33.2974863  36.1701298   0.3780586  74.1403008
  37.0402336   0.2525419  73.7616205  35.8698201  -0.5065487  74.3489075
  65.3137922  64.2008495  69.7532415  65.7428837  63.7891388  69.0031719
  65.2113581  65.1174593  69.4971752  95.5803299  80.4108524  21.9363999
  95.8852482  81.1738491  21.4453816  94.6273804  80.4999161  21.9499350
  65.2294016  86.0120010  30.7342625  66.1451006  85.9387302  31.0032582
  64.8805809  86.7284775  31.2645578  91.3348675  81.8921947  44.9457359
  91.8492222  81.4821911  45.6411314  90.7440567  82.4890900  45.4049778
 101.0137177  78.2915401  31.4439964 101.4672375  79.1337872  31.4780951
 100.2556324  78.4503078  30.8815527  87.9512024  61.5008068  41.2827682
  88.6313057  61.1765671  41.8731642  87.3065186  61.9085360  41.8610191
 118.2021347  84.6545315  26.6015458 118.0618784  85.0295067  25.7320881
 118.2068314  83.7084103  26.4564347 108.9235020  35.5840731  59.3544579
 108.5574436  35.2462006  58.5370970 108.8135529  34.8680782  59.9801540
  83.0889130  99.6186924   5.1395112  83.8652897  99.2411232   5.5529284
  82.3639488  99.0774250   5.4520726  86.0499382  74.5499277  41.1283207
  85.6859970  73.6648369  41.1480474  85.7210636  74.9619961  41.9272423
  89.9884987  66.1656427  52.9179573  90.6879902  65.5779552  53.2035446
  90.4416561  66.9654369  52.6510954  88.9972210  68.0777216  85.9766674
  88.6625767  67.5125217  86.6729355  88.2470703  68.2147741  85.3981113
  63.4451580  60.5244732  57.9453707  62.6371622  60.6439257  58.4444714
  64.1179609  60.3779745  58.6102867  80.3785706  65.5423927  59.4645691
  81.1996555  65.3226757  59.0243721  79.7770500  64.8415279  59.2132139
   5.7027799  87.3243427  44.3501759   6.0237420  88.1398869  44.7350121
   5.1253927  86.9551373  45.0184155 104.5539093 103.0742550  44.2821169
 104.1059685 103.8556290  43.9580250 103.9222336 102.3662758  44.1556835
 108.5206223  52.8487778  81.3137245 107.9294682  53.0359316  80.5845165
 108.5307121  51.8935776  81.3747883  74.4534063  96.7701912  14.9496138
  74.9725676  96.8503571  14.1494381  74.4807482  97.6431561  15.3413129
 105.9743690  73.7814760  10.3785658 106.7863846  74.0152597  10.8282292
 105.3288174  73.6941004  11.0798991 115.0564003  72.8176069  57.4043989
 114.2972279  72.5743389  56.8745804 115.7265377  73.0603123  56.7654514
 117.3460960  25.8824873   6.7673624 116.6248131  26.2674427   6.2695718
 118.1152534  26.0100102   6.2120545  59.3362141  55.7671165  49.2226076
  60.1442909  56.2801266  49.2304993  59.6094322  54.8942041  48.9404631
  73.7360287  74.6711540  26.3433766  73.3642960  75.1677608  25.6143880
  73.3243608  73.8092756  26.2806559  88.5545063  72.4902821  39.8325157
  88.9194489  73.3662748  39.7072864  88.8299942  72.2398663  40.7143497
  79.2333126  81.6659164  37.8958583  78.2920313  81.6696453  38.0696440
  79.3584347  82.3514557  37.2396469 106.3171101  74.3863153  68.3950329
 105.6100750  74.7685194  68.9148903 105.8748341  73.7897921  67.7910614
 104.2310143  58.2868528  52.7592325 104.7130775  58.4392977  53.5720110
 104.4058514  57.3703814  52.5453615 101.5053177  66.1612225  28.7598538
 100.6076431  66.2618589  28.4431791 101.9606495  65.7092857  28.0494642
  86.6765308  68.9986944  27.0822811  87.3468113  68.5900593  26.5345836
  86.4600086  69.8130846  26.6282773  73.5157299  48.6159325   2.3880734
  73.3825731  47.7420759   2.7553281  74.2509985  48.5123825   1.7840162
  85.9272861  92.2609138  68.2333708  85.3301430  91.5225410  68.1131458
  85.4283237  92.8901005  68.7543297  81.3567066  95.4526997  17.9171503
  80.8523655  96.2598133  18.0193198  80.7144547  94.8036957  17.6298547
   8.8893634  93.5481930  15.2468753   8.7865549  92.7233887  15.7215965
   9.3729442  94.1128922  15.8497894 108.4342766  68.7187719  37.9854178
 108.3172607  69.5768690  37.5777292 108.2532692  68.8678360  38.9134526
  90.8732510  62.8494978  42.4337339  90.3321266  62.2083282  42.8945208
  91.1022568  63.4946108  43.1027794  78.2751894  45.9387255  78.9406872
  77.9474640  46.4158726  79.7030210  78.7933350  46.5835667  78.4590912
  69.5792389  90.7107162  51.8231201  69.1831684  91.3106060  51.1910677
  68.8472033  90.4160595  52.3649073  97.2113991 102.5546932  19.2438912
  96.4774323 102.5054550  18.6314380  97.5215626 101.6522598  19.3190646
   7.4107760  81.3968468  17.6046550   7.6793367  80.5365372  17.2821915
   7.3122460  81.2784672  18.5493827  63.5050774  81.4481544  54.2914963
  63.5496950  82.2561741  54.8027182  63.8446188  80.7735825  54.8796225
  84.7542381  82.5051689  36.2246895  85.4993820  81.9509792  35.9925938
  83.9944935  82.0487022  35.8632374  98.9301300  88.4069347  41.4542627
  98.6600494  87.4901962  41.5078735  99.3275166  88.5897350  42.3056793
 111.7270947  55.6566381  35.5261135 112.6819706  55.6943941  35.4710698
 111.4761448  56.4954185  35.9130239 101.8848991  61.2328529  29.0487528
 102.6575947  60.7600069  28.7395740 101.2040520  60.5631113  29.1130018
  89.3981361  55.9264088  47.0677710  90.3499699  56.0212803  47.0326090
  89.2485809  54.9836922  46.9960213   7.4217564  45.4580832  63.0517817
   7.7905828  46.1395788  62.4898481   6.9888860  45.9380913  63.7577915
 102.0297527  72.6012707  50.4449272 102.6319408  71.8572903  50.4347610
 101.6614437  72.5992346  51.3284254  81.4446449  74.4560337  56.5404463
  81.6242027  74.6306324  57.4642992  80.7201481  73.8305616  56.5513086
  79.5619726  78.8833666  33.5510206  79.4940186  78.4411812  34.3972397
  80.1550484  78.3326387  33.0399466 111.9920731  41.2842751  72.5227690
 111.2889862  41.1109972  71.8967772 111.7006779  40.8649254  73.3323765
  88.5907841  92.9952145  41.3923311  87.7319622  92.6777554  41.1132669
  89.1139793  92.2017956  41.5063143  63.6862326  83.1295872  50.1757336
  63.9770794  82.5931358  49.4382715  63.2397938  82.5147057  50.7578325
  83.5182095  81.3020039  50.5307055  84.3107224  80.9006214  50.8871412
  83.7647533  82.2117043  50.3637218 114.3758965 109.7154140  49.0252066
 114.8565006 110.4002476  49.4902325 114.0720081 109.1254902  49.7150421
 113.3885384  25.9402704  43.5231972 113.5442162  25.8543038  42.5826645
 112.7129173  26.6146851  43.5934830   6.8012321  72.4859762  37.5503850
   7.2778440  73.1133699  37.0068312   7.3086524  72.4369812  38.3605433
 106.7837429  66.7434454  59.6259832 107.0201111  67.3107100  58.8921070
 107.5548935  66.7515135  60.1929903 117.9754543  46.5553999  56.9425297
 117.0995712  46.2019968  56.7870855 118.4386349  45.8544302  57.4011517
 100.8092976  67.6779747  21.2978101 100.3256798  68.4168291  21.6671848
 101.7167950  67.8297520  21.5617132   9.9193579 110.7182217   8.6546028
  10.4491436 110.4604149   7.9002208   9.6835822 111.6296291   8.4814513
  59.5672464  79.5074844  28.0243492  59.9865294  79.5956326  28.8803077
  58.6341667  79.4264936  28.2219100  11.5292835  95.1093388  50.1813745
  12.0417345  94.4094276  50.5860424  11.9484937  95.9164238  50.4798889
  95.8059978  81.0805893  71.2002516  95.9473038  81.6756248  70.4639149
  96.3447285  81.4397621  71.9052362  83.8537502  79.6608591  67.1115065
  83.5672283  78.9887333  67.7298737  84.8079872  79.5862293  67.1017933
 104.3082619  72.5349617  53.2293463 104.1421032  71.6267872  52.9766798
 105.0263023  72.4805737  53.8599777  91.1870861  69.6140242  33.3685589
  92.1336269  69.5244408  33.2578135  91.0851955  70.3488064  33.9734936
 116.5387535  40.0190258  24.1393518 116.6065979  40.9661579  24.2600369
 117.1555328  39.6520829  24.7727299 101.4185810  52.4333191  83.3600712
 101.0648632  52.8579664  82.5785446 101.9474888  51.7109108  83.0215168
  72.0734787  77.7396536  76.7316341  72.7766609  78.3876753  76.7743540
  72.3062229  77.1822596  75.9890842  62.7394533  75.7989597  60.3532982
  62.3547077  76.4507914  60.9392309  62.6500654  74.9707127  60.8247232
  28.6850214  37.1947145  55.9962082  28.8260102  38.1414723  55.9951258
  29.1397715  36.8857384  56.7797709  99.5888996  52.3190641  20.9211493
  99.5745564  52.8350210  20.1150393  98.7558651  52.5188065  21.3482261
 105.1130772  81.1458778  69.3513060 105.5293274  81.7057323  70.0066900
 104.1763401  81.2187195  69.5342159  81.4554405  67.0585632  56.8004990
  82.0104313  66.6159725  56.1583710  80.5748653  66.7268038  56.6251183
  84.8146820  66.7714691  35.8981204  84.5777702  66.4828682  36.7794895
  84.5703125  66.0389757  35.3324604  92.3316765  61.7029285  48.2600212
  91.4238358  61.4965677  48.0376244  92.6701260  62.1567583  47.4881935
 104.1059017  35.8992290  58.5855436 104.7291660  35.8367658  57.8617573
 103.3257294  36.2943339  58.1963730 114.4185543  52.7221727  39.2586899
 113.6303997  52.2273254  39.4826698 114.5156193  52.6032352  38.3138824
 101.7499352  92.4852753  40.9739447 102.2203064  91.7785358  40.5317926
 100.8301449  92.3333263  40.7568455  87.9063988  58.0812454  25.0818276
  88.0786991  57.4545479  25.7845330  87.6746559  57.5383997  24.3282700
  15.5088735  85.1343346  27.3696208  16.4228523  85.3985882  27.2645402
  15.5136788  84.5523262  28.1295443  92.3923969  94.6900082  60.6196499
  91.9412327  94.4435215  59.8122263  92.0865822  95.5782509  60.8033085
 113.4839344  94.9453640  41.9077635 114.0784740  94.7929192  41.1732483
 112.9878330  94.1306400  41.9874287  87.5452232  82.4370670  53.2875824
  87.3125648  82.2317314  54.1930914  88.1213665  81.7210197  53.0200624
 104.7424030  61.0473347  57.6435518 104.5226765  61.9566965  57.8460693
 104.0353203  60.5365801  58.0377436  70.1092529  57.3699617  52.7119541
  70.2337742  57.2189045  53.6489201  69.9999428  58.3177519  52.6346016
  64.5110178  65.7833099  94.8967648  65.3422546  65.5124569  94.5069981
  64.5888615  65.5408335  95.8194637  93.7770939  72.6619005  37.6198959
  93.6435699  72.8579235  36.6925478  92.9655075  72.2345591  37.8936434
  62.2645330  68.7804222  54.6810532  61.4674330  68.9973307  54.1975069
  62.0742083  69.0361118  55.5836201  92.5763893  57.9571915  52.4824333
  92.8739929  58.0624676  51.5787840  92.2330570  58.8176155  52.7233076
  92.4304962  56.9889832  73.1015778  92.1288300  56.1830521  73.5207558
  92.2586155  57.6738882  73.7477922  75.4252958  66.4488029  46.8518448
  75.4962540  67.2265244  46.2983656  74.5182848  66.1616945  46.7463589
  81.0489082  24.0168977  19.1805387  80.2248573  24.0153456  19.6675324
  80.8103752  23.7118459  18.3051658  17.9928172  43.6293173  52.8560400
  18.1321025  42.6911306  52.7270412  17.8065872  43.7175035  53.7907982
 110.6005573  49.3463945  59.4625998 111.3535690  49.7595835  59.0401506
 110.3309727  49.9711466  60.1358366   1.2579057  79.0766430  63.4410000
   1.8196641  78.9279079  64.2016172   0.7263179  79.8357391  63.6806345
 113.2800770  70.4108286  71.5558004 113.2945251  70.7699680  70.6686449
 113.4246063  71.1681080  72.1231365 106.9825077  53.7904072  53.5975647
 106.3347054  53.2786322  54.0819883 107.8082275  53.6233330  54.0520000
  10.3533304  67.5479603  33.4326148  10.9824014  68.1495047  33.8309193
   9.5875299  68.0911255  33.2461882 101.8670559  50.4188633  50.8378983
 101.6713428  51.3427687  50.6819391 101.5700150  50.2590084  51.7336893
 111.0079670  68.0116367  62.2633266 110.4904556  67.5783205  62.9420424
 111.8153763  67.4998426  62.2144413  19.2236495  76.2562227  26.5179586
  18.8879848  76.9715881  25.9777617  20.1346111  76.4938211  26.6909599
 101.6759205  68.5347509  52.5723219 100.8153248  68.2102489  52.3071527
 101.5153122  68.9932251  53.3970881  67.1705866  57.2381687  48.7374640
  67.6086903  57.2660351  47.8868628  67.7011728  56.6372919  49.2605877
   9.3466079  46.9109964  64.7155762   9.3283445  45.9594107  64.8174858
   8.8620973  47.2422028  65.4717350   2.5056764  97.7100372  42.7288532
   1.7384496  97.1918583  42.4857664   2.6786992  98.2560635  41.9619465
 100.6507969  40.2410555  66.8352747 100.8910465  39.6246004  66.1435413
 101.0167503  41.0776663  66.5482426 110.2853107  66.8574953  41.3873911
 110.1287746  66.1309862  40.7841396 109.4886303  66.9059801  41.9157696
  61.1757803  35.2885032  93.4350872  61.4479971  35.0100827  94.3095112
  61.7640495  34.8220944  92.8412628 105.0614262  55.8186769  52.1827841
 105.6794167  55.3280115  52.7246094 104.8104954  55.2062511  51.4912701
 117.0715904  71.1998701  37.7035880 117.7371120  70.5509138  37.4752021
 117.5124073  72.0427895  37.5968266 106.0056400  50.8083153  33.5745525
 105.7181263  51.7177153  33.4935832 106.9614601  50.8591270  33.5826278
 111.0396004  59.5092058  24.7656822 110.4373264  60.1269436  25.1802802
 111.7636490  59.4274044  25.3864074  94.5237064 104.7271919  31.7443228
  95.2038670 104.0929890  31.9710350  94.6057701 105.4134369  32.4065638
  91.7508125  58.9728117  71.0236931  91.1126328  59.5195913  71.4819336
  92.0911217  58.3852673  71.6983938 102.0165539  37.5887322  20.5180979
 102.9592609  37.4609423  20.4121876 101.9285011  38.4990597  20.8005500
  55.8985043  87.4020863  30.0942850  56.2345314  87.5687504  29.2136383
  56.6111469  86.9439793  30.5398369  92.9050922  79.8656225  49.9606943
  92.0640564  79.4664860  49.7380114  93.4250355  79.7908640  49.1605043
  88.9862823  82.8540707  40.6320763  88.6763096  83.4517479  39.9516845
  88.9297390  83.3623028  41.4412355  89.8183441  76.1537743  39.4533372
  89.6177864  76.0335064  40.3815317  89.5758247  77.0617294  39.2715812
  43.9840698  96.5992737  66.6225195  44.4243050  97.2097874  66.0311651
  43.0935287  96.9414520  66.7005014  97.3866272  60.6345177  56.7059898
  96.4400578  60.6510878  56.8472862  97.5426960  61.3133049  56.0493851
   6.4880651  61.8318605  32.1404910   5.7613343  62.2858095  31.7138505
   6.5326858  62.2196674  33.0144763  98.5115242  94.4969463  59.8023987
  98.2046032  95.1959133  59.2249155  98.4983444  93.7114048  59.2556095
  99.5895672  83.2930374  73.2738924  99.0842628  83.5503387  74.0450621
 100.3365326  82.8099155  73.6272478   6.6055685  59.7360182  71.9682741
   6.0339594  59.1781569  71.4407492   7.2763616  59.1417027  72.3045111
  89.7343826  83.7991333  49.3195009  90.5684757  83.3507252  49.4589567
  89.5062065  84.1532898  50.1789999  28.2188773  93.2134914  33.1102014
  27.6278853  93.5973072  33.7579989  28.0696845  92.2704887  33.1789064
  10.4694152  75.8262873  91.9224930   9.7082925  75.3545189  92.2606659
  11.2184203  75.4086256  92.3476791 116.9299603  37.5601912  63.3462048
 117.0992184  38.4920812  63.4846401 117.6909828  37.2487426  62.8562164
  86.1008835  75.7970667  75.6825066  85.7283401  75.1471090  75.0866795
  86.8925285  75.3820705  76.0250092  73.1746340  24.3433571  67.7234888
  73.2215786  24.3854308  66.7683649  72.6052523  25.0730205  67.9676771
 100.4718113  30.7006025  43.2737589 100.7425976  30.3659940  42.4188042
 100.2637768  29.9170542  43.7826872 115.2005196  56.5108824   6.7322958
 115.6061935  56.5908146   7.5955874 115.7504463  55.8808041   6.2666541
  54.3121099  97.2626019  35.6884551  54.9738646  96.5930462  35.5152416
  54.5272684  97.5919151  36.5610909  99.0233994  54.9970293  43.9169550
  98.3823109  54.8664999  44.6156693  98.7241268  55.7837677  43.4612131
  85.1060581  38.9885092  21.1979747  84.2116070  39.3282104  21.1698031
  85.5499744  39.5361686  21.8454599  67.4913025  78.9321613  65.6448460
  68.3886623  78.6047888  65.7065010  66.9837475  78.1826162  65.3337145
  94.0305996  24.2353725  34.2652321  94.0435314  24.5365214  35.1737332
  93.2188892  23.7335539  34.1907787  55.8668470  46.3682461  96.0191250
  55.7177544  46.6289663  95.1102638  56.7689896  46.0485411  96.0316753
  32.8098297  93.4862995  91.5395832  33.6242843  93.3794212  91.0481739
  32.9863358  93.0784512  92.3873615 101.6732216  27.4455428  37.0725799
 101.7712402  27.4735379  36.1208224 100.7286549  27.3828316  37.2143412
 111.4382267  23.1021643  71.3394928 112.3246574  22.8141809  71.5575123
 111.0316181  23.2875252  72.1859837   3.3238527  81.7910194   6.0604388
   3.7000448  81.7261887   5.1826525   2.7651533  81.0177994   6.1392862
  13.6000454  46.8456745  47.2732401  13.6818707  46.5651798  46.3617229
  14.2251945  46.2989092  47.7491283  17.9801941  59.7133732  60.6409597
  18.2967079  59.2509174  61.4169645  17.0269477  59.7010660  60.7269955
 100.5493736  74.6987534  46.2335014  99.8106194  74.8141479  46.8311310
 100.6246185  75.5387259  45.7807112  91.1093521  71.3435602  35.4595160
  91.0746384  71.0946608  36.3831353  90.3958035  71.9728041  35.3540444
  78.9423370  67.0958185  39.5060158  78.6482525  68.0030584  39.5876265
  79.1520786  66.9946289  38.5775757 111.8443203  36.6386080  31.4074206
 111.7189980  36.1480975  30.5950594 111.2560463  37.3894072  31.3270497
  25.0323653  38.8858247  71.1368942  25.4827118  39.7209263  71.0103130
  24.9427962  38.5258460  70.2544975   5.7649797  38.8963556  48.2890892
   5.6631768  39.3682051  47.4625158   6.7072463  38.9080954  48.4571028
 110.1988125  69.3734026  56.3811350 109.8231316  70.1335430  56.8253040
 111.1421680  69.4566870  56.5203476 107.9146290  69.4013119  59.9690866
 108.8208675  69.3084526  59.6752453 107.9851532  69.6128225  60.8999586
  83.8222218  63.6644554  37.4871159  82.9217911  63.4529829  37.7335596
  84.0261555  64.4576550  37.9825759  92.7721596  52.3572731  95.2393436
  92.8288937  51.4456415  95.5255985  92.7577972  52.8630114  96.0519028
  62.5003862  75.4015589  12.0104396  61.5860510  75.1433325  12.1268070
  62.9995871  74.7335291  12.4802971  87.9790401  62.6751852  16.3698125
  88.8584995  62.4804544  16.0459912  87.9958057  63.6133146  16.5591979
 116.8833542  58.2789135  49.5997858 116.5202808  58.7455082  50.3525782
 116.1750031  57.7041006  49.3098736   2.9542413  48.5973978  32.2003174
   3.6695048  48.7685585  32.8129625   3.2898885  47.9085493  31.6266823
 113.3324337  66.2940836  38.4914422 113.9166546  66.3137197  39.2494249
 113.1488419  65.3646803  38.3545637 117.6325989  38.2567549  14.6832466
 117.4930286  38.6474729  15.5458546 116.8324280  38.4566712  14.1974533
  95.3218269  79.5291042  40.1985788  96.0407829  78.9168739  40.0420427
  95.1662922  79.9385357  39.3474579 108.2243252   5.5511981  66.1611223
 107.7472401   5.6360453  65.3356409 108.8658905   6.2612832  66.1410427
  97.0671177  67.9839039  38.5169315  96.2427998  67.4975681  38.5311747
  96.8399143  68.8503122  38.8544965  23.1600118  17.9757547   8.2540977
  24.0845990  18.2061744   8.3450633  23.1617475  17.0287120   8.1150335
 105.4045868  66.3981199  42.2423887 105.6672764  67.1699190  42.7439356
 105.1274109  65.7650375  42.9046679   0.1580757  93.1449699  33.1911254
  -0.4844202  93.7741947  32.8632474   0.5362015  93.5683250  33.9618540
 102.4904156  61.1947060  55.4665995 102.1403885  62.0363045  55.7588768
 103.3343697  61.1186934  55.9117889   2.3743686  62.2904253  58.1921005
   2.0998317  62.1768379  59.1020203   1.9275436  61.5892649  57.7178049
  62.5691652  70.8293056  76.9335079  63.1777859  70.1137304  76.7497730
  62.5213385  71.3197279  76.1128807  90.2851391  68.5671377  58.8960934
  89.7540760  69.2690611  58.5199213  90.3835583  67.9339218  58.1850481
  88.1204700  69.8045826  70.7630920  88.6771488  69.3550158  71.3988829
  87.7683830  69.1033173  70.2149200  98.6599255  40.2242041  23.2140660
  98.7286568  41.0136032  22.6770759  98.1710339  40.5030298  23.9883208
 101.0257053  82.4167156  48.5501194 101.3677216  82.9244614  49.2859507
 101.2026882  82.9594612  47.7817822  84.6016693  63.0671120  63.9235258
  84.7105217  62.1258402  63.7878990  83.7038803  63.2470512  63.6445379
  86.9009495  37.3924828  72.1547365  86.5874100  37.8298926  71.3631582
  87.8468132  37.3176503  72.0283604   2.4218878  77.0113134  54.1120195
   1.9484337  76.9878340  54.9435949   1.8812986  76.4952421  53.5139704
 101.7078781 102.2309494  88.2838249 102.4593258 102.7513027  88.5680771
 100.9460163 102.7263832  88.5843945  97.5633240 107.2826385  26.6397667
  97.8022766 106.5426350  27.1979165  97.8919125 108.0508327  27.1068215
   2.1061499 110.9753895  31.8840742   1.9912641 110.1244259  31.4611220
   2.5332189 110.7733822  32.7165627  95.1400757  86.6435051  54.4593430
  95.3667259  85.7602882  54.7505522  94.3757439  86.5212727  53.8962364
  70.7346249  78.7970638  45.5140924  70.5097389  78.1656551  46.1974573
  71.4616156  79.2994165  45.8820057  96.8535423  47.2404480   7.1436352
  96.2868214  47.8747559   6.7046463  97.7309418  47.6173544   7.0777893
   8.4429115  92.9436970  22.8077412   9.2289585  92.7404976  23.3147645
   8.3550179  93.8946247  22.8729343  98.4682083  96.2262726  22.7037811
  99.0499306  96.9787788  22.8112793  97.8398037  96.3048649  23.4215355
  16.6551185  78.2511473  54.5133162  15.8159673  78.6873245  54.3656397
  17.2724593  78.9659214  54.6689510 113.1563568  85.6119823  42.7325153
 113.1642246  84.8997498  42.0930767 114.0707779  85.7036495  43.0002022
  85.0764275  99.2288780  32.0022726  84.4136810  99.0685940  31.3304830
  85.6855488  99.8451614  31.5955782  19.4023395  98.5026360  53.5766459
  19.5339191  98.7276077  54.4976807  19.5199573  99.3294811  53.1089640
 107.6544952  64.8070908  36.8374777 107.5498581  64.8515654  37.7879024
 107.8774452  63.8926029  36.6635942 111.3511848  97.5023746  49.8725367
 110.8869171  96.9838238  50.5296516 112.0898724  96.9524097  49.6115446
  26.6274023 100.5124187  33.1940413  26.8902612  99.6378231  33.4807634
  26.8504715 101.0827637  33.9296889   2.6856413  94.1565418  50.3302622
   3.4685197  94.5300198  50.7350445   2.2447550  93.6942673  51.0431147
 115.4738903  92.7147675  31.1126566 114.6970272  92.8924274  30.5824208
 115.5033970  91.7605400  31.1820769  11.0625768   6.9940621  11.1072648
  10.1948810   6.9388086  10.7069099  10.8889699   7.0730472  12.0452702
 113.5978413  91.9079590  47.2715855 113.6822128  91.0646534  46.8266726
 113.2333183  92.4935055  46.6078854  88.6650181  60.0923491  33.1484413
  88.0404377  60.2790737  33.8493466  89.4068241  60.6698656  33.3285260
   7.9792780  97.2354603  49.7264433   7.1981072  97.7880383  49.7005939
   8.7076670  97.8532505  49.7898149  26.3417482   5.4708838  23.3239937
  26.7979527   4.6523660  23.1287074  27.0013046   6.0163224  23.7526131
  82.6264095  66.0621023  13.4126174  83.3796215  65.4724836  13.4481466
  83.0097866  66.9367504  13.3474326  51.9975710   6.7151338  86.3470268
  52.7751875   7.2612172  86.4625263  51.3163996   7.3251522  86.0639858
 103.4852695 109.6078491  39.4132185 104.0648937 109.1898632  40.0500488
 102.6249123 109.2251015  39.5850801  78.4035301  72.4114418  74.5491648
  78.8895702  72.0297337  75.2801228  77.7302170  71.7626286  74.3444157
  17.1581161  94.7651577  33.1880879  16.2050641  94.8334980  33.1310391
  17.4761379  95.6303978  32.9303074  93.9118195 109.5011616  37.7671313
  94.0488243 108.5879421  37.5151420  92.9915142 109.6698761  37.5651360
 107.2987747  79.7307968  40.1406860 106.7316818  79.1779327  39.6031237
 108.1860065  79.4385862  39.9317336 111.6469574  67.2877073  66.8781519
 112.5837231  67.4844313  66.8807364 111.3238144  67.6502466  67.7029991
 111.1728573  52.4300861  65.3447294 110.8138943  53.0617952  65.9678745
 110.4375839  51.8530750  65.1381969  51.6030264   7.3900789  35.3738570
  51.8478727   7.7698475  34.5300221  51.3403225   6.4934576  35.1657963
 111.3059711  93.2312870  61.6611528 112.2220325  93.3761597  61.8979502
 110.8080578  93.6765194  62.3467731 101.3903618  96.4926052  24.8577476
 100.7674885  95.8402729  24.5372367 101.0922909  97.3172569  24.4739032
  86.2753677  83.1968975  91.5697289  87.1579552  83.5627937  91.6279697
  85.7162762  83.9495945  91.3771248  85.2028942  59.1518211  25.6641793
  84.6851826  58.6387444  25.0437307  86.0731125  58.7541056  25.6364441
  75.0695658  57.1686935  72.0212078  75.2778959  56.2844467  72.3227692
  74.4811583  57.5176620  72.6907063  61.6692257  49.2394352  67.4865818
  61.4031029  49.0158606  68.3784485  60.8567810  49.2152357  66.9810343
  72.4356794  91.6917992  66.5942574  71.9833660  91.5870571  67.4313164
  72.1284437  90.9576035  66.0624790  30.1166892  88.1772518  62.8426170
  30.6888485  88.8520050  63.2080936  29.2734957  88.6152363  62.7267408
 102.7954960  84.9526024  76.9818735 102.7694702  85.7716179  77.4766207
 102.1489525  85.0723457  76.2862635  75.5573845  72.8772736  53.9954472
  75.0574684  73.2319212  53.2602310  76.2750435  72.3938942  53.5861254
 104.6392727  53.3357573  33.0453897 105.0639343  53.8730192  33.7141562
 104.0449715  53.9372253  32.5967646   1.9468503  82.9328346  77.2726870
   1.1740709  83.4284210  77.0016909   2.6478806  83.2529068  76.7049360
   6.7399734  82.7147770  37.0236778   7.6844436  82.8696823  37.0382690
   6.6373253  81.8280602  37.3692465  42.9455423   8.2262295  47.1162462
  42.4918127   8.1059563  46.2820435  43.4198952   7.4058819  47.2513437
  14.2110360  64.8098326  26.1769009  13.4391022  65.0741243  25.6764007
  14.8738778  64.6206665  25.5127549 101.7333603  40.2074194  56.6245842
 101.5952396  41.0406590  56.1741781 101.6350746  40.4179192  57.5531626
  81.3273525  78.8483810  58.3399916  81.5970516  78.3624697  57.5606441
  80.6818676  78.2825565  58.7635708   2.1643661 101.8939877  55.5565548
   1.6083896 102.0748901  56.3144445   1.6940123 102.2789955  54.8171186
  87.7476120  64.0796852  20.0168133  87.6421356  63.1311941  19.9428153
  86.8945217  64.4356489  19.7683072   9.7168297   5.2638400  44.1080952
   8.8747853   4.8730621  44.3415165   9.9589860   4.8376295  43.2859421
   3.4118244  65.7639980  43.1725407   2.4990132  65.4856300  43.0982637
   3.5558730  66.3196230  42.4065399 107.5473022  87.9482079  47.2716045
 107.3084736  88.8732910  47.2131014 108.5022354  87.9510784  47.3374414
  86.9047356  76.0108280  38.7947464  86.6520405  75.2956724  39.3786359
  87.8002262  76.2271643  39.0546250  48.3424520  74.4457817  48.5411263
  47.5930262  73.8740015  48.7074327  48.1653690  75.2299595  49.0606833
  93.6784363  85.9629440  31.2032366  93.3228779  85.8848286  32.0885110
  93.1008244  86.5896988  30.7675886   3.5782364  67.5790215  73.6982489
   3.8607943  66.6678286  73.6200047   2.7262878  67.5292110  74.1317606
 102.3876953  78.1402969   5.7812279 103.1997395  78.1071949   5.2755362
 102.0903015  77.2311544   5.8165354  13.7903643  64.6983194  49.3455315
  14.0483403  65.6094027  49.2054987  13.4557509  64.4108677  48.4960365
  80.2162647  97.9941654  18.7019634  79.5949221  98.6580467  19.0010142
  81.0745811  98.3453941  18.9389396   0.2183806 110.1997757  44.1112280
   0.2512347 109.3311024  44.5119238  -0.3223146 110.7181454  44.7071838
  76.6393375  86.4209938  39.1819239  77.5148726  86.0472202  39.0821147
  76.6011333  86.7006302  40.0965691  29.8869872   7.4509799  40.4927826
  30.1028991   8.0665565  41.1932659  29.9586463   6.5883756  40.9014511
  92.7260876  73.4551811  29.0044665  92.9212761  74.1175175  29.6673751
  92.3512077  72.7256489  29.4979072 103.8218689  86.0966492  46.8299007
 104.3879318  86.3404751  46.0975361 104.3756866  86.1964130  47.6042128
  -0.0919164 105.0611019  41.3085794  -0.0132669 104.4159603  40.6058455
   0.6346499 104.8618603  41.8990421  15.7254696  63.2979774  20.0181842
  14.9583697  63.7725258  20.3384876  16.4540815  63.6454344  20.5326056
  16.3789010  83.6254120  29.8622370  17.2313225  83.6432076  30.2973175
  15.7447243  83.6009979  30.5787945  88.0268478  83.4650135  37.2518659
  87.8341007  84.1094112  36.5708137  88.4093475  83.9768791  37.9645538
  83.2409000  77.6911974  42.9535484  82.8852463  78.2928514  43.6075735
  83.8453102  78.2264328  42.4393082  96.1359787  92.4459076  39.1637731
  95.2215290  92.2236538  39.3387771  96.5772820  92.3235893  40.0043201
 100.2352524  63.7632036  60.8199406 101.1163139  63.9959002  60.5270004
 100.3708935  63.0506516  61.4445210  25.7426333  27.6528215  30.1438165
  26.3096976  28.4174204  30.0435233  26.2187409  26.9432855  29.7124124
  25.1447129  73.9370918  16.3371050  24.2406464  73.8097668  16.0495567
  25.5530214  74.4361496  15.6296742  70.2420473 106.2609291  20.0573540
  70.0540257 106.0374737  19.1457927  69.3813276 106.3195705  20.4720187
  97.9374695  77.4538326  74.2517233  98.4587860  78.2232094  74.4808769
  98.3321762  77.1294975  73.4422493  17.0653260  13.5822964  51.7227602
  17.0490146  14.1731012  52.4757004  17.9188812  13.7346482  51.3172197
  44.9841642  27.1908903  91.2156963  45.4108000  26.4443350  91.6362476
  44.9659538  26.9638491  90.2859879 112.5067997  99.5323658  42.6619768
 112.2893810 100.4643726  42.6802111 111.7673779  99.1054249  43.0946541
  74.1482306  85.3398228  68.8871527  74.2959881  84.4179916  69.0983963
  74.9795389  85.7684231  69.0907669  12.7460158  66.1143827  12.1891165
  13.1242514  66.5029049  12.9779243  13.4739399  65.6465435  11.7798626
 106.1854935  72.8946209  40.7793570 105.5807972  73.4972620  40.3464651
 106.6252518  73.4299183  41.4398813  23.0106592   9.2629248  54.2910004
  22.4614000   9.3723178  55.0672579  23.8361645   9.6901649  54.5195532
  83.9839745  79.4652414  58.6612940  83.0605602  79.3207645  58.4547281
  84.1232872  78.9902687  59.4805765  15.9269416  98.4613609  53.9602232
  16.8506229  98.6916351  54.0603113  15.9361553  97.5373650  53.7104607
  28.9378047   8.8336980  60.6292057  29.3436432   8.2605439  61.2796068
  29.5855498   9.5223278  60.4793787  59.4087362  85.9816074  54.7256088
  59.4393015  86.8703079  54.3713331  59.9006319  85.4554176  54.0952158
 103.8271236  82.4001598  65.4974174 104.2418671  81.5377426  65.4762268
 102.9888344  82.2737789  65.0529766  94.8993683  89.6316051  83.6813354
  95.1129627  90.3937912  83.1431198  95.7196140  89.4134426  84.1238785
   9.2195248   0.0775383  71.6566515   9.4256234   0.9567402  71.3392258
  10.0043606  -0.1957180  72.1316242  98.5698700  66.5768957  40.4700804
  99.5193386  66.4577389  40.4471064  98.3419132  66.8555546  39.5831633
  76.8516493  59.3696070  71.7986488  76.1532307  58.7201834  71.8804646
  76.5602684  60.1040602  72.3389339  87.6327705  42.6610613  96.4622784
  87.4800110  42.0309591  95.7580948  86.7561531  42.9227257  96.7438793
 100.3578854 107.0710468  28.0761337 101.1644459 107.5839615  28.1271839
  99.7190475 107.5788498  28.5763860  89.8983479  89.8199368  45.3466845
  89.2783833  89.5123672  44.6854162  90.6855869  90.0447369  44.8507500
 110.7072353  84.5022011  63.1938553 110.8538151  84.6114445  62.2542763
 110.9124756  83.5826874  63.3629704  68.4332943  82.0779705  12.2197831
  67.7930069  82.0311928  11.5098000  67.9048395  82.1070290  13.0173564
 102.8250122  79.5350647  45.8772898 103.0776405  79.1942215  45.0192451
 103.0232620  78.8231468  46.4856482 114.5587158  38.5968089  71.7282963
 115.3225040  38.6973953  72.2964001 114.0445518  37.9017329  72.1390724
  18.4788096  75.5846500   9.8323053  19.2959929  76.0568237   9.9919808
  17.8466403  76.2682581   9.6103352 111.7840767  94.9718666  33.0222607
 111.4764309  94.1734219  32.5932360 112.7010250  94.7934818  33.2311034
  74.5221090  66.9783735  57.2517824  74.5912123  66.3115358  57.9349947
  73.6647701  66.8260765  56.8542814  28.8868523  86.1255741  22.5968957
  28.0688381  85.6876278  22.3617673  28.6467123  87.0474434  22.6903319
  40.6374407  23.2135940  96.0202312  40.9151268  22.5227356  95.4187012
  41.3692760  23.8304734  96.0307121  21.1246133   2.8746068  47.6615381
  20.8587790   3.7772650  47.8369617  20.3836679   2.3451297  47.9563046
  85.2168846  59.5688581  55.9341812  85.2397537  60.1994467  55.2144098
  84.3281078  59.2140627  55.9136248  49.3472099   1.9559464  21.5620327
  49.0400648   1.4170504  20.8330059  50.2937651   2.0163104  21.4330935
  71.1520863  61.9443798  43.5125971  71.6133213  62.5512028  44.0916109
  71.7679167  61.2233639  43.3817291 112.4730110  45.4620934   8.5598528
 111.9590950  45.1832676   9.3177301 111.9573498  45.1806498   7.8041333
 109.9261665  92.1972561  70.4841185 109.4978142  92.8724480  71.0102940
 109.9946022  91.4439678  71.0707331  20.0335193  68.2713366  29.5904350
  20.7323790  67.9604053  30.1658916  20.4381585  68.9722490  29.0793395
 104.8051357  72.7332020  66.5093327 103.9242554  72.8131008  66.8752527
 105.0777626  71.8434143  66.7333603 115.4267025  63.8232851  27.3407412
 116.0112667  63.1942320  26.9178843 115.9365940  64.6322012  27.3844194
   8.3799797  80.6240940  48.1888390   9.2552841  80.4769039  47.8304958
   7.9185814  79.7986317  48.0406523 115.5221081  84.2729664  46.3454533
 116.3714790  84.5135689  46.7154741 115.3086662  84.9906540  45.7491398
 114.7718811  79.0373707  25.5276012 114.6054840  79.8313856  25.0195789
 113.9936256  78.9361620  26.0756040 106.1451054  86.6215134  45.0687122
 106.5164661  85.7395935  45.0454760 106.6304207  87.0675373  45.7628059
  38.7718248  94.2371368  96.7794037  38.6516786  93.3485603  96.4443970
  38.7981272  94.7868538  95.9962273  41.0069275   8.1744111  73.3414888
  41.2831306   8.5022402  72.4856472  40.7924891   7.2543019  73.1877136
   4.5286614  45.6432390  68.2066059   4.1868669  45.9414434  67.3637056
   3.8820195  45.9413862  68.8462877 111.6410065  99.0690231  27.2433376
 112.2566891  99.0245342  27.9749036 110.8588123  99.4784832  27.6131415
  75.2819157  90.1643753  84.2297935  76.0881042  90.2397346  83.7192917
  75.0847101  91.0612679  84.4998455  88.8949013  78.6795378  24.6872020
  88.3271694  79.4127560  24.4499040  88.5731506  78.3945274  25.5424690
  34.0411305  43.5893917  88.1737900  33.2523084  43.9816141  88.5481548
  34.0933919  42.7235842  88.5786057  16.7172933  58.3952236  67.4487972
  16.0411811  57.8524876  67.8544283  16.3635957  58.6138916  66.5866375
 103.9329624  87.7881336  91.9609928 103.8458443  86.8425655  92.0815659
 104.8767376  87.9359055  91.9003868 100.4358768  63.3687878  55.9786749
 100.4106426  64.3256187  55.9702873 100.0288010  63.1257391  56.8102074
  98.2133865  81.0172176  52.0462751  97.2568035  81.0324764  52.0770121
  98.4219456  80.9428215  51.1150408  10.3514993  70.9082556  17.8456426
  10.3948510  70.1041985  18.3631766  10.9963882  71.4885235  18.2501626
  90.4877377  72.9516745  26.4569235  91.2378120  73.0307150  27.0463157
  90.1590252  72.0650005  26.6051888  23.4738326  89.6829128  60.5711317
  23.9223695  90.4002190  61.0189152  22.5838780  89.7000408  60.9231567
 110.5207920  88.8181591  63.9810610 110.5934620  88.4421825  64.8583269
 110.6298351  89.7597504  64.1142368 104.3628311  99.6986103  30.2397203
 105.2769470  99.5984936  30.5054307 104.4082451  99.9699211  29.3228984
 114.4820595  60.3928375  37.1381044 115.4085636  60.5535936  37.3169303
 114.1526794  59.9780893  37.9354286 106.8174362  77.1792459  68.1278467
 106.5409851  76.2657499  68.2008791 106.6309166  77.4139929  67.2188187
  37.6589251  86.7115974  59.9287224  36.9049215  86.4608383  59.3950272
  37.5305772  87.6443005  60.1013899 105.8342361  51.9528103  55.2265167
 105.0504017  51.4034367  55.2315044 106.5598392  51.3357019  55.3208733
  88.0143356  62.6978350  38.9210844  88.8995457  62.9028130  38.6200571
  88.1335735  62.3774529  39.8151612  97.7557945  62.8529453  47.6427460
  98.5885620  63.3247519  47.6313639  97.9423046  62.0495415  48.1285381
  68.7384033  34.9848342  95.6106853  68.6405563  34.2990828  96.2712955
  68.3740568  34.6022272  94.8125076   3.2296959  11.4309251  75.8987808
   2.4200952  11.3652098  76.4052010   3.8506621  10.8723104  76.3663101
  93.7538528 100.6477165  46.8713570  93.8346004 101.4516449  47.3845863
  92.8174114 100.4497528  46.8820763 112.2517300  87.3600197  61.7163038
 111.7352200  87.8087425  61.0469055 112.8881359  88.0137348  62.0059395
   1.1476389  66.2003851  23.4942865   1.5318796  67.0720100  23.4001470
   1.5327680  65.6905985  22.7815294 102.1733189  77.9722691  39.2610002
 102.0272923  77.0770884  38.9551163 101.8226624  77.9812479  40.1516104
 107.5024986  95.0744247  42.5622702 108.3491325  94.6282291  42.5808144
 106.8890667  94.4396496  42.9324198  15.0678122  88.2136059  64.5478153
  14.9416566  88.0481052  65.4821205  14.6290457  87.4820518  64.1136026
  94.8301506  83.5777569  55.1482296  95.2882957  82.7943325  55.4524899
  94.9200630  83.5529995  54.1955853  67.8526688   7.2734481  23.9778042
  68.3577538   7.2854102  23.1647968  67.1809483   7.9437357  23.8523483
  89.1767979 107.6810169  75.9626913  89.7340107 108.1489658  76.5845966
  88.7959862 106.9663239  76.4730215  91.3620281  96.3172531  53.4532547
  92.2909546  96.5266228  53.3557606  91.3481808  95.5502892  54.0257931
  80.9739971  85.1860905  36.0348082  81.7626476  85.1125908  36.5722680
  81.2994862  85.3948402  35.1591849 114.1518688   3.7058866   9.9286741
 114.3485165   3.7174800  10.8653831 114.8221970   3.1369692   9.5502329
 116.4081097  69.3500757  40.4167175 116.5063000  69.4505310  39.4698834
 115.4719734  69.4721603  40.5747223   9.8192716  65.5530357  31.4289141
   9.9706513  66.3191175  31.9824791  10.2239478  65.7789850  30.5914068
  95.7964706  84.1438389  33.7171221  96.5144634  83.9074707  33.1298923
  95.0484562  83.6405468  33.3955431 118.0281396  32.3011446  71.7896128
 117.4817286  31.9635534  71.0798931 117.9864493  31.6253352  72.4662018
  22.3833418   6.2443459  29.8642254  22.0832729   6.5808022  29.0198398
  22.8098035   5.4137766  29.6532369   3.4945577  70.6803608  33.6115527
   2.5986424  70.5915833  33.2864594   3.8146737  69.7808933  33.6802006
  84.3639565  72.0008707   9.6729088  84.5170021  72.6161337   8.9557934
  85.2042007  71.9503593  10.1286018  28.5511565  86.9218731  55.8034372
  29.0438080  86.8514347  54.9857807  27.8722239  86.2508583  55.7325649
  82.6646042  96.9204426  28.0023861  82.0174026  96.3905239  28.4677410
  82.1505260  97.6051998  27.5745296  83.7310314  66.9812346  16.1825204
  83.0601311  67.5697231  16.5286410  83.8424397  67.2542667  15.2718771
  94.3416691 103.0068111  42.0512772  94.4321442 102.3021221  42.6927233
  95.1925945 103.0437851  41.6144753   8.1908947  89.6563530  89.3675327
   7.2934103  89.8314381  89.6505451   8.0940080  89.1025925  88.5928059
  18.9391434  18.3111799  49.2432261  18.4809101  19.1064560  49.5148706
  19.1482913  17.8634083  50.0629759  99.6692657  81.1384869  34.0577078
  98.8855934  81.1040783  33.5091567 100.0891113  81.9663143  33.8239193
  80.2256870  95.8894539  21.4868402  80.9486198  95.6054211  22.0462441
  80.0634098  95.1442909  20.9083724  19.6377063  53.8466930  63.6903811
  19.5118487  54.4151402  64.4501543  20.5850053  53.7183189  63.6415958
  -0.2793134  79.8427105  55.4643631  -0.1047147  80.7011700  55.8501053
   0.5763136  79.4145870  55.4355145 100.2471161  57.5249434  76.8108368
  99.7493744  58.3384895  76.8922281 100.4718494  57.2905540  77.7112770
 104.5575905  90.7129860  41.5119410 104.4334698  89.7877502  41.7234945
 104.0266323  90.8527279  40.7278633   5.3507465 108.1015015  45.5080843
   5.3322327 108.5799885  46.3369036   4.8785904 108.6653423  44.8954058
  50.5911160  61.0343361  31.2931776  50.4556656  61.8128347  31.8333912
  50.9903717  61.3670874  30.4893732 107.4062824  62.8489494  32.7825856
 107.5271702  63.6965466  32.3545742 107.0077896  63.0614710  33.6265445
  91.8429565  73.1371593  24.0109324  91.1349201  72.7720976  24.5416331
  91.3990688  73.6849546  23.3635449  51.9515419   1.9012895  12.6193726
  51.9538879   1.2388413  11.9284391  52.5740147   2.5633121  12.3185706
  17.5055993  87.8629398  25.0651145  16.9960344  87.8107738  24.2565012
  18.3920705  87.6111698  24.8062539  84.3843842  66.8878174  85.4063034
  84.4086933  67.6550198  84.8344326  83.4705925  66.8251562  85.6842995
 117.9447833  68.7215662  30.3875017 118.8432326  68.4543991  30.5815244
 117.6519471  69.1707516  31.1804152   7.5631827  78.1204176  37.3934960
   8.0618489  78.0272150  38.2052088   8.2264686  78.1185961  36.7033648
  11.0603845  95.6770134  36.5111256  11.4460897  94.9975491  35.9581399
  10.1604927  95.7602978  36.1957073 115.2392292  82.0352936  31.6569924
 115.4960728  81.1452770  31.4158750 115.8423233  82.5983810  31.1717796
  42.6591969  94.4066811  58.2096338  41.7123318  94.2665386  58.2155704
  42.8759289  94.5391369  57.2867489 110.1574421  74.9261332  83.4792519
 109.8346996  75.5092287  82.7921772 110.6895828  75.4895115  84.0410805
 103.4722805 108.2368660  91.7351437 104.1651535 108.8323689  92.0206833
 103.1343746 108.6307049  90.9308147  91.8435192  70.7752275  38.3028507
  92.2074699  69.9442196  37.9975653  91.6495323  70.6261826  39.2282605
  71.9601107  65.3041220  27.1873307  72.8824854  65.0543118  27.1320915
  71.9700336  66.1668205  27.6019216 115.5935764  36.8323207  40.4052734
 116.1411190  37.0618176  39.6544337 114.8038006  36.4538121  40.0189877
   3.4706697  57.7734947  39.0040135   2.9985824  57.1788311  39.5868874
   2.7833784  58.2769060  38.5676193  96.0313034  64.4630289  26.7870569
  95.4643345  64.4519472  26.0159159  96.8815231  64.1652203  26.4635277
 117.0568752 101.8186855  47.2176504 117.2967720 101.0716057  46.6694307
 117.2731113 101.5416431  48.1080008 102.7274323  83.9531612  18.2536077
 103.4500217  84.3876076  17.8004491 102.0381069  83.8831139  17.5931919
 113.4405136  41.7014742  48.0232096 114.2506313  42.2104120  47.9929209
 112.7595043  42.3191833  47.7569485   6.8589342  68.4020329  57.6355362
   6.9752002  67.9765558  58.4850550   6.2821370  67.8127384  57.1494627
  21.5255523  82.3505497  72.9478550  22.2078419  82.4521160  72.2842312
  21.4774990  81.4066505  73.0994511 111.5157795  58.8756514  45.3684330
 110.7882977  58.3342743  45.6749058 111.9910908  59.1114187  46.1651278
  91.9493961 104.6720600   3.1708342  92.4811459 105.4661751   3.1174016
  92.3751163 104.0580368   2.5725210  95.4870319  70.1967955  50.7976866
  94.9460602  70.8712626  51.2083817  95.9478664  69.7823334  51.5271235
  94.1257095  70.3525782  32.5492311  94.8832607  69.8873234  32.1944284
  94.4302750  70.7028675  33.3863497  49.0589237  22.3110366  18.7476718
  49.4295454  21.6122603  18.2086134  49.4262743  22.1618700  19.6188986
  74.5300913  73.8067961  51.8263149  75.2613688  74.3220949  51.4858294
  74.2870235  73.2288980  51.1030054  10.6357241 100.9401703  78.8228941
  11.5629005 100.7150936  78.8997889  10.3331888 101.0214996  79.7273779
  94.5514584  84.1076756  79.5846415  95.2470112  84.1929150  80.2366924
  94.6137333  83.2006550  79.2851830   7.7808756  93.7182903  78.2409096
   8.0768013  94.1153812  77.4217796   6.9023353  94.0736008  78.3756495
 105.7045555  69.6749640  58.5746861 106.4405823  69.5438528  59.1724300
 104.9524498  69.3035221  59.0357733 115.4709053   0.2451541  35.5016661
 114.8064041   0.6035597  34.9132633 116.2463951   0.7834919  35.3434277
  95.8353519  91.6947937  82.1414948  96.2596226  91.7131996  81.2836552
  95.4954529  92.5817776  82.2596645  84.1027069  12.3187089   7.0013958
  84.3594170  11.6151464   7.5974917  84.9306488  12.6617694   6.6651458
 115.4065609 109.5840740   3.0605865 115.4854584 109.1937447   3.9310151
 115.2081394 108.8460541   2.4842271 105.8542156  93.0489063  43.3501148
 105.7540321  92.5353241  44.1516304 105.2524853  92.6409340  42.7274513
  26.3898373  64.2773199  28.4821367  26.4176083  63.3854723  28.8286400
  26.5400386  64.8354912  29.2451024  40.6531429  34.2214084  30.0327015
  41.2552452  34.3268585  29.2960978  41.2222767  34.0736699  30.7880068
   8.2276344  98.1661701  43.0860233   8.5835046  97.2961807  43.2668638
   7.5373298  98.2830048  43.7387562  76.2524509  86.6666126  27.9266548
  75.5776405  86.1186981  28.3274770  76.4865732  86.2068653  27.1203947
 101.8385029 110.3305435  63.7295246 100.9944725 110.7698536  63.6253357
 102.3276615 110.5611801  62.9397440  35.1041079  12.9370403  81.9049263
  35.4628992  12.5350070  82.6960468  35.4704070  13.8213551  81.8984032
  55.6726837  83.9989948   3.6366370  55.9653139  84.1239834   2.7338749
  56.3975954  84.3240356   4.1705710  83.8323784 104.9916077  24.6361494
  83.2808018 104.4751549  24.0485549  84.1464424 105.7159233  24.0948820
  47.4520397  36.3947129  79.9872637  46.9131279  36.0132861  80.6803131
  48.0940151  35.7151341  79.7816515  43.6254692  82.1020222  20.1386023
  42.9034662  82.4480343  20.6632161  44.2883444  82.7922535  20.1586246
  73.7286377  85.3838730  28.7750697  73.0929947  86.0784817  28.6027050
  73.4535837  85.0098228  29.6121264  99.2408085  89.2959690  33.7028050
  99.6534157  88.8802624  32.9457188  99.1375351  88.5876369  34.3382764
 100.2743435  83.7555027  70.5191278  99.6542549  84.3184280  70.0556135
  99.7718620  83.3971977  71.2508154 117.7721637  90.2967739  53.8820791
 116.9005171  89.9628162  54.0940619 117.6097559  91.0320663  53.2911444
  28.0403066 100.3533459  66.1497211  27.5148177 101.0629082  66.5193415
  28.9400935 100.6778812  66.1856794  28.3518958 106.5287685  45.8307695
  27.4219680 106.6850662  45.9951925  28.3989143 106.3241386  44.8968792
  50.0622702   3.1662053  28.9620614  50.3690863   2.9962593  28.0714369
  50.8433294   3.4564203  29.4331765  74.8253727  38.3635688  66.3843727
  74.6960974  39.3119955  66.3812208  74.0877485  38.0196261  65.8805370
  27.3055696   1.5006553  35.5188942  27.2438359   0.7039951  36.0459185
  26.7737794   2.1416920  35.9905982  21.0832191  14.9853909  72.5764370
  20.1522207  14.8992312  72.7815008  21.5225959  14.9157834  73.4239864
   1.9922656  40.7952547   4.7655976   1.4904547  39.9956894   4.9240744
   1.4959192  41.2599564   4.0918601 106.9112492  91.6617489  11.4433765
 107.3501682  92.0060062  12.2212386 106.7862892  90.7314491  11.6308796
  92.0913124  81.2515163  37.8309774  92.8308201  81.7120934  38.2274866
  91.4393425  81.1989212  38.5298347  89.5845699 104.8749256  45.2800512
  90.4918480 104.6711349  45.5070734  89.2062855 105.2177620  46.0897398
  96.5965080 110.2716255  54.5964575  96.2109184 111.1448765  54.5257854
  96.2263775 109.7859955  53.8593006   9.0396947  90.8041286  92.5198364
   8.3150929  91.1046124  93.0683804   9.1007686  91.4586353  91.8240452
  31.3490224   2.8026816  65.8528614  31.9703698   2.9403263  66.5678549
  30.6692672   2.2444491  66.2304068   0.9005172  46.2225008  28.7609911
   1.1154579  46.9523048  29.3418741   1.7254344  45.7482576  28.6568975
 117.4435938  98.6513138  74.5882988 117.8649894  99.0649033  73.8349056
 117.8803471  99.0361500  75.3481531  32.4903464 102.5575733   2.2423711
  32.4703097 101.8184090   2.8502089  33.3621144 102.9365444   2.3547842
  28.9059401  75.5089331  37.1885657  29.4524860  74.8655891  36.7373180
  29.4365120  75.7942915  37.9324079  26.0365677   0.4633119  49.3773508
  26.2361097  -0.0309205  48.5822725  25.5755997  -0.1607652  49.9379492
 118.3175182  96.9810963  41.6528654 117.9950333  96.3473606  41.0120678
 117.5312233  97.4322224  41.9601917  76.6744900  89.1617012  72.7361584
  77.0944691  89.9935532  72.5173426  76.2812567  89.3108177  73.5960245
  32.8403974  98.0973053  41.9395494  33.2267475  98.9176178  41.6328669
  32.0189118  98.0231476  41.4538574  15.4466784  67.9350281  24.3596768
  16.3520539  67.6290846  24.3055844  15.0708055  67.4429989  25.0896502
 110.1119804 109.8313522  26.4975643 109.1848183 109.9147320  26.2747669
 110.2703285 110.5322456  27.1299458  96.3087273  82.1116543  40.1501131
  95.5775547  81.5753555  40.4567051  95.9128284  82.9563904  39.9358368
  29.7786260   1.1480457  67.0689678  29.0137076   0.5905567  67.2115850
  30.5088592   0.6520180  67.4390364  13.2707202   3.1261802  66.0341978
  12.8024614   3.3422580  65.2278042  14.1245556   2.8106618  65.7381535
 114.0566635 105.0494194  56.6179991 113.8257694 104.1772366  56.2982941
 114.3109035 105.5330658  55.8320713  92.3606014  99.9056911  56.0199070
  91.4501095  99.6106339  56.0066462  92.8471184  99.1651058  56.3819408
  18.9597166 102.3692608  43.0840063  19.2970145 102.6141548  42.2223282
  19.5408773 101.6678905  43.3782244   3.7630171  92.8093147  43.3495140
   3.0783549  93.1832409  43.9041758   4.5706388  92.9365921  43.8472891
 113.3438206  95.6831741  51.9539309 113.9855671  96.1295700  51.4015484
 112.7058315  95.3238773  51.3374043 118.5094929  95.2696991  58.7046528
 117.6506424  95.5481148  58.3867025 118.3155251  94.6257973  59.3858290
  47.0865679   2.4524274  65.3811455  47.7001905   2.1167769  64.7276640
  46.3967085   1.7902598  65.4243040  31.5066743  10.3641665  56.4596939
  31.9561934   9.7910136  55.8386755  31.6329217   9.9423099  57.3095942
  81.5258503  59.7378683  23.5649419  82.1165085  59.1231203  23.1296968
  80.7775307  59.8111916  22.9725933 111.5910339 108.3338547  56.3626862
 111.4175797 107.3927212  56.3830137 112.1417999 108.4925079  57.1293163
  12.8767037   0.6086872  26.1480498  12.6865506   0.6345222  27.0858169
  13.8076233   0.8227299  26.0864377 105.0759411  73.8296652  20.8348727
 104.2726231  73.9312506  20.3243828 105.7652378  74.1760683  20.2682137
   0.5347492  99.6918297  72.0340443   0.0698418 100.5280972  72.0612955
   0.0953397  99.1959095  71.3432312  90.1775551 102.7511501  64.4730377
  89.9163628 101.8379784  64.5918655  90.7508850 102.9350471  65.2171516
  95.0109673 110.5388737  40.0603199  94.7152138 110.1632881  39.2310429
  95.0313759 109.7974014  40.6653214  11.8561673  21.4963126  49.7031641
  11.5579653  22.0815229  50.3994656  12.8101754  21.4977551  49.7812653
   4.0675426  87.2553444  90.7038975   3.5844108  86.8115425  90.0068665
   3.3963391  87.5052166  91.3389492   8.0668145  15.5742776  71.3417006
   8.8312769  15.3850520  71.8857765   8.4102082  16.1037183  70.6219721
 108.5212421 102.2334671  60.8781910 107.7247238 101.7033005  60.8514261
 108.4995365 102.6551437  61.7372274  25.0822043  24.4350219  36.9477010
  25.3314972  23.9106345  37.7086902  24.3164110  23.9869285  36.5885305
  68.4125662 108.6980534  63.4136200  68.1582689 108.3360291  62.5647974
  68.4502268 107.9393482  63.9960194   2.6407784  80.3937912  12.8133452
   2.7147838  81.2537193  12.3994887   3.1594542  79.8140907  12.2555315
  82.1678638  92.1659946  43.2371759  82.8072357  91.4685726  43.3821487
  81.3329506  91.7085838  43.1374884  16.4717185  88.3085632   6.1372113
  16.2249231  87.7560234   5.3955758  16.2834227  87.7730846   6.9079489
 110.5210400  81.4805317  58.0582094 110.7053947  80.5430508  58.0001307
 110.5164909  81.6660118  58.9972544 109.5034599  83.4316349  31.5023518
 109.8888206  83.5120773  32.3748541 109.3159485  82.4976826  31.4085245
   5.2555579  44.3749619  25.7099986   4.7581708  43.6248875  26.0359168
   4.8686874  44.5658731  24.8555303  99.1824722  85.0856590  29.8165560
  98.3005333  85.3405762  30.0875497  99.6106052  85.9106636  29.5878577
 107.6525021  66.9092417  48.3830357 108.2933807  67.5325727  48.0410242
 107.7240849  66.9897127  49.3341541  17.9710472  87.7253056  17.8544104
  18.3806729  87.0667076  17.2934341  18.4071112  87.6239777  18.7004673
 111.8719959  82.9060841  54.7708654 112.5112820  82.6128960  55.4201555
 111.9520283  82.2762299  54.0545511   7.1084410 107.8641701  41.7635059
   7.1139371 107.4672508  42.6345158   7.2395545 108.7984562  41.9252205
  15.8381915  77.1881533  61.7938328  15.8319438  77.6624966  62.6252079
  16.7258632  77.3080349  61.4563417 103.3633709  95.0564384  45.6476402
 102.8695679  95.8491898  45.4380131 103.5583210  95.1356030  46.5814257
   8.2108843 101.7589378  54.3831110   8.5027033 100.9654045  54.8318577
   9.0010202 102.1026993  53.9662838  75.7607937  78.0786180  24.5315766
  76.3197279  77.5805807  23.9351034  76.2141466  78.0391836  25.3736854
  70.9478617  72.6764011  59.2004633  71.4041424  72.9484797  58.4042120
  70.9755278  71.7198801  59.1773939  82.8709412 108.5708237  36.2339616
  83.5082245 108.1465816  35.6593966  83.0657578 108.2244778  37.1047807
  30.3594470   9.0115678  22.3317552  30.5762267   9.4218862  23.1689382
  29.9987602   9.7230077  21.8026137  23.3293128 105.5671120  53.3094025
  23.3116841 105.7798004  52.3762989  23.4200239 106.4138985  53.7463951
  22.7888751  38.9905286  10.7166028  23.3703113  39.6090221  10.2742994
  22.5904489  39.4063878  11.5556026  23.1467295 101.6173267  57.0238352
  23.6521840 102.1692848  56.4271021  23.1084275 102.1180439  57.8387308
  85.2553177  73.4684372  34.7495437  85.5756664  74.1301155  35.3625607
  84.4290829  73.8245964  34.4228888  25.6075883   1.6548306  66.1933422
  25.3319860   1.5147094  65.2874517  26.0091829   2.5237036  66.1898470
  14.8453927   4.7229189  40.4481792  14.6911168   5.4371822  41.0664511
  14.3319941   4.9596527  39.6757722 104.9116993 105.0284386  40.7741737
 105.0835419 104.0934944  40.6620121 104.5584488 105.1023674  41.6607285
 107.2528744  85.5554295  40.1832628 106.3537884  85.4575062  40.4967785
 107.7730370  85.0100899  40.7734013  30.9193850  99.1501236  29.2454123
  30.6978011 100.0691700  29.3953681  30.8515620  98.7433720  30.1092315
  18.9654970 107.7577496  58.6929083  18.8449979 108.7049103  58.7606955
  18.1077230 107.3912048  58.9076233  93.2688046  83.8622189  44.6387672
  92.8736305  84.7022057  44.8722315  92.5491428  83.2339764  44.6990108
  96.3874531  72.9596996  80.0882244  97.0387554  72.3041677  79.8385906
  96.4559555  73.6346483  79.4129562 111.8511391  40.1569319   3.8377681
 111.0176182  39.8900819   4.2254037 112.2958755  39.3337083   3.6359203
  71.4736700  77.1075058  37.0258665  72.0368481  77.8281164  36.7434120
  71.4782715  76.4968443  36.2887716 114.0196323  96.9632912  49.3554163
 114.9672413  96.9640446  49.2202425 113.6840534  96.3565063  48.6955500
  72.5408554  16.7513406  76.4007854  71.6251755  16.4828753  76.4762402
  73.0383968  15.9970534  76.7165899 100.2400494 102.8741455  47.8145885
 100.9730530 103.4523487  47.6033545 100.6505203 102.0384502  48.0367708
   3.5640255  17.4226582  59.7831392   2.6467443  17.1803153  59.9100113
   3.5677344  18.3787429  59.8291826  19.3060482  14.0880382  78.6803198
  20.2621198  14.1137099  78.7190533  19.0853477  13.1670713  78.8193989
  21.6278911 106.2596035  31.0230255  22.0908141 105.4321384  31.1542940
  21.8847871 106.5410995  30.1449609   1.9439837  58.3239985  11.1570883
   1.8791565  58.2749939  10.2033436   2.8712445  58.1750298  11.3420951
  89.2272949  70.6661415  79.9412107  88.5077286  71.1827421  80.3039455
  90.0173855  71.1381292  80.2043056  11.5620840   1.2993959  52.1957588
  11.0362709   2.0493153  52.4739218  12.0176864   1.0187490  52.9894209
  37.3155189 110.6610203  84.2803478  37.2606349 111.4416599  84.8315430
  37.8120041 110.0323200  84.8042583  34.2033124  73.9124250   4.2295963
  34.5229959  73.5538483   5.0575197  33.3281922  73.5380363   4.1284439
  68.9896536   5.0874460  31.0644102  68.8932037   5.9922636  31.3614535
  69.5515585   4.6779835  31.7223144  13.4396923  92.5465202  46.6427040
  13.9683223  92.8389263  47.3851871  13.8201225  92.9939651  45.8868599
  21.4353371  77.5036573  26.1702847  20.8764195  77.5278330  25.3935885
  22.2635031  77.8869867  25.8814335  33.0612087  52.3523808  54.3325615
  33.1796479  52.6029348  53.4163570  32.2014093  51.9323921  54.3567896
  18.3134067  71.3879871  46.2557030  18.8560903  70.9510183  46.9120407
  18.9278817  71.6409445  45.5667448  37.4955010 104.6961594  15.1610923
  36.7669535 104.7935295  14.5479298  38.2367015 105.1115227  14.7202671
  18.2533026 110.0347424  63.6444044  18.9338744 110.2158165  62.9961252
  17.9945660 110.8978176  63.9674950  69.7410154  12.6252139  36.6074347
  70.4628563  12.4987924  35.9916472  70.0522518  12.2357225  37.4245405
  86.2077808   2.5856641   5.6195796  86.7778492   3.1606063   5.1089954
  86.6536236   2.4924847   6.4614630  62.9193878   1.0945527  50.6921673
  62.3066759   0.4415032  51.0303068  63.7336922   0.9273103  51.1666918
  23.4559298  28.0930090  42.4375153  23.6471033  27.5662756  41.6614771
  24.0929317  28.8067532  42.4054098  60.9126377   5.3337687  47.1886110
  61.8187046   5.0677907  47.0319748  60.9842920   6.1282569  47.7176571
  29.8423648 111.4125443  55.1507330  29.8833394 110.7407284  55.8313274
  30.1734185 110.9778214  54.3648243  53.0419779  25.5174637  44.7352123
  52.6173639  26.3345289  44.4737864  53.9763498  25.6817293  44.6079350
  46.6170597  11.6234159  40.6608486  45.8157492  11.4076424  40.1838064
  46.9920826  10.7745612  40.8954430  59.6906519  23.4186459  61.6279840
  59.8141289  24.3678308  61.6223907  58.8485432  23.2840991  61.1932564
  43.4627819  27.9733777  45.5470800  43.8068485  27.1925664  45.9808779
  43.0341053  27.6401401  44.7587776  67.5974751  15.5058968  39.3695235
  66.8325615  15.2526164  39.8862314  67.7631474  16.4155900  39.6169996
  59.6108818   1.7186035  46.8893671  59.3652534   1.0136581  47.4884939
  58.9387417   1.6990480  46.2081337  32.9322124  11.2344980  46.6804552
  33.0141997  11.7013872  47.5120354  32.1240377  11.5725100  46.2946653
  51.9890487   0.6441067  51.0423231  51.0795868   0.4798839  51.2916088
  52.5025904   0.3179024  51.7813063  59.2765522  15.8397090  51.9594479
  58.8267612  16.2966132  52.6701927  59.1965294  14.9122906  52.1824360
  51.1894083  88.0676937  23.1943393  50.6595850  88.4548664  23.8912058
  52.0894051  88.1320667  23.5138535  26.4355636 100.5358696  25.2642083
  25.8756590  99.7602463  25.2980828  25.9677505 101.1441612  24.6920538
  59.2255163  25.1015234  38.2136631  59.4334126  24.7218180  39.0673804
  58.3531761  25.4793191  38.3255816 111.0095310  19.5373881  22.6557469
 110.9427547  18.8457370  23.3140707 111.0051537  20.3502965  23.1611133
  46.9715881   2.8456822  38.5588932  46.9551086   2.5899521  39.4811511
  47.0255709   3.8012016  38.5762239  10.8243668 103.2810783  82.1459198
  10.2076113 102.5516415  82.0844364  10.9789717 103.3855247  83.0847549
 117.0258236  76.1465216  15.6979978 116.2836075  75.6725264  15.3229332
 117.7705479  75.8969975  15.1508594  45.6346560   8.1944305  12.1919549
  45.6562614   8.5789561  13.0682564  46.4288139   8.5197288  11.7680097
  15.6823945   1.6489352  62.5363588  15.9479785   1.0781184  61.8153429
  14.8871124   1.2437489  62.8821707  16.7024469  89.7493649  49.3148518
  15.7709491  89.9469948  49.4122553  17.1068859  90.5937481  49.1156483
  36.3011932  93.9038181  13.4012651  36.4425516  94.8499489  13.4341705
  37.1288705  93.5274410  13.7004673  23.3446002  98.9360237  63.9551687
  24.0632367  99.2498684  64.5040751  23.6398530  99.0969086  63.0589676
  82.9643917   4.7035444  43.1260061  82.1814156   5.0993174  42.7431822
  82.7860928   4.6809557  44.0661812  25.0263286  64.7690105  14.5460594
  24.1747379  64.8440886  14.1154885  25.6509662  65.1003695  13.9008760
  57.1926022  20.6422806  69.8297071  57.4345636  21.3708162  69.2579365
  56.2490559  20.5419946  69.7035980  38.4098411  11.1282825  48.0166674
  39.3271470  10.9190500  47.8405905  38.3450127  11.1361456  48.9716387
  45.0264406  19.2097580  62.5641870  45.9313583  19.3653953  62.2937584
  44.5098495  19.8140764  62.0311165  51.9763613  21.2118649  22.7179956
  52.1386766  21.5455317  23.6003494  51.4610577  20.4166961  22.8536582
 114.7462654 108.8469887  41.8967676 115.2300930 109.0870285  41.1064959
 114.3267059 109.6603966  42.1770716  83.4796715  15.6545293  53.9362144
  83.7625027  15.8211708  54.8353624  83.1333447  14.7623837  53.9555168
 105.5082321  39.4150615  95.8687115 105.7575703  38.7621331  95.2146816
 105.3830719  40.2207184  95.3672218  38.2938457  81.7236710  22.9323602
  37.5108576  81.5785980  22.4012136  38.2115817  82.6268291  23.2385826
  36.9840193  20.3320122  23.1345439  37.5142550  20.0432611  23.8773131
  37.4937558  20.0807190  22.3643136  69.6617842  22.8591084  19.7024560
  68.8415956  23.3112741  19.9001098  69.8496246  23.0904293  18.7928200
  89.1961861  18.6845410   7.2567731  89.1944122  19.6180391   7.0450872
  89.0445328  18.6528587   8.2013512  51.1926842  17.6723611  62.2293806
  51.2577438  16.8353117  61.7696524  51.5937424  17.5086296  63.0829430
  78.7184620  35.5951047  36.2440062  79.0025091  35.2360010  37.0845985
  79.4642591  36.1126018  35.9403324  77.7620697   6.3664526  56.0032225
  76.8428469   6.6311491  55.9686518  77.9366636   6.2282133  56.9341564
  35.0452590  16.3675642  30.6055379  34.5779467  15.7340169  30.0610495
  34.3534374  16.8757892  31.0290051  56.9555140  14.3076038   7.9665685
  57.1620321  14.7541606   8.7876451  56.0616112  14.5825446   7.7626562
  49.8264265   2.1545735  66.2057877  49.1751385   1.4942864  66.4425898
  49.8012352   2.1836272  65.2493620  90.0264168   4.5175612  19.8651302
  90.0518990   4.9789828  20.7033849  90.6743050   3.8189036  19.9565184
  29.0285206  81.2911797  61.8177414  29.5924497  80.6841278  62.2970057
  28.2115912  81.3036728  62.3164415  19.2636216  94.9950886  35.0305104
  18.3966637  95.0774765  34.6332335  19.8489225  95.4494667  34.4245458
  53.5628510  93.2239056  38.8047147  53.0268717  92.5008583  38.4788895
  53.3907986  93.9426422  38.1964016  84.8263168   1.9967566  83.8614464
  85.7401943   1.8326856  83.6287594  84.8704815   2.6506442  84.5590973
  93.6511803   7.2962153  82.2039604  93.9221478   7.2148174  81.2895298
  92.7228832   7.5253314  82.1592045  73.7358904  10.9188712  43.1216812
  74.5147181  11.4584231  42.9854870  73.3898640  10.7712626  42.2415066
  30.6371093 100.5081558  50.0835133  30.4955983 101.3835144  50.4440022
  31.4779711 100.5688667  49.6301985  44.9105358 108.4881687  19.9512887
  44.0444899 108.6986828  20.3003979  44.7345543 108.0847931  19.1012609
  40.1737261  98.7075424  51.7094326  40.5975199  99.1412258  50.9687901
  40.1782370  97.7788162  51.4777422  15.7875836  84.9282360  39.9207950
  16.0897982  84.9375248  40.8289862  16.1190891  85.7459259  39.5496845
  83.7611008   3.1621468  38.2361889  84.6042919   3.5329816  38.4964609
  83.1818581   3.9195997  38.1526661  49.1838408  95.3496933  56.2037086
  49.1279602  94.4492531  55.8838224  48.5010529  95.4092979  56.8719006
  11.9533944 103.3200169  30.8454776  12.4861622 102.5306606  30.7489610
  11.8612337 103.6572075  29.9543881  43.1173325 106.7602825  38.0066776
  43.8843584 107.0487690  38.5013318  42.6233768 107.5632477  37.8408504
   3.5974315 100.4184246  13.0590546   4.0484986 101.2626362  13.0502820
   4.1148475  99.8643303  12.4746859  63.6412811   8.1696284  53.9231920
  62.8610039   8.1060725  54.4739771  63.8080359   7.2707832  53.6394644
  37.1586776 101.7257595  35.7885861  36.3059735 101.3846111  36.0583043
  37.7930880 101.1671162  36.2376571  53.4819794  21.2500739  47.2792912
  53.0493450  21.3524270  46.4315987  52.7801991  20.9915185  47.8766918
  67.7259302  11.2456977  58.0871153  68.0618048  11.4856994  57.2235060
  68.5034800  11.2060273  58.6439610  20.2623773  95.1880074  13.8276720
  20.5522513  95.2804756  14.7352254  20.8761954  94.5624733  13.4427392
  38.2737017   7.4807179  39.2542648  39.0336370   8.0386704  39.0886784
  37.9546309   7.7591592  40.1126909 107.5550270   0.7487655  40.9091949
 107.8894806   1.2311243  41.6653061 106.7821217   1.2415533  40.6334972
  37.4991608  12.1538305  37.5776768  36.6778350  11.7938304  37.9124212
  38.1537127  11.9036663  38.2297611  42.1290064 111.5823078  56.4660454
  42.6656055 110.7903194  56.4983177  42.2348261 111.9070435  55.5718517
  25.4160213  98.3961201  53.1437111  26.2661672  98.6562538  53.4984255
  25.5327868  98.4279346  52.1941948  79.2256308  27.9724836   3.9515337
  79.3718290  27.9901600   4.8973376  78.5915041  28.6720037   3.7940842
  92.4533176   4.3390980  40.7784700  91.6146946   4.7273868  40.5291080
  92.7682018   4.8893180  41.4956427  59.2669344  20.4491186  57.3838425
  59.6007586  19.8305607  58.0335951  58.3586550  20.1817799  57.2431469
  23.8898492  19.4912314  17.6811755  23.6000943  19.3966305  16.7738044
  24.6583748  20.0594711  17.6291788  58.7847137  19.7767711   0.6747025
  59.0947485  20.1366282   1.5057343  58.5769415  18.8634276   0.8718424
  67.6333618   9.5980930  47.4186897  68.5752153   9.5205224  47.2666073
  67.5569630   9.7961062  48.3520603  71.3167858   8.0239505  11.9908118
  71.1533117   7.0844257  11.9083416  71.2337208   8.3607328  11.0986745
  12.7553022  44.6186066  96.1862469  12.6595807  43.9765930  96.8897247
  13.6707222  44.5438719  95.9167004  48.1916475   5.3241438  31.9364405
  48.9589214   5.7109004  31.5146065  48.2094431   4.4050533  31.6696286
 104.4029522  95.3833008  90.4570198 104.9597168  96.1618710  90.4481125
 103.5768223  95.6839371  90.8356476  59.6609068  18.9757574  43.2429504
  59.5990896  19.6427047  42.5591421  59.7874546  18.1552553  42.7665091
  67.9977942  28.6414862  41.4583063  68.9338684  28.4538937  41.3889599
  67.5902033  27.7842093  41.5815115  45.2025127  53.6792183   6.6434717
  45.0507832  52.7576733   6.8531477  46.1495447  53.7440538   6.5203398
  24.5578361 109.8544598  51.8732738  23.8423347 109.6246147  51.2804317
  24.1342902 109.9802399  52.7224016   3.3382326  83.9630795  40.4822206
   3.4134546  84.2047501  39.5590901   2.8135562  84.6629143  40.8710289
  47.4758196  87.5271606  17.1997344  47.1882391  87.9118729  16.3717711
  48.4165478  87.3911762  17.0866990  43.9179325  19.1926670  48.4177446
  43.4258652  18.3739305  48.4791613  44.6137857  19.0071738  47.7871799
  71.3843060  18.0405653  20.8119559  71.3704824  18.8334477  20.2758789
  72.3082066  17.9131782  21.0273862  48.4187746   9.2293549  37.8529644
  48.4136343  10.0779355  38.2958126  49.1297770   8.7446803  38.2722497
   5.1645350  68.0221939  19.7600853   4.2508078  67.8507757  19.5321584
   5.1233774  68.7423038  20.3893566  22.0000887  11.2878108  84.8281097
  21.7963195  11.3395452  85.7619286  21.3158560  10.7258558  84.4644260
 105.8504772  70.0708961  94.2609119 105.7860851  70.9759569  93.9560413
 105.5380058  70.0999689  95.1652050 104.8854542  41.5406609  89.8933983
 104.3964767  42.3635054  89.8853302 104.6129227  41.0922432  89.0928459
  51.3259888  29.9853492  41.9919586  50.6149721  29.8042607  42.6066923
  51.0119390  30.7266045  41.4741373 101.1194706   4.3881088  73.5317612
 100.1944733   4.1421443  73.5212660 101.1244106   5.3122544  73.2824373
 107.9615784  88.7061977  15.1706433 108.2385254  89.5949173  15.3936291
 107.0822906  88.8132668  14.8078597  22.4966931  83.3712673  18.4865367
  21.7086935  83.8890839  18.3217525  23.0437350  83.5152721  17.7143717
 103.5919285 111.0349369  22.9963446 102.9160595 111.7051983  22.8954291
 103.1771183 110.3544331  23.5265136  20.0972199 107.2318363  33.1806397
  20.7643914 107.5814915  33.7712812  20.4814744 107.3168945  32.3080873
  48.4996748   0.7400914  60.9524536  49.0950632   0.4690259  60.2536917
  47.6757574   0.9313484  60.5043268  17.2366846 107.9439926  41.4458609
  17.5686944 107.1776199  40.9782219  16.2878728 107.8192997  41.4668322
  63.3585501  49.7353601  78.0488873  62.4769163  49.3650579  78.0061340
  63.2987547  50.5537462  77.5560427  13.6926365  92.5663567  30.8598661
  14.5255125  92.4513817  30.4023409  13.0377865  92.2132492  30.2576089
  73.6816359  23.0802703  29.9940705  73.8359451  22.4925113  30.7336378
  72.9021454  23.5774851  30.2418733  61.9111586   1.1444834  10.0009441
  61.5700865   0.3970069   9.5098454  62.6657104   0.7952847  10.4752278
  83.1536484  48.6334658  93.8636971  82.3341465  48.8359594  94.3149471
  83.1170845  47.6888895  93.7131023 102.2000122  96.6326618  91.2198544
 102.5212479  97.5250244  91.0905075 101.4126396  96.7366409  91.7541504
  26.8115234  66.6648293  33.7022972  26.9646883  67.6095104  33.7210512
  26.9429922  66.3828564  34.6075249  65.1465273  90.0867367  46.9600010
  65.5444384  90.7378101  47.5379229  64.9857187  90.5583477  46.1427116
  59.8409700  85.2484226  80.5699539  60.6800222  85.7067680  80.6163025
  59.7164154  84.8874950  81.4477062  68.4262800   6.3945562  45.3456402
  69.2290592   6.7054230  45.7641315  68.1175709   7.1425682  44.8343563
 108.7688160  28.3804512  63.5021162 108.8541317  27.5725794  64.0083742
 108.6721516  29.0673542  64.1617012  30.2620769 109.8495007  15.7045126
  30.1993227 108.9447117  15.3985035  30.2075577 110.3763294  14.9071956
  93.8984108  28.0235434  27.3051715  93.5360050  28.2927084  26.4611077
  93.8970089  27.0669079  27.2723246  58.5798883  20.4470658  37.6215887
  59.0454292  20.4001904  36.7865396  58.1679344  19.5880795  37.7146912
  43.9312029 111.5007305  72.2491932  43.1691217 110.9215832  72.2558928
  44.3139458 111.3828945  71.3797903  44.1036892  37.6042962  19.3986762
  44.3350029  37.0885444  20.1711559  44.7232151  37.3200941  18.7266302
 108.6643600  48.4655619  33.8112330 109.3409252  47.7940464  33.8982010
 109.0188026  49.0809584  33.1694460  64.6178389  20.0017691  41.0560703
  64.8781967  20.8910632  41.2960768  64.4549179  19.5659101  41.8925619
  61.0132885  20.2534246  87.2982693  61.5995693  20.4506707  88.0287457
  60.1385736  20.2515173  87.6869774 110.0753212  81.4421272  89.4218445
 109.2591286  81.9353008  89.5046043 110.2861404  81.4826965  88.4890270
  13.0618036 102.1430206  38.0387974  12.3214555 102.4675179  38.5514593
  13.8096380 102.6542950  38.3479571  92.2209167  12.6614511  20.0866485
  92.2514915  11.7518604  19.7900987  92.0758915  12.6007891  21.0308528
 105.1235676  41.0649347  68.4931850 105.2126980  40.9370661  69.4376087
 105.7449055  41.7630577  68.2863188  87.7157021   4.5409003   4.7951880
  87.2187805   4.5760837   3.9778367  88.6072826   4.7822091   4.5440176
  75.0495338  11.1403716  18.2997715  74.1199732  11.2088847  18.5176301
  75.2106476  10.1993513  18.2308233  67.5244856  27.4305367  17.5670111
  67.8508759  28.3298063  17.5988662  66.7248487  27.4471951  18.0928791
  97.0327473   8.6367446  37.7311301  96.1762142   8.5417032  37.3145342
  97.6099110   8.9328140  37.0272422  58.2556152  18.9024282  79.6638203
  57.4820185  19.4376254  79.4867706  58.6446333  19.2949188  80.4453850
   4.1208997 108.6312008  68.2511854   4.0066516 107.6891041  68.3761978
   3.8382429 108.7893009  67.3504400  65.0810337  86.1785221  80.0837994
  65.6496334  85.6023788  80.5946636  65.6691360  86.6029263  79.4590998
  32.9390168   5.6556708   6.6054296  32.8854823   4.9318472   7.2294855
  32.3006773   5.4348677   5.9271961  54.6704006   9.9403262  34.6260142
  54.5508766  10.6813920  35.2199554  53.7884760   9.7400224  34.3124604
  37.6061034  20.8486581  38.3472991  37.7581215  20.9462714  39.2872953
  37.9807472  21.6400886  37.9606295  61.9814730  97.9869270  60.6130409
  61.7670441  97.9028511  59.6839666  62.0000935  98.9309692  60.7700777
  80.5634308  22.2836637  11.2460136  81.2429810  22.4227571  10.5863929
  79.8435068  21.8747520  10.7656729   3.6583009 106.1117744  16.7228234
   3.4420532 106.1642075  17.6538014   2.8359312 106.3089848  16.2744379
  51.0167742   9.6079695  26.6593504  51.2021255  10.1534069  27.4237967
  51.2947464   8.7295389  26.9188166  11.7947304 108.3252907  17.4568594
  12.1484923 107.9221249  16.6640532  10.9145665 107.9583454  17.5398958
  61.2598372   6.5302610  29.4046021  62.1385717   6.4236814  29.0403295
  61.3398314   6.2378114  30.3125143  68.0180788   3.2614946  26.9247603
  67.3510408   3.7185058  26.4124775  67.9687977   3.6612561  27.7930880
  95.2899551  13.9519393  23.8957071  96.1083031  14.1875529  23.4586358
  94.7602081  14.7482777  23.8576722  70.5477858   6.6840130  42.6051998
  70.3515816   7.5620639  42.9319429  69.7251415   6.3825464  42.2197008
  94.4482422  16.4709198  23.5136914  94.0080357  16.7730117  24.3081641
  94.8214722  17.2645390  23.1301594   3.0562744 103.4793377  46.1240149
   2.2417375 103.8249874  46.4891005   3.2387099 102.6966953  46.6440392
  42.4914265  10.9017742  57.5568676  42.3772144  11.8292046  57.3493576
  42.6211929  10.4804492  56.7072344  61.9959021  90.2870083  23.9146686
  61.1762524  90.5992222  24.2979765  62.6529121  90.4453182  24.5925355
  41.5787649  77.5243521  47.2863340  40.7226562  77.2292280  46.9761515
  41.9515467  77.9999828  46.5440130  63.1936550  24.7519326  21.8734932
  64.1096973  24.9680185  21.6991019  63.1126547  24.8029709  22.8258920
  72.8837109  32.9819369  62.1631336  73.1606054  33.4094024  62.9735899
  73.6440611  32.4677253  61.8916941  63.9780378 108.3442402  34.6189380
  63.6875153 108.8139153  33.8371253  64.8881769 108.1121349  34.4345307
  82.3893547  21.7347145  57.6850271  82.2361183  21.3218069  58.5348845
  83.2010555  22.2284865  57.8015280 103.2359123  53.1312037  95.5672455
 102.2961140  53.3128405  95.5638218 103.3970833  52.6871777  94.7347260
  88.9220142  21.7047620  36.1996961  88.9898014  20.7574320  36.0805392
  88.0229473  21.8450713  36.4967346  67.6560354  10.0261021  38.2684660
  67.5617886  10.8446968  37.7813816  66.8100548   9.5894575  38.1690097
  66.9430304   5.2954316  21.9906068  66.9117022   5.4054844  21.0402703
  67.8728533   5.3596693  22.2086334  52.6584196  27.4714184  52.3790550
  53.4040880  27.3975801  51.7834425  52.1714973  26.6566515  52.2553825
  81.8890572   9.4525564  39.5738912  81.7076397   9.8850739  38.7394786
  81.2211895   8.7700605  39.6400857  10.0060713  96.6020584  86.7704010
   9.8084170  95.6771088  86.9174671   9.1497326  97.0155144  86.6609955
  58.1486225  13.8737333  34.4163156  58.0296230  13.6234927  35.3325319
  59.0851593  13.7577641  34.2560530  76.4967299   7.2319126  60.4322577
  76.1574936   8.0318344  60.0306654  75.8173466   6.9688982  61.0531378
  59.6707582   3.4781611  27.0269728  59.7263050   2.6746362  26.5097737
  60.2579498   4.0899080  26.5828967  64.0216208  26.9546676  48.8663483
  63.9904499  26.8112707  49.8122311  63.5827017  27.7954078  48.7369633
  47.1880865 109.3464279  37.5282764  47.8584242 109.9156761  37.1503472
  47.1543169 108.5925198  36.9394445  86.6873741  17.6120150  87.8008270
  87.3039532  18.0946982  87.2502995  85.8419514  17.7200615  87.3651409
  30.0453615  32.7193832  21.9236994  29.4917250  33.2689118  21.3689566
  29.4469595  32.3611140  22.5792813  87.0569611   4.0106750  20.6277204
  87.9595566   4.0301928  20.3096247  86.8266773   3.0816466  20.6380129
   2.7317750  63.3839560  86.7226791   2.8208193  64.3120575  86.5060520
   2.3579220  62.9889488  85.9350014  87.0109653  99.8027611   9.7178465
  87.6410103  99.2530060  10.1837337  87.0359802 100.6404209  10.1803732
  85.1303005  11.1490285  73.3128214  84.4017696  11.7688525  73.2768536
  85.8058262  11.6024208  73.8171339  87.4751413   0.1859901  22.7117705
  87.5162685  -0.4090073  23.4604478  86.5421236   0.2502106  22.5078368
  16.4426756  17.2122490   6.0407788  15.6153810  17.4609339   5.6285030
  17.0812809  17.8329086   5.6897849  17.7991676  74.9790287  81.7466450
  18.4772408  75.3227711  81.1650181  18.0757701  75.2484417  82.6225090
  54.1401911  17.3813701  43.1296730  55.0245428  17.7447546  43.0837011
  53.6893702  17.7515984  42.3707771  94.2148876  56.7033434  20.9703946
  93.4550762  56.5022516  21.5167356  94.8698902  57.0358849  21.5840912
  41.3668156  87.3075104  21.1610222  41.0622597  87.6079559  20.3047442
  42.3036242  87.1519279  21.0409760  87.7378464   2.6992521   8.1565630
  87.9799747   2.5766456   9.0744823  88.3439922   2.1388304   7.6720595
  76.3458061   6.0142159  20.1343918  75.7511711   6.7448711  19.9647355
  76.0255957   5.6292659  20.9501815  71.2950945  15.6217134  79.3398952
  72.1400166  15.2881110  79.0381432  70.6657314  14.9481845  79.0820312
  72.7827072  28.6834383  36.5113139  73.4559107  29.2710042  36.8545318
  72.9652977  27.8409815  36.9274378 108.3906937  39.7606492  33.6353016
 109.2730522  39.3950486  33.6987400 108.0746937  39.7818112  34.5385885
  51.1990595 104.6615505  36.7937326  52.0514441 104.2359257  36.8860221
  51.4067411 105.5619907  36.5440965  43.6985445  24.8137760  21.6759706
  43.0975151  25.5062604  21.9506741  43.4007645  24.5721674  20.7989383
 111.7089272  46.0716915  92.9284954 111.5651131  47.0137644  92.8387833
 111.7883682  45.9302950  93.8718510  87.3554611  24.1980362  40.3820133
  88.1449795  24.7100401  40.2066612  86.6492844  24.8440647  40.3962374
  46.6313839  94.9370575  38.2404876  46.8478251  95.2705765  37.3697686
  46.3880634  94.0230846  38.0932188  51.5875780 110.6511888  47.1115208
  50.6834089 110.9576334  47.0422602  51.8771898 110.5525811  46.2045288
  27.4004483 109.1374111  56.1820459  27.1659589 108.4665680  55.5407810
  28.3575082 109.1304493  56.1968756  98.6263371   4.4912443  17.3045385
  98.6907768   5.4414004  17.2081947  98.8726139   4.1462317  16.4463162
  50.6536293  20.4120278  17.6561773  51.1699867  21.1567760  17.9643214
  51.2735367  19.6829820  17.6353991  26.0355019  57.1599505   0.9725351
  26.3075375  56.2712868   0.7433958  26.7224907  57.7210184   0.6126947
  75.1551437  10.3155470  38.0017948  75.1613808  10.8054471  38.8241029
  76.0726595  10.0877857  37.8517222  62.7506971   8.7660182  41.6383982
  62.0278740   8.1621915  41.8091345  63.0021572   9.0893143  42.5035477
 104.7091103  38.1593060  27.9121780 104.8624802  37.9816580  26.9841957
 103.8102341  38.4863734  27.9480600  30.4349661 104.6671104  46.8249846
  30.0863075 104.8509216  45.9527016  30.8972025 105.4681301  47.0718479
  61.1266470  28.6936808  26.7551327  60.8466101  27.8095841  26.9921660
  62.0295668  28.5867739  26.4559031  70.5952883   4.1826925  33.2704234
  70.5844688   3.2560778  33.5102153  70.0029087   4.5990425  33.8964963
  76.8089867  19.9524713  39.5670915  76.8293095  20.3383565  38.6913562
  75.9102726  19.6395445  39.6701384  52.7131987  -0.0484609  41.1669493
  53.2600212  -0.5063835  40.5285740  52.8822994   0.8796860  41.0051489
  76.7919159   6.8406713  26.9326234  77.7458668   6.8433040  26.8538666
  76.6231823   6.4423102  27.7864790  27.2957873 108.6301517  63.4761000
  27.2114229 108.6194897  62.5226831  26.4171362 108.4264469  63.7965870
  83.2499695  26.7981195  36.5109849  83.1775761  27.4521065  35.8157945
  82.8027725  27.1934915  37.2592735  54.5467281  92.8737545  57.7833319
  54.2316771  93.4465218  57.0841122  53.7504435  92.5373650  58.1944370
  87.2003841  19.4239342  66.4216232  87.9304218  19.8741126  65.9966326
  86.4914322  19.4580638  65.7793999  58.8066244   9.8697561  63.3473969
  59.3124628   9.7145432  62.5497293  57.8995705   9.7009754  63.0924463
  45.4012537  80.6990242  26.9477987  45.4200888  80.6402493  25.9925914
  44.5483637  81.0850716  27.1472383  83.2062912  31.0943484  14.3646324
  84.1358089  30.9056616  14.4935274  82.8784275  30.3497601  13.8603210
  54.9936819  12.6527524  18.5728014  54.1538811  12.9324138  18.9371634
  54.9902153  11.7001796  18.6667407  65.7343721   5.8208174  58.5744333
  64.9508858   5.6519997  58.0510998  65.5842781   6.6846138  58.9585686
  47.7750206  20.9960294  29.3462682  48.3999634  20.7500219  30.0282955
  48.1814528  21.7432141  28.9072227  77.2313213  14.6641123  55.4989386
  77.1494579  15.4658568  56.0154009  78.1695938  14.5847440  55.3269672
  93.3087635  21.4718008  15.1975584  93.8825130  20.7733917  14.8824930
  92.7490997  21.6780233  14.4489074 103.4957027  29.0836048  47.8261518
 103.7458229  29.4080520  46.9610500 103.7093735  28.1508422  47.8031158
  80.1525021  38.1219769  39.3595910  79.5831060  38.2184315  38.5962272
  80.4569626  37.2154284  39.3182778  32.4160147 102.5886250  46.5201712
  32.1306705 101.7596340  46.1359978  31.6263151 103.1293011  46.5367842
  86.4642334  17.0405972  30.6924105  86.2291145  17.7388573  31.3034582
  85.6368065  16.5970540  30.5056834  51.1630106   2.3378803  31.8794990
  51.7672729   2.9128164  31.4098763  50.2932310   2.6596501  31.6424632
  64.8222351  35.6091237  65.8434057  64.0111589  35.5567408  66.3490200
  65.3752184  34.9166775  66.2052917  82.5708199  22.3842597  30.5433249
  81.7676258  22.0636296  30.1330733  82.5260258  22.0603991  31.4429569
  94.4546795  33.1302118  64.3505716  93.5280132  32.9769039  64.5349979
  94.9140072  32.7501154  65.0994205  89.5404530   5.4633206  38.0806351
  90.0699520   4.8005649  37.6372266  89.0214729   5.8619648  37.3820806
 111.8053150  48.7057352  44.9610376 111.6025639  49.2717886  45.7058239
 112.7466869  48.8149977  44.8264408  50.2147245   6.5710551  30.0371718
  49.7600651   7.4124444  29.9974012  51.1440182   6.8004167  30.0304556
 101.6628933  11.8257952   6.5701193 102.4674129  11.4080942   6.2626857
 101.9295502  12.7141547   6.8066466  49.1419315  24.4815803  34.9831343
  48.3385229  24.9448729  34.7462344  48.8433647  23.6245155  35.2873206
 103.8851452  40.2469969  30.1313591 104.5118427  40.5619097  30.7827544
 104.3930340  39.6542597  29.5773339  92.8799820   2.9949644  15.2568424
  92.4265289   3.7616253  14.9063587  92.1781254   2.3868430  15.4888141
  94.0901756  24.1068411  15.0772727  94.6965408  24.2392349  15.8059871
  93.7725449  23.2109094  15.1897395  76.0609102  29.6311259  12.9139411
  75.8743238  30.0982523  12.0995641  75.3107357  29.8222065  13.4769368
   7.1880156  99.6203709  26.0097551   7.1144140 100.5074692  25.6578135
   8.1149453  99.4012070  25.9148932  98.5103989  24.1267204  62.1087933
  98.9842892  24.4250059  62.8851223  99.1069889  23.5084295  61.6868639
  59.8754978   5.2589262  44.5869637  58.9234543   5.1817513  44.6493435
  60.1970720   4.9459815  45.4324770 116.7125225  25.3505731  36.2090778
 116.9391537  24.6186781  35.6353164 117.3374939  26.0379863  35.9786439
  56.8769884  17.3793626  33.8994241  57.2171879  17.8183162  33.1197977
  56.7444086  16.4720428  33.6247873  72.1176434  26.4768338  33.4672642
  72.5749493  27.2654057  33.1752753  71.2547636  26.7878604  33.7410021
  14.5467758 105.2525711  17.0142877  14.5221853 104.9518204  16.1058962
  13.6987269 105.6753254  17.1496594  25.8554363 106.1550426  44.6993017
  25.4212523 107.0069981  44.7428083  25.1410794 105.5195522  44.7449350
  56.8696356  87.2151852  23.7258816  57.5756073  86.9705963  23.1275344
  57.3185873  87.5110817  24.5177889  80.7213116   0.7730315  59.3043900
  80.7172775   1.7114648  59.4929552  81.0821342   0.7079490  58.4201956
  69.7959661  26.1340094  26.0561776  70.0644541  26.3103890  25.1544929
  70.4309940  25.4921532  26.3739705  78.6649513  35.6869030  18.8600433
  78.7193823  36.4798379  19.3934536  77.7279997  35.4988551  18.8053906
  15.0749946 108.7807846  54.3962145  14.8208964 107.8597069  54.4535589
  15.9363997 108.8179398  54.8119450  60.8690977   1.1902995  25.6039405
  61.6007185   1.7671844  25.3844619  61.2492847   0.3118446  25.6068730
  96.6436768  14.4975495  41.0827255  97.4229431  14.1066611  41.4779139
  96.4797306  13.9681745  40.3022671 114.6853352  82.7437019  50.9026146
 114.7572136  83.6921024  51.0103273 115.4853153  82.4938583  50.4401779
 106.5896225  14.7343445  58.6235142 107.2946835  14.6625388  59.2669201
 106.3223743  13.8300300  58.4591246  77.6159477  25.5864859  18.9091504
  77.0800400  24.7940254  18.9414132  78.2247066  25.4939485  19.6420109
  63.6287880  17.8986549  29.0617990  63.5104847  18.7371981  28.6156130
  64.0679836  18.1236362  29.8819947  71.2084532  18.9164031  59.6149206
  70.5496597  19.5987332  59.4858837  71.9140863  19.1474557  59.0108252
  72.3268986  32.8938174  35.2852678  71.9724941  33.6302757  34.7870111
  72.8561401  33.3011365  35.9709954  28.7301874 101.1195660  40.0802946
  28.0067539 101.3544083  40.6614351  28.3043528 100.7963657  39.2862964
  79.8020697   2.6882246  27.5821996  80.1463699   3.4015509  28.1196547
  80.1539040   1.8940324  27.9843187  67.5613499  11.5102613  34.8815274
  68.1516838  11.8588972  35.5495071  67.9549599  11.7775559  34.0509510
  19.8513210  92.8448582  17.3128259  20.1402807  93.7573242  17.3006320
  20.5581689  92.3640060  16.8822730  77.1666574  31.2784338  14.9763417
  78.0019236  31.5515542  14.5969093  77.1282911  30.3353262  14.8172486
  87.2857380  20.8095646  18.9508593  87.8990650  20.1081252  19.1700435
  87.5896549  21.5611649  19.4597435  77.1313381  33.5837054  38.1040525
  77.1509504  32.8437185  37.4972034  78.0526590  33.7679386  38.2869697
  53.2256174  29.1552019  45.8420324  54.0798283  29.3103218  46.2451363
  52.7555513  28.6150622  46.4772606  62.3527622  17.0781553  38.0521250
  62.7119398  16.1938608  38.1245470  63.0332899  17.5767970  37.5999427
  97.4398327  11.4555228  39.7415924  98.1431580  10.9932029  40.1974726
  97.8393269  12.2769237  39.4553542  86.4489651   3.7967694  36.2947726
  85.6814003   4.2569497  36.6343498  86.7667294   3.2814717  37.0362067
  52.4529696   4.0111026  30.0741148  52.7709484   4.6140781  29.4021463
  53.2355022   3.7714365  30.5705333  42.2785139  20.9142494  41.5278387
  42.3575354  19.9646556  41.4369631  42.9449987  21.1493611  42.1734047
  76.7597055  21.2418485  37.0628548  76.2339783  20.7633448  36.4218569
  76.3321590  22.0952916  37.1340823  14.8411191  94.4587898  76.7641544
  13.9259338  94.1841125  76.7074060  15.2676523  94.0249825  76.0251617
  84.7964001  29.6437073  19.0682912  84.8563480  30.4831982  19.5242453
  85.4204082  29.7182035  18.3462775  66.9002771   1.5352346  43.8996029
  67.1064520   0.9030391  43.2110882  67.6611567   1.5139295  44.4799852
  67.0498276  29.3465495  34.8705626  66.3520956  29.0280247  34.2978954
  67.7383757  29.6350884  34.2714977  58.4043121  16.2281501  17.3055422
  58.5734701  16.9365978  16.6844785  57.4746275  16.0291910  17.1945119
  89.8036766   7.5624508  28.2066321  89.8073196   6.6884375  27.8163505
  90.3224468   7.4700820  29.0057468  96.6980934  28.4774303  56.8381739
  97.4651146  29.0035176  56.6120434  96.1274338  29.0791392  57.3162174
 110.2354527  51.2985229  35.8706212 109.7136974  51.5168333  35.0983930
 109.8161888  50.5165386  36.2297130  63.2016325  17.2776198  10.9707093
  62.6173639  17.6181030  11.6481543  64.0421343  17.1638274  11.4143813
  19.6376812  73.4994698  42.1660662  19.0321636  72.7893353  41.9532537
  19.9232435  73.3109236  43.0600119  55.4201603  95.2121830  45.0604725
  56.3579178  95.1227570  45.2303362  55.2830791  94.7586060  44.2287874
 101.1225605  40.8413410  59.3915462 100.2536869  40.4905748  59.1959476
 101.5534496  40.1484919  59.8920774  98.5207748   3.7725115  34.4810295
  98.7989330   4.1190308  35.3288436  99.0425491   2.9786175  34.3639135
  52.9067326  14.8722577  68.3980227  52.1208906  15.4065919  68.5127926
  53.4954977  15.4205000  67.8793526  81.8074226  40.3703594  36.2304902
  82.7006245  40.5596733  36.5178466  81.2610912  40.9752703  36.7323303
  48.4785128 102.5919342  34.8680973  48.9070892 103.4477711  34.8585367
  48.8998079 102.1051693  34.1597176  90.3037834  25.8101559  25.8182240
  89.8413372  26.4216089  25.2450752  89.9012184  25.9361577  26.6774631
  26.1721206  97.9611588  27.5657821  25.6094623  97.4573708  26.9777012
  25.6134796  98.1643963  28.3160138  52.3299456 103.1622982  81.3609409
  52.0503807 102.3187542  81.0052490  53.2579374 103.0416489  81.5622044
  91.2617874  12.0457709  54.5804644  91.4279366  12.8797901  54.1411066
  91.8894768  11.4390361  54.1879034  56.7631769  31.6383719   7.5423330
  57.1227646  31.8810534   8.3955812  57.1516848  30.7843351   7.3528177
  36.3961196 103.6467361  39.5422125  36.6834760 103.3960819  40.4201794
  37.2070074 103.7390423  39.0420365  71.6127634  13.8969529  27.6960206
  72.1107864  14.0587163  26.8947482  70.8306980  13.4300125  27.4017906
  84.9307919  13.6980104  10.5205536  84.4173908  14.4623852  10.2590442
  85.7534695  13.7859595  10.0392151  78.5729074  33.5420680  23.7544274
  77.8221750  32.9861212  23.5457230  78.5613775  34.2226553  23.0814505
  20.8643341  96.0213852  32.9170012  21.6076589  96.4278603  32.4714971
  20.0984001  96.3219452  32.4278831  34.1741204  87.0496845  18.8676357
  34.2797589  87.4668312  18.0126143  34.5472193  86.1753845  18.7553155
   4.8409286   3.0155697  52.0111465   4.9644655   3.4979114  51.1936426
   4.3332654   2.2440377  51.7596531  84.8319626  10.3239667  24.9042034
  85.6239605   9.7864020  24.9024105  84.4194603  10.1398945  25.7481194
  30.9331155  12.7033269  23.5090542  31.6502810  13.1822348  23.9244485
  31.0934234  11.7874217  23.7363243  84.1236210  76.8877602  77.3836422
  83.6852646  76.0440969  77.2727251  85.0564480  76.6834879  77.3177290
  53.2567072  10.5978930  21.2718153  53.0723429  11.0233080  20.4344010
  52.9843092  11.2370312  21.9302487  65.2551699  13.0146730  33.2330751
  65.6262589  12.8785861  34.1048574  64.3089724  12.9506600  33.3628702
  33.6729836 108.4520149   4.8531687  33.4114957 107.6003265   4.5031905
  33.0999398 109.0786648   4.4114029  62.7224159   8.7849426  31.5304947
  61.7816734   8.7659150  31.7061925  62.8828764   9.6609557  31.1796594
 101.7303562  65.2664900  88.2013988 102.4867916  65.8345795  88.3474064
 101.9546318  64.4497108  88.6472797  39.3242931  98.7814045  19.3529963
  38.3681345  98.8118076  19.3856549  39.5976663  98.8560390  20.2672887
  61.3213253 105.2829933  37.9950738  61.7885494 104.6595860  37.4389243
  61.5016270 106.1368084  37.6017141  47.3658943  16.3589752  20.0281763
  47.8729725  16.8346405  19.3702638  47.0593309  15.5745709  19.5732474
  74.8266411  36.1578441  21.4111066  73.9622355  35.8044982  21.2009239
  75.2277470  36.3319278  20.5596137  44.4930220  30.2247977  26.0057855
  43.8198423  30.6299782  25.4590774  44.0052414  29.6706390  26.6150546
  78.0136967  18.5794294  48.4946489  77.4249220  19.2544162  48.1570482
  77.5333881  17.7603364  48.3737183  31.9087195  97.4693775  26.9106793
  32.0749235  97.7333927  27.8156114  32.0868874  98.2559490  26.3951278
  54.8506641  99.0773964  10.7046103  54.8133278  98.8131714   9.7853601
  55.7343626  98.8406658  10.9861624  88.4118938   5.7030159  35.6233954
  87.8464699   5.0789922  36.0785055  88.6583805   5.2563769  34.8134637
  11.6650200 111.0695553  30.9405518  12.3201370 111.4762592  30.3734159
  11.4211583 111.7593384  31.5577674  76.9868898  12.0859718  28.3560157
  76.3142014  12.1793640  27.6814795  77.7083588  11.6380072  27.9143810
  74.7095823  37.7061939  36.8812346  75.3754616  37.2641015  37.4079180
  75.1786709  38.4234476  36.4549351  98.5049820  12.8189421  10.8646739
  99.1692638  12.1324790  10.8035481  97.9079437  12.6398599  10.1382375
 110.9775639  96.9742870  96.0322189 110.0253868  96.8764305  96.0347557
 111.1252499  97.8865147  96.2817574  85.3768158   7.3512828  32.5502586
  85.1776314   7.3859388  33.4858656  85.3612328   8.2657957  32.2680283
  44.2711544  10.1776755  36.0191274  44.7559834  10.9625459  36.2743688
  43.4204245  10.5058026  35.7278848  62.9759979   4.4771385  36.9220257
  63.0062485   3.8370922  36.2109280  63.6760759   4.2077944  37.5166440
  88.2428741  18.6612451  48.0043411  89.1390038  18.4029150  48.2198620
  87.7062416  18.2550311  48.6849737  62.9605055  10.4330015  22.1440053
  62.3071909  10.0172520  22.7066469  63.4423542  11.0182106  22.7284575
  73.9112377  27.4845171  20.2647305  74.5003414  27.8101516  20.9452820
  74.1133595  28.0192924  19.4970107  31.3808393  79.7719479   0.5307229
  31.5927720  78.9863873   0.0265324  31.5825176  79.5369005   1.4364317
  42.4829531  22.3323011  19.5715940  42.5681019  21.6222119  18.9353907
  43.0963564  23.0012274  19.2674363  62.7794695  14.5078933  54.5960951
  62.8946829  15.4581308  54.5985651  62.9669762  14.2462361  53.6946487
  96.5807915   6.6124332  31.7629814  96.3671207   6.3882625  30.8572650
  96.3046265   7.5242376  31.8555832 116.2972927  25.9625697  46.1956072
 115.9668636  26.5589833  45.5237913 116.1688995  26.4341235  47.0186424
  75.4720354  18.5611093  53.9263725  75.3639841  19.4610667  54.2339993
  75.8486176  18.6508167  53.0509472  77.5979996  40.3169680  31.7595005
  78.5391045  40.4701185  31.8437910  77.2177219  41.1929274  31.6938400
  75.2439690  37.0641994  40.9469032  75.1474237  36.2786102  41.4851999
  76.1685181  37.2982764  41.0284376  61.3310766  40.8182192   4.5656145
  61.2233782  40.7880306   5.5162573  60.4378605  40.8652687   4.2247558
   8.1261271  18.2155585  88.2490540   7.3392457  17.8810191  88.6793232
   8.8224643  18.0928087  88.8942528  90.2834034  25.3308821  34.2395878
  89.3776798  25.4367328  34.5305967  90.4107761  24.3833470  34.1928673
 114.7467232   8.8550603  40.1467514 114.8989677   7.9206765  40.0054073
 115.1922035   9.2835647  39.4158864  93.8979435  69.9925518  16.2915516
  93.0432415  69.9985933  16.7224526  94.5256805  70.1201057  17.0028317
  19.9442184 109.2048550  39.9064612  19.7884512 109.1364670  38.9645004
  19.6197569 108.3781338  40.2635241  80.5581760   7.3260254  36.5537548
  81.3448429   7.3569214  36.0093021  79.8513889   7.1202064  35.9419346
 117.2738075  46.4843798  18.2258379 117.3733330  47.4321842  18.1364548
 118.1517982  46.1707449  18.4426272 106.9970703  50.9746695  42.9214191
 107.8437328  51.4125824  42.8341103 106.4231396  51.4393616  42.3124123
  27.0881271  86.2820625  92.2072601  26.8473530  87.1964550  92.0584488
  27.7123451  86.3136864  92.9322338  63.3677816  13.8299942  29.6994877
  64.1586733  14.2112732  30.0807405  62.6648808  14.4244146  29.9618244
  75.4226255   6.6523749  24.6810818  75.7713842   6.7792040  25.5634165
  75.7659340   5.8016646  24.4078350  95.8387661  37.6870680  21.9793200
  96.0196304  38.3852124  21.3499451  95.7208729  38.1413126  22.8135824
  66.0154152  14.4526649  25.0596929  65.9362936  14.4633532  26.0135579
  66.4003658  15.3015184  24.8417616  70.1518536  10.3379774  13.1899381
  70.9350443   9.8161596  13.3647263  69.4624662   9.9137753  13.7008536
 107.9902554  29.1955113  39.8729992 108.7885666  29.6086621  40.2019739
 108.2799339  28.3462667  39.5396829 116.1299419 102.6115036  93.6129951
 116.9275665 102.4896049  94.1279316 115.4542065 102.1437740  94.1037560
  91.0077763  36.8238926  27.3360491  91.0153580  36.7332911  26.3831758
  90.6509209  35.9940672  27.6527119  78.3957863  16.1545324  30.1080060
  77.6236200  16.1913157  29.5435286  78.2782888  15.3561890  30.6228590
  89.3543053   4.2032564  33.5507917  89.2799187   4.2273957  32.5967932
  89.5524597   3.2887769  33.7525177  26.5035629 107.3205471  33.8899159
  26.9575429 107.6984024  33.1366825  26.1472607 106.4937687  33.5647917
 111.8313217  27.0893884  35.6449485 111.5988827  26.7065287  36.4908934
 112.2518158  27.9204869  35.8656120  64.3221331  31.5896726   2.5965002
  64.4417286  31.7468810   1.6599028  64.9270582  32.1982574   3.0206746
  98.7064266  37.4552393  22.7782011  97.8228283  37.1975422  22.5153923
  98.6696529  38.4098530  22.8381348  72.3061132  35.3075266  38.5860276
  72.2587299  36.0367107  39.2043161  72.7029848  35.6846690  37.8008580
 102.0419502  22.0728612  44.3508959 101.5571213  21.5009308  43.7558556
 101.8936825  21.6967130  45.2185154  79.5447922   6.5569830  26.4478636
  80.1613522   6.8416631  27.1224356  80.0827694   6.4429963  25.6643963
  89.0258789  33.6027861   0.7275984  88.2720375  34.1882992   0.6559555
  89.7834110  34.1878223   0.7380803  17.8402472  36.8899679  36.0715771
  17.5729465  37.2888589  36.8996286  17.2378516  37.2559428  35.4239559
 116.6509914  12.3435497  32.4273372 117.0767307  11.4895380  32.3522329
 117.3567009  12.9423273  32.6716113  54.3720865  12.4193931  27.6240253
  54.3892956  12.6837850  28.5438251  55.0112104  11.7091143  27.5669813
  78.9947462  33.3633423  26.7591023  78.9755106  32.5448442  27.2550106
  79.2485046  33.1012964  25.8741331  65.5772591  25.6056690  37.7133799
  64.8844337  25.5363798  37.0565534  65.8903265  26.5070033  37.6371169
  35.1057625  74.8105001  44.2475700  34.7949743  73.9488125  43.9698362
  35.9914422  74.6518660  44.5741320  96.0946751  36.3388228  15.9328628
  96.4581490  35.6637812  16.5059602  96.5625286  36.2277055  15.1052177
  59.2607069  27.1752572   6.3637930  60.0534153  27.7064157   6.2881958
  59.1520929  26.7824554   5.4976851  62.2911787 104.6849155  19.4166505
  62.9259348 104.5331001  18.7164605  61.4404106 104.5290565  19.0066099
 115.4251862  28.0542207  16.5398669 114.7560787  27.5549269  16.0716438
 115.9908962  27.3884797  16.9310093 100.4681206  39.1472960  41.8845272
 101.2823009  38.6456060  41.9252253 100.0378418  38.9738917  42.7217960
  70.2861834 110.8797646  48.8153696  69.8254681 110.9929752  49.6467257
  70.4658079 109.9408150  48.7670040 110.7050896  52.5375032   1.9612092
 111.6353321  52.5774813   1.7392322 110.2826786  53.1183910   1.3284561
 115.5029678  60.4910946  75.1033735 116.3860416  60.1622677  75.2715349
 114.9848366  60.1754522  75.8437347  79.2895365  39.6392608  29.1254497
  79.6357441  40.5223751  29.2538142  79.8931122  39.2334890  28.5031343
  80.1985455  41.4988089  32.1815395  80.7308006  42.0472050  31.6051793
  80.8348656  40.9770679  32.6705289  77.5555801  39.0783215  43.6318159
  78.2644320  39.4518828  44.1554737  76.7927217  39.6167088  43.8425875
  50.4110575  99.8495388  43.3691740  49.7206450 100.2747536  43.8778591
  49.9519444  99.4463444  42.6323700  60.2467489  30.8709121  11.8401635
  60.2128792  30.1409030  11.2219632  59.6971560  30.5906773  12.5720441
 116.8399143  25.5910254  25.9537220 116.2456131  25.1040602  26.5245938
 116.6255379  26.5102077  26.1130309 103.0856705  24.9447346  56.7935658
 103.8263035  24.5508242  57.2545719 102.3214912  24.4664240  57.1152544
 100.0798702  26.3736176  14.1005051  99.9590397  27.2019076  14.5647967
  99.3186283  25.8479762  14.3463326  93.2060337  34.8261213  47.2160673
  94.0223026  34.8248267  46.7161322  93.2294941  34.0096211  47.7150726
  69.3179512  35.2212524  38.8565993  69.6692991  34.7954750  38.0746126
  70.0045013  35.1164484  39.5153069  72.5640678  22.9620552   9.7962350
  73.1894255  23.6528707   9.5772898  72.1697712  22.7214098   8.9578718
  71.0384369  30.4181004  38.3279204  71.5379953  29.6914744  37.9555154
  71.6420031  30.8325720  38.9444852   6.2591082  49.3829346  44.3509197
   7.1440059  49.1239452  44.6080399   6.0321510  50.0910664  44.9536419
  59.0996361  23.4817219  29.3989301  59.1046238  24.3498468  28.9957333
  58.3446884  23.4952068  29.9872375 110.7445908  99.8334599  92.7449322
 110.3659153  98.9730549  92.5645351 110.7407665 100.2791977  91.8978500
  96.5313435  20.2623272  40.6875420  96.4226532  20.4443073  39.7541094
  96.5639210  19.3072999  40.7431698  47.2986364  86.4792156  55.9591436
  47.3864889  86.4884186  55.0060272  46.6995859  85.7542610  56.1374712
  26.5813732  55.6390905  68.6085653  25.7186437  55.3328943  68.8881588
  26.6367435  55.3895378  67.6861286  86.7767048  28.8445187  35.8579469
  86.2913704  28.0257726  35.9596300  86.9493961  29.1334510  36.7540097
  90.1966095  33.6585951  40.6271839  89.2754173  33.8493133  40.8040237
  90.3267956  32.7723789  40.9646893  86.0189915  21.8390155  57.9455853
  86.5772057  21.7925572  57.1693993  85.5893326  22.6919127  57.8808975
  82.9036903  16.0052752  34.8537946  82.6745510  16.3238502  33.9807320
  82.4830341  16.6227710  35.4521108  38.6531591  17.8262520  35.9934306
  38.5687256  17.6942134  36.9377136  38.1700563  17.0966637  35.6054282
  77.1523285  27.3751044  27.0522833  77.2088861  28.2738948  26.7279196
  77.8801203  27.2968221  27.6690674  61.5059376  21.4241886  17.9627609
  62.0524979  21.9951630  18.5026610  62.1104956  20.7634354  17.6248991
  59.9323130  -0.1087814  28.7937689  59.9601030   0.8217405  29.0164542
  59.1159678  -0.2138364  28.3051157  72.2551298  45.6208420   1.2045499
  71.6262007  45.0721645   1.6731966  72.9141617  45.8445597   1.8617094
  77.7479458  28.1261373  20.7349944  77.0574284  28.5741138  21.2236047
  78.5176849  28.1834316  21.3010740  23.9851665 107.9500675  49.6545887
  24.8847532 108.2770252  49.6628141  23.4487414 108.7285423  49.5047283
  85.5284214  66.9469404  21.0998273  85.5143166  66.7017984  20.1746583
  85.9295273  66.1975861  21.5400720  67.5325823  17.1258593  45.6493855
  67.6745319  17.8289652  46.2832022  67.2651672  17.5760794  44.8481226
  55.8467639   0.5448387  15.1499045  55.4580581  -0.3283836  15.0985348
  55.8740676   0.7401226  16.0865736  19.3754888 108.6124325  24.9058771
  20.0835824 108.8832760  25.4902363  19.7836733 108.5638809  24.0414357
  78.4509468  30.1769233  27.7895212  78.0002594  29.5470166  28.3519554
  78.9658546  30.7118678  28.3936191  81.7842388  38.7081838  28.1761408
  82.0702362  37.8014922  28.0650258  82.1105289  39.1593766  27.3975587
  71.8919373  24.1704655  57.4025536  72.7611494  23.9837599  57.7572918
  71.3132858  24.1528034  58.1648397  94.2111206  27.4270821  22.1211147
  93.5660553  26.9126320  21.6358757  94.6820354  26.7832208  22.6501870
 109.7427273  23.4307599  14.5866776 109.5545483  23.8614202  13.7528014
 110.6789684  23.2351017  14.5492828  62.3325634  24.7117734  51.4417934
  62.0620728  25.6293273  51.4759016  63.2835388  24.7461009  51.3383722
  76.9844007  31.4027047  22.8095007  77.1135998  31.1649585  23.7276602
  77.7893972  31.1224747  22.3739672  77.2925854  12.6537216  44.8577833
  77.4980402  11.8102789  44.4545126  76.9609642  13.1893313  44.1371012
  68.5342121 104.1479111  44.6687841  67.8876114 104.8336124  44.5015907
  69.2278719 104.5875740  45.1604891  67.2301626  38.9995360   6.9667989
  67.7223444  39.7388339   6.6098219  66.3460684  39.1089082   6.6165924
  84.9281597  20.0072813  11.9277370  84.6460342  19.8214376  12.8233361
  85.2526379  19.1685426  11.5999210  81.0986519  22.9160738  38.3372402
  80.5364227  23.6856270  38.4262156  80.5682850  22.1921754  38.6702776
 110.9223843  72.1029329  64.8395729 111.2923527  72.1871710  65.7183552
 111.5635109  71.5792894  64.3589687  83.0176258  25.8282542  24.4167328
  82.9874802  25.2487445  23.6554885  83.0952454  26.7072010  24.0457129
  88.7208748  15.3496993  37.0651031  87.8090763  15.4822040  37.3245025
  89.1883183  15.2205515  37.8903580 105.8713531  53.3763266   0.1520192
 105.0853443  53.0125093   0.5595174 105.6589794  54.2975807   0.0022827
  82.7557468  31.5776110  61.8966389  81.8684006  31.8404007  61.6520882
  82.7605629  31.6116548  62.8532219  87.5381660  38.1783342  11.3664782
  87.9000378  38.7548470  12.0394671  87.6801014  38.6497974  10.5456197
  92.8390694  49.6603441   3.4796819  92.0541000  49.1257143   3.3604360
  93.3013916  49.5967627   2.6439488 109.9849033   9.3230885  54.8252583
 110.6416035   9.8320866  54.3499708 109.1950703   9.3907595  54.2887831
  62.1157742  27.4303150  51.7490768  61.4405441  27.9382348  52.1988678
  62.9411888  27.8141141  52.0450926  71.8451214  28.7347317   4.3427196
  72.0248842  28.0539632   4.9911574  72.3041439  28.4425879   3.5552007
  79.4844341  31.6240144  21.4997125  80.0901604  31.4666176  22.2239733
  79.9644566  32.2029018  20.9075117  95.6511593  77.2349072  89.8079681
  94.8128033  77.3463631  90.2562523  96.2404346  77.8491020  90.2458668
  61.8750858  48.7780046   1.2768205  62.2492313  49.6528864   1.1727425
  61.7807770  48.4499073   0.3825674  57.9384661  16.8004620  49.1414165
  58.0655384  15.8544803  49.0692949  57.2866726  17.0063472  48.4713411
  69.1327238  25.2240658  29.5755959  69.0121365  25.9987617  30.1247191
  70.0209522  25.3115535  29.2297220  82.5549316  27.2418141   9.5234966
  82.2852230  26.3393092   9.6937013  81.7819309  27.7662611   9.7324455
  73.4626770   1.5415502  22.1574998  73.2911730   1.6930871  23.0869365
  74.3180227   1.1122926  22.1386528  87.0519829  50.6197357  34.8698521
  87.3736191  51.2449837  34.2203546  86.4636517  50.0459290  34.3791032
 111.2628555  31.2140322  22.8525996 111.0595703  30.4768038  23.4282756
 111.3394737  31.9642353  23.4421420  86.3430405  31.0131598   6.5605456
  85.5925369  31.2828398   6.0311580  87.1026516  31.1839557   6.0037291
  68.0333185  40.2026892  11.5294290  68.1588602  39.5004582  12.1676612
  68.3999920  39.8556137  10.7162106  77.2716808  36.5733838   7.3744971
  77.2764969  35.7679319   7.8916579  76.7383480  37.1826172   7.8850085
  94.3379688  17.0135164  34.1982961  93.7922573  16.9638515  33.4134650
  93.9950085  17.7653956  34.6812987  98.3063889  42.6280212  28.3932829
  97.6657009  43.0782747  28.9437532  98.5093594  43.2556534  27.6996613
  60.8432007  97.4225712  17.7848792  60.3608894  97.7787876  17.0387483
  61.5578461  98.0434036  17.9265893 101.7483425  35.4048967  50.1636887
 102.6785183  35.2122855  50.2816248 101.4311028  34.7099590  49.5869255
  73.8318586  16.7008686   6.2833381  74.1245127  16.0373020   6.9080502
  72.8990316  16.8093169   6.4685410  32.8326368  18.7500501  77.6465082
  33.6331367  19.2127192  77.3987770  32.1533084  19.4243169  77.6360941
  97.2191728  55.2465386  96.1544744  97.2189820  54.3992562  95.7091100
  96.7376376  55.8270306  95.5650877  80.2449512  18.6930358   1.8310858
  80.3188610  18.0202270   2.5079146  79.3262529  18.6640978   1.5639159
  81.5211201  30.7300639  23.5599256  82.0338726  29.9299240  23.6743331
  80.9489346  30.7595515  24.3267155  87.8242302  27.7998376  46.7748022
  87.4352932  27.8411412  47.6484489  87.9506016  26.8649411  46.6128445
  73.5894632  18.9812768  33.3303237  72.8226519  18.4932077  33.6303616
  74.1649389  18.3154428  32.9538655   2.2596911  14.2160010  13.3599031
   2.8495717  13.5399652  13.0263638   2.8274283  14.9685252  13.5260749
  71.8469572  37.3444057  40.1941872  71.2255144  37.0124340  40.8421326
  71.9572067  38.2681799  40.4193878   1.9298880  18.9365697  19.6373951
   2.0670316  18.4405863  20.4445028   0.9854830  18.8936400  19.4874346
  76.0672045  20.6399989  47.4557686  76.0646486  21.5349841  47.7952194
  76.7379045  20.6447721  46.7728519  78.8416767  46.1496973  14.5069289
  78.6265945  46.7314911  15.2359593  79.7956085  46.1920023  14.4401288
 112.7131939  38.1223178  14.5628095 112.5437450  38.3793068  15.4691625
 112.8579712  37.1770692  14.6049440  47.5560856  94.9109840  16.3864446
  46.7970753  95.4514503  16.1672902  47.1852446  94.0585709  16.6147006
  85.1118946   0.5766638  45.1187801  84.8386192   1.0112369  44.3108797
  84.8642826   1.1860967  45.8141279  78.7564802  34.8113132  32.7538896
  79.6073484  34.9600577  33.1663561  78.2448149  35.5901265  32.9727054
 111.7118835  24.1829991  27.2273612 111.2384605  24.7145605  27.8673220
 111.0485935  23.5940146  26.8676662 100.7712078  12.4689448  22.8321624
 101.2744522  13.1550336  23.2706332 101.4154720  12.0026171  22.2995329
 112.3141766  17.0280409  46.0915661 112.0669651  16.1157930  45.9401655
 111.5205860  17.4371421  46.4366341  71.2031698  40.2641964  40.5923843
  71.0898209  40.9014511  39.8871970  72.1507406  40.1458359  40.6582165
  73.9786005  15.1693392  20.5336809  74.4848824  14.3584490  20.4850054
  73.1405020  14.9533427  20.1248217 103.5480022  16.6619670  20.0934839
 102.8326893  16.4464462  19.4950581 104.3392658  16.3891542  19.6290338
  87.2551441  10.6956053  45.3247309  87.2280312  11.1692941  44.4933987
  86.7187691   9.9171788  45.1744604  98.4751701  47.9507113   4.0362176
  98.0268097  47.3225355   3.4700054  98.7123871  47.4454498   4.8138279
  75.3434324  26.3998866  33.0640793  75.3938866  27.3344898  33.2645869
  75.2912903  25.9738469  33.9196515  65.3218889 110.1072884  51.7506552
  65.3666592 111.0396767  51.9625187  66.1350155 109.7428989  52.1003389
   8.0412513  27.5366783  37.0435619   8.4351838  26.6647291  37.0160413
   8.7768465  28.1359339  36.9169807  90.3269768  53.1009865   9.0103889
  90.0912952  54.0255690   8.9340305  89.5317841  52.6297855   8.7616611
  49.4744492 108.2986259  12.3199165  50.0986099 107.5788307  12.2273779
  49.3368673 108.3764553  13.2639742  88.1995869  31.8359423  32.2408938
  87.4837685  32.2440743  31.7538023  88.9279842  31.8111491  31.6203594
  85.8605671  49.4449663  32.6958919  86.1967278  48.9606905  31.9417691
  85.6499863  50.3119898  32.3492551  79.7347784  14.0024793  63.3794260
  79.5284510  13.2827616  63.9758015  80.5114746  14.4131553  63.7593222
 113.2984638  52.1370506  27.9995799 113.4711266  51.2888765  27.5908947
 112.6743698  52.5633335  27.4121952  10.9067845  24.8454356  59.9859142
  10.9427071  25.2327514  60.8605146  10.9226334  23.9010715  60.1413393
 101.0855198  40.6699896  47.6361704 100.1650333  40.5400610  47.4079990
 101.5282345  39.8914933  47.2982645 105.4016685  51.6935921  20.0197363
 105.3661156  50.8658743  19.5403159 104.5157623  51.8097544  20.3630972
   7.1327537  35.3561258   7.9813802   7.0099729  34.4454765   7.7132839
   6.3691592  35.5508709   8.5247308  81.5196991  38.1875610  31.3031316
  81.6900635  38.8251686  31.9964314  81.4370441  38.7143970  30.5082464
  89.3060398  42.1216106   1.4052999  89.0454102  42.8906441   0.8984521
  90.1694584  41.8904018   1.0628260 116.3991547  60.5424738  14.2039430
 117.2966576  60.2100325  14.1895747 116.1507607  60.5215645  15.1281166
 109.1549015  54.8766422  34.6790743 109.3573952  54.8819447  33.7435555
 109.9517059  55.2013922  35.0984502 107.1631336  29.7462893   4.8353133
 106.7794418  28.9063215   5.0872445 108.0865860  29.6693587   5.0752050
  15.6200695  42.1525431  11.6838062  16.5118682  42.2770166  12.0085108
  15.5984569  41.2432003  11.3857007  71.3412762  14.1087270   3.9658162
  71.1589670  14.7186863   3.2510120  71.1877203  14.6188879   4.7610447
 112.6399803  39.2570090  37.4064159 112.1254635  39.1030645  38.1987548
 112.4246979  40.1541996  37.1515846  94.4100189  24.8054981  19.4393599
  95.0058079  25.5456901  19.3236518  94.9528980  24.1195464  19.8279345
 102.9468060  54.2106485  63.4244061 103.4632015  54.7320414  62.8098202
 103.2048893  53.3061457  63.2469511 105.6655598  44.7523832  32.8402758
 105.9502125  45.6514978  32.6765919 104.8041153  44.6948814  32.4269390
  95.4642963  66.3317060  49.2093277  94.9374104  66.9229031  49.7470093
  95.4284573  66.7107058  48.3310890   6.4900595  25.5328703  65.2025270
   7.4371779  25.4716849  65.3268480   6.3667613  26.3327312  64.6914005
  69.5292425   8.0921459  28.4269500  68.6188555   8.2650638  28.6667967
  69.5672846   8.2700771  27.4872017  85.4267216  28.3032632   5.0460863
  86.0117626  28.5058832   5.7760906  84.6966743  28.9139557   5.1476061
 116.4605618  56.1937809   9.6087182 117.1848774  56.1674023  10.2339482
 115.6736755  56.1959743  10.1537192  86.5800381  48.7926245  29.9896049
  86.6629696  47.8489590  30.1269031  86.0790920  48.8734627  29.1779709
 113.1052876  33.7263560  29.9471164 112.3022747  33.2395649  29.7615600
 113.6442947  33.1162572  30.4505873  93.1093121  38.9275956  24.4506526
  93.9177418  38.7372351  24.9264979  93.1109619  39.8791337  24.3467140
  40.3665733  35.4035759   8.0645669  39.5755434  35.1121521   7.6111662
  40.3832102  34.8893309   8.8717270  81.1334038  25.5609155  48.7700462
  80.8562374  24.6659136  48.5741282  81.6425705  25.8269930  48.0044222
 117.5908375  29.1020560   5.7672834 118.3651829  28.9790845   5.2181971
 116.8540478  28.8970184   5.1916730  14.4353509  84.8954010  89.4602966
  13.5429430  84.6649265  89.2019844  14.6195686  84.3333340  90.2128792
  14.8248899  81.8610954  88.1562805  15.4763138  82.1591663  87.5214386
  15.1532996  82.1714687  89.0001106   0.2792033  62.1322155  12.6672792
  -0.1684400  61.5734148  12.0319903   0.9094405  61.5520382  13.0943942
  96.7322254  37.0208502  51.1225796  95.8245754  36.7728305  51.2983084
  97.1656704  36.1981559  50.8955574  59.3955564  70.0636387  56.9240618
  59.1556978  70.7214308  56.2713718  60.3450918  69.9773645  56.8394279
  93.1216049  24.9075150   8.2630920  92.3322964  24.3888998   8.1073385
  93.8089466  24.2584324   8.4130818  14.3050241  99.5874786  83.6395741
  14.5383060  99.9395657  84.4985580  14.9670792  99.9434662  83.0469608
   2.5724953  60.2245951  50.0201750   2.3159610  60.2342701  49.0980387
   3.5143667  60.3948164  50.0085545   9.6461272  94.1024303  92.6621151
   9.0105486  94.6013832  93.1752586   9.1196167  93.6501408  92.0029831
 115.1411629  20.3933024  39.2473865 114.3308830  19.9076688  39.0929675
 114.8527813  21.2858176  39.4383907  41.1605310  88.2299137  89.4138622
  40.5722332  88.6948681  88.8189125  40.5812550  87.6834583  89.9449539
  95.8690071  58.7551546  68.2358456  95.4530907  58.4863520  67.4167061
  95.1836872  59.2273140  68.7087488  88.0005074  32.0719743  36.8057919
  88.3478355  31.7488670  37.6371717  88.3242512  31.4508533  36.1533880
  99.8086739  40.8139992  71.6621685 100.4833317  41.0871077  71.0404873
  99.0061665  41.2248135  71.3405323 109.0061569  27.4448824   1.4643906
 108.3114243  27.5505495   0.8144556 109.7019863  28.0319619   1.1687898
  88.8612080  67.8243637  55.5896091  89.5191956  68.5195541  55.5885029
  88.1220055  68.1934547  55.1063108  88.2854271  37.1530366  28.9592385
  89.0822887  36.6403770  28.8235378  87.8947926  36.7834377  29.7510910
  99.8549652  46.4952517  33.2123780  99.9789906  45.5470943  33.1693697
  99.1681576  46.6174841  33.8678026 116.0155392  51.7511034  24.8209572
 115.7255459  52.5878763  24.4577169 116.1431313  51.1894608  24.0564251
  -0.2604555  12.7192712  27.8953242   0.5477024  12.9561508  28.3502960
   0.0035570  12.0376098  27.2773695  30.0104356 110.4420662  20.8702993
  30.2155113 109.9678135  20.0645351  30.2991891 109.8583984  21.5718555
 109.6051407  63.4942293  51.9323063 110.2104568  62.9173565  51.4664316
 108.7491989  63.0790472  51.8263817  87.9197693  35.5794573  25.0071883
  87.4044991  35.1616859  24.3171215  87.4185848  36.3608456  25.2405953
 101.2773991  55.5505228   7.1097040 101.1874580  54.5987272   7.0624852
 101.5384388  55.8105564   6.2262601  80.1638889  77.2547722  60.5634212
  80.1840973  76.3814640  60.9547758  80.6147766  77.8120041  61.1977863
  75.3131294  19.9043691  35.0336766  74.4400072  19.8230410  34.6499085
  75.8399439  20.3118086  34.3461514  83.2209873  74.2046356  24.0919518
  83.3930969  74.8626757  23.4184599  84.0845680  73.9934587  24.4467163
  12.8234255  41.5877438  70.0863457  13.4064341  42.3351812  70.2192688
  13.1280971  41.1882639  69.2715931  42.8455282   0.9064434  41.7521000
  43.0700857   1.6451881  41.1863661  41.9004557   0.9835766  41.8829393
  17.3108912  84.8354053  91.9647026  16.4466596  84.4432068  92.0892811
  17.8967917  84.0889645  91.8390560 103.1293774  29.1302323   6.5519065
 103.5514545  28.2724047   6.5988749 102.7346706  29.2505670   7.4155939
  84.6022320  27.8620362  12.1472657  84.3365574  27.6775575  11.2463665
  84.9639225  27.0345378  12.4645317 102.3159599  44.0838814  25.1115322
 102.4269772  44.4666338  25.9818220 102.3241615  44.8340988  24.5171094
 110.4165649  57.9755020  41.8295527 110.9253216  58.4156322  42.5104952
 111.0295582  57.3542833  41.4364147  90.2308941  25.1759744  31.3489938
  89.8252487  24.6027446  30.6985402  89.7685432  24.9787712  32.1635914
  98.2196903  65.8171701  34.4075966  97.3746109  65.8079481  33.9581537
  98.2974529  64.9428749  34.7894216  18.4992313  89.4559097   1.2864830
  18.2343948  89.1259670   0.4278600  18.4135938  90.4065514   1.2146065
   7.4354166  47.2282696  38.1141233   7.9549825  47.7225542  38.7481308
   6.5504473  47.2267914  38.4788942  72.2959089  60.5098677   8.6484826
  72.7568150  61.1711597   8.1322587  72.6254606  59.6746159   8.3168578
  90.2305603  31.0769510  64.7154713  91.0327244  30.5583215  64.6539402
  89.9229908  30.9370303  65.6110477   9.2633784  37.4216366   3.6881274
  10.0880694  37.1101117   3.3152097   9.4610775  37.5749159   4.6120605
  78.2064009  79.0777254  25.8967328  78.9989042  79.2135668  26.4160728
  78.0289602  79.9318075  25.5026555 108.2802010  69.3512678  25.4307079
 108.8910389  69.4603157  26.1595488 107.6445866  68.7083006  25.7450604
  97.9293251  60.2987576  19.6226418  97.2634888  59.7256851  19.2425406
  97.5875568  61.1831379  19.4911218 104.8847771  74.8744726  55.4131508
 104.4592285  74.8787928  54.5557594 105.7676697  74.5473766  55.2406979
 100.1985073   7.7945656  56.0662270  99.6787453   8.5108584  55.7015371
 100.9568310   7.7292365  55.4857874  86.7858410  45.7037210  12.5278819
  87.3926067  45.0490046  12.1823204  86.9029808  46.4634752  11.9575500
  31.8224239  83.1426525  88.4238815  31.4903069  83.7015057  87.7213097
  31.3026142  83.3863831  89.1897964   1.1195035  37.1744418  34.7284412
   1.6643888  36.6339755  34.1564035   1.2975177  36.8455243  35.6095505
 101.9219685  19.8682141  36.3111567 102.3018456  19.0209734  36.0785484
 101.3216496  20.0669289  35.5925703  98.2124710  31.4800453  33.2870603
  98.3858109  32.0199156  32.5158763  97.4186325  31.8550301  33.6684227
  97.8021240  34.9603748  66.7419195  97.0269394  35.5207658  66.7060614
  98.2319641  35.1984215  67.5633860 113.1257343  69.8140049  28.0286527
 114.0346813  70.0965309  27.9274845 113.0910492  68.9598989  27.5979185
  13.4214425  49.1493607   3.8200659  13.7397373  48.9350557   4.6969888
  13.7115014  50.0496817   3.6733699 100.6617546  49.8802710  44.3578196
  99.9737835  49.8203659  45.0206518 100.3937340  50.6102943  43.7997341
   8.2337368  75.8194351  31.6080046   7.3941350  75.6192255  32.0217872
   8.0446941  75.8179855  30.6696606  99.6022606  25.3235459  24.6862650
 100.0035572  25.7085061  23.9071631 100.2729321  25.4019451  25.3647113
   3.1583595  40.1082277  25.9327292   3.4980458  39.2135358  25.9133220
   2.2153679  40.0036955  26.0595036   0.7699880  22.4845529  20.3807950
   0.1567130  23.2027102  20.5369258   1.1723986  22.6922941  19.5375025
  64.2278433  27.6849532  39.9016786  63.3394623  28.0077076  39.7505355
  64.6404076  27.7058601  39.0382075 110.2265739  41.9586802  39.8877382
 110.7642651  42.2820520  39.1648602 110.5167580  41.0556984  40.0167894
  37.5374794 102.7594566  58.1123447  38.3062625 102.7028370  58.6797905
  37.2165203 103.6532307  58.2323408 104.9816322  40.0268984  15.5855238
 105.2317047  40.4396915  14.7589040 105.6800652  39.3957663  15.7589924
  18.9976430  19.2284906  77.1058607  19.1929328  19.9791348  76.5449429
  18.2251501  18.8268566  76.7081451 101.9792271  60.7461548  60.9171200
 101.2642670  60.7342720  61.5534544 102.7082253  61.1551094  61.3835430
  90.8792973  49.4825268  25.1174831  90.9259510  48.9016676  25.8768606
  91.2367535  50.3138494  25.4295087  98.9398003  21.7868161  15.2948678
  98.1104469  21.8906641  14.8283815  99.6078110  22.0230341  14.6512830
  78.9843559  15.7034898  39.4411850  79.4524908  16.5089965  39.2215419
  79.4742489  15.3345656  40.1761198  99.6936512  51.8607092  24.4040346
  99.0036583  51.2676954  24.7015023 100.2070808  51.3400698  23.7863326
  79.9484587  27.8800344  24.8358893  80.2038193  28.6963248  25.2656484
  80.4824162  27.2085929  25.2604938  42.3361111  98.4455109   9.8218906
  43.2799101  98.4577656   9.9810237  42.1641254  97.5727367   9.4684517
  81.6276741  60.8219910  16.1983883  80.9359360  61.1848545  15.6451559
  82.4330997  60.9699535  15.7027769 116.8828106  60.1341724  39.6968436
 117.3455906  60.6675720  39.0506649 116.4133358  59.4818497  39.1769385
   6.5869182   5.4604173  24.9156046   7.5192910   5.5260676  24.7092009
   6.1560673   5.4054743  24.0626216  74.1855192  26.7384124  27.7804041
  74.6673393  26.7033935  26.9540548  74.8504114  26.9468355  28.4366918
  21.7397690  57.3063087   1.7557926  21.7419934  58.2635021   1.7585179
  21.8957114  57.0690393   0.8416731   4.1676310  40.1394796  35.0244188
   5.0342250  39.7334647  35.0443602   3.6569861  39.6457434  35.6660533
  93.9132404   9.2714256  22.1618032  93.4126759   8.5191005  22.4775290
  93.5139084  10.0245655  22.5971770   5.8699602  49.6148014  52.0233297
   6.4323676  50.1840115  52.5486183   5.5561632  48.9531851  52.6397943
  13.9646363  76.1490774  85.8606625  13.1220841  75.8795357  86.2262917
  13.7437725  76.8341923  85.2297401 108.6041164  55.6628180  37.3239303
 108.5632229  55.4302549  36.3963127 108.1423187  56.4992619  37.3817277
  80.1258945  72.8953886  34.1292787  80.8420181  72.2769833  34.2741156
  79.3326187  72.3870468  34.2981768  91.2803078  79.8315907   3.5256675
  91.5953827  79.6848345   2.6338017  92.0726776  80.0039101   4.0342921
  22.6491046  81.3128090  31.2556148  22.7127600  80.5928898  31.8832278
  23.5245109  81.6998482  31.2454987 106.0940742   1.2407373  45.7411623
 105.2424335   0.9226862  46.0407972 106.3251972   0.6598310  45.0163412
 107.1498775  26.9401431   5.9042579 107.9757404  27.2444463   6.2805265
 107.3805904  26.6530347   5.0207591  95.8334732  60.5706501  50.6625175
  95.1749897  60.0066805  51.0681915  96.6510677  60.0791359  50.7411766
 111.9268227  40.9166002  35.2094364 111.1335278  41.3850021  35.4692698
 112.5927830  41.5994692  35.1293468   6.9226897 106.9415951  12.9703820
   6.3845646 106.2501526  12.5849402   7.0608234 107.5637722  12.2562087
  14.7875226  53.7610817  26.8255162  15.6994796  53.7940168  27.1144462
  14.8364103  53.4910154  25.9085083  92.7272987  35.0588250   8.6636275
  93.1546974  35.8017683   8.2374889  92.3399925  35.4282331   9.4572026
 109.2956448   1.5251419  17.3042381 109.5671082   1.6957889  18.2061327
 109.8631954   2.0840530  16.7734540  14.0819716  65.3924608  17.7969050
  13.6361670  64.8536396  18.4504807  14.1495371  66.2560558  18.2041788
  17.5050533  49.9312115   8.7843740  16.6939175  50.1774502   9.2289591
  18.1341505  50.6044722   9.0435797 106.6941643  62.6103830  42.9576302
 105.8626842  62.9079723  42.5884199 107.2421551  62.4249840  42.1950340
   2.3757099  40.0320339  17.7281582   1.6093609  40.1554585  17.1680641
   3.1218636  40.2118444  17.1561849   1.8611482  58.0575752  45.6284237
   1.8705863  57.8928518  46.5712976   2.4813968  57.4236631  45.2683163
 115.0205326  56.2575531  57.2430754 114.1520500  56.2553453  56.8406296
 114.9887371  56.9736624  57.8774309 117.6109314  54.9691534  34.9271703
 117.2185040  54.4760513  35.6476450 118.5322285  55.0576353  35.1713300
 116.2631226  62.5875425  17.8684628 117.1089935  62.4063158  17.4587202
 116.2188339  63.5426235  17.9141331 101.8597412  55.2898693  49.1856718
 102.5732803  54.6741438  49.0184212 102.1115875  55.7341576  49.9952459
 108.4633255  71.2123346  57.7695608 108.0359173  70.5948305  58.3630514
 108.5412407  72.0190907  58.2787752   3.4756967  75.4369211  41.0710955
   2.8308338  74.7567558  40.8767891   4.2058858  75.2502775  40.4809952
  96.6427612  47.8943157  13.8936055  96.2666607  47.2026253  14.4379854
  95.8847332  48.3456421  13.5222197  13.8816416  58.3874464  11.9635999
  13.3926702  59.0848732  12.4003267  14.5292926  58.8472843  11.4294374
   6.2881243  61.6581774  55.0236702   6.8165231  61.5474939  55.8140945
   5.5100834  61.1226082  55.1787424 117.8282642  51.9336271  37.6755238
 117.3525238  51.4467382  38.3484602 117.2302246  51.9563580  36.9284916
   3.0445563  53.3318567  35.0052643   3.1249987  54.1120148  34.4565248
   3.5483157  52.6614380  34.5437527  64.8812819  30.4592133  88.9754391
  65.4573917  29.8876786  89.4830608  64.0678215  30.4877305  89.4791222
  28.8381267  62.7746820  27.1690607  27.9010105  62.9278612  27.2898054
  29.0652108  63.2817030  26.3895750  98.7112141  30.8130527  45.7058525
  98.9540291  30.3734851  46.5207481  99.5216751  31.2236285  45.4044914
   4.3188339  63.0167580  22.6528096   4.4217697  62.1000338  22.9082584
   5.0534892  63.1849003  22.0626903  20.1139736  58.8641739  40.9463406
  20.9567261  58.9011049  41.3987064  19.8931324  57.9330015  40.9269762
 113.8148403  65.2592707  25.1655555 114.2150307  64.8554277  25.9356117
 113.5648060  66.1359024  25.4575062 115.8826351  63.6923838  14.1198206
 116.6175461  63.5041428  14.7035122 116.2917614  63.9125586  13.2829356
   6.6100663  64.7960043   8.6667234   5.6849718  64.5506573   8.6820590
   6.7456156  65.2706003   9.4868577  95.6067657  67.4106216  31.2971354
  96.3473034  66.8127203  31.1953926  95.1070690  67.3130989  30.4865599
  93.7235928  77.5595808  64.2351770  93.0676365  78.2546377  64.1818523
  94.2779732  77.8096390  64.9743414  74.7226191  31.4575505  20.7616568
  75.1326561  31.1255574  21.5603304  75.3209496  32.1364188  20.4496145
  85.0735474  78.5120964   2.2011240  85.8186626  77.9849386   1.9127676
  84.6394444  78.7769890   1.3901903  85.3407383  22.2046924  39.5321321
  85.6958771  22.7839947  40.2063131  84.4073105  22.4147439  39.5032835
  99.1393375  86.9765854  19.6951389  99.0613556  86.1034489  20.0795555
  99.5371914  87.5074291  20.3851795 103.6348343  50.9839630  27.0249939
 104.1179657  50.7214689  26.2414718 102.7534866  51.1814070  26.7079926
 110.9585667  39.6576214  44.1567898 110.5466461  40.2714396  43.5486937
 110.2979851  39.5116878  44.8339653  11.9347906  42.4194956  57.9058504
  12.8323960  42.1930933  58.1493187  11.5706778  41.6080427  57.5520134
  91.5674305  53.3940887  22.0661116  90.9259129  52.7215576  22.2950053
  92.3923683  52.9171658  21.9752622  99.2572880  79.5221615  29.2109108
  98.8139153  80.3481674  29.0175915 100.0777340  79.5701551  28.7202096
  19.5568085  67.6175451  85.5667782  19.0897453  68.0829954  84.8729229
  20.4580951  67.9334116  85.5023861  92.4508762  66.2062073  32.5165772
  92.6097584  66.8517971  31.8279552  92.8848934  65.4119730  32.2050405
   8.3791500  71.6635084  71.5130758   8.4648657  70.8301353  71.0500765
   9.1328132  72.1773386  71.2229013   5.0795490  12.7380335  33.8541031
   4.5851928  12.2038782  34.4758129   5.7550591  12.1496177  33.5169315
 100.4937840  37.6450205  51.2433815 100.9670353  38.4532475  51.0458040
 100.9624672  36.9677138  50.7557106 116.1659241  76.1972666  29.0149474
 116.0863876  75.6653881  29.8067880 115.2943134  76.5726519  28.8900089
  15.1776135  34.8737788  42.6038408  14.5675468  34.5112586  43.2462025
  16.0135400  34.9214244  43.0677271 103.2606220  64.8775578  21.2111187
 103.3393669  65.7846975  21.5063024 102.3778057  64.8203993  20.8455992
 104.0682507 104.0972900  37.7735090 103.7466145 103.6726570  36.9782305
 105.0182819 104.1285706  37.6608539  71.3520479  96.1374283  92.9588127
  70.9788942  96.6034603  93.7070179  70.5935001  95.8769703  92.4363136
  95.3927803   0.4606549  95.4498100  95.0647068  -0.4385355  95.4422760
  94.6144295   1.0007469  95.3130436  23.9461994  65.7002687  32.8258467
  24.6841574  65.2531862  32.4114013  24.2183924  66.6166258  32.8751659
  78.9979839  54.3443537   0.6613123  79.7701406  54.7931480   1.0056792
  78.2983160  54.9952793   0.7160804 106.3363266  29.1021371  45.1907587
 105.9257507  28.8568234  44.3616104 107.0988750  29.6215916  44.9359751
  43.4794807  24.7439003  78.2481861  44.0899181  24.2214656  78.7684345
  43.2593203  24.1840625  77.5036430 118.1893635  34.3711591  64.8952913
 118.8361263  34.9895835  64.5554638 117.3961067  34.8940420  65.0117445
  38.0152059  33.7941432  29.2494535  37.4007440  34.2368674  29.8348284
  38.8683867  33.9060807  29.6687174 114.0618134  47.3262739  90.3238010
 114.6345615  46.5670681  90.4324532 113.2337570  46.9592524  90.0142097
 111.7102051  69.2668247  16.7539775 110.7854557  69.4870806  16.8660104
 111.9787598  69.7507286  15.9729874  81.5094566  35.5125952  32.8913307
  82.0939636  35.6337357  33.6396027  81.6956806  36.2568879  32.3189831
  40.4354572  92.8190422  88.3813095  39.6609068  92.6029682  87.8620625
  40.1618147  93.5592651  88.9229870  54.3740416 106.5532684  64.7892427
  54.0819025 105.7991123  64.2772532  53.7630701 107.2522545  64.5560503
   4.9109030  52.5768852  13.6077535   5.3136331  52.5380754  14.4752407
   4.9291492  53.5055637  13.3765483  94.2727757  21.3261127  29.0223622
  93.8224792  20.8791065  28.3056664  94.1930485  20.7279706  29.7653985
  76.3942814   2.0104247  94.7566128  77.1983004   2.3283286  95.1673698
  76.5021563   1.0599181  94.7229576  12.9654002  82.3439217  35.0756621
  13.8939559  82.1763039  34.9146605  12.8305435  83.2453728  34.7833633
   5.5146301  77.5250149  17.7536738   5.8608270  77.4622726  18.6438656
   4.6621722  77.0918179  17.7971220 105.3468037  60.3932142  37.6397657
 104.6357346  59.9332047  37.1936655 104.9628067  61.2294149  37.9034805
 106.6494560  38.2250857  21.7186117 106.8389893  37.3054552  21.9045830
 107.4419689  38.5515475  21.2924957   2.0270954  70.6599522  14.8047662
   1.3993634  71.3661289  14.6514726   1.9208352  70.4418468  15.7307088
 112.9489994  50.6049204  35.1586580 112.8636074  51.1548805  34.3798876
 112.2217560  50.8715010  35.7210493 100.4374695  49.0350676   2.0586354
 101.2548065  48.7100697   2.4362223  99.7534561  48.6794567   2.6260054
   7.2412264  66.7683125  11.0966349   7.8197080  66.7139244  11.8573141
   6.6452235  67.4891710  11.3000345  84.6378231  96.1636257  32.2969580
  84.9524975  96.2960052  33.1912112  84.8246002  96.9905281  31.8524551
  34.6928883 104.1677666  11.5921938  35.0338411 104.7638130  12.2590661
  33.8366008 104.5291233  11.3632286 114.1627121   8.6352581  14.3649733
 113.7262440   9.4626802  14.1622472 113.6534691   7.9745382  13.8955593
 100.0577545  30.5826569  21.2017775 100.3572941  31.2251163  21.8450117
 100.5902004  29.8059058  21.3732219 101.6558933  67.5495672  31.3768625
 102.4550915  67.2548389  31.8134880 101.6851234  67.1316767  30.5161953
 101.9504547  27.1660638  29.2889142 101.5737820  27.0665455  30.1632380
 101.5356541  26.4772415  28.7695909 109.8539829  66.5221119   9.6801788
 110.4752731  67.2502756   9.6764183 110.1066303  65.9956217  10.4386055
 110.3735828  46.4222145  34.0321779 110.5354500  45.5752277  33.6166763
 111.0812759  46.5152740  34.6699405  89.5770168  65.0528669  14.0603280
  89.6405315  65.7733822  14.6872663  89.7747707  64.2699814  14.5743489
  12.5322998  56.7234421  53.6464834  13.3603299  56.4405632  53.2584381
  12.5852835  56.4378500  54.5585489   2.2288495  55.5965424  62.9071712
   2.9663604  55.7842541  62.3265934   1.4664349  55.5812645  62.3286200
 111.6614914  50.3490734  47.3024082 112.3561287  50.0222588  47.8741598
 111.5500736  51.2642288  47.5599051 104.0493584  51.0647726  24.2163134
 103.5833740  51.6432238  23.6125898 104.9754238  51.2245369  24.0343428
  90.7435226 104.5154667  27.4024820  90.3846931 105.3867340  27.2340584
  91.6871834 104.6169472  27.2782135  15.8470130  93.1654549  14.3182075
  14.9530339  92.8437614  14.2018175  16.0391498  93.0096340  15.2428877
  27.8438163  47.9095078   9.7637212  27.1042585  47.9343271  10.3709042
  28.5472584  47.4911022  10.2600431 102.1407604  95.3886700  17.3313296
 103.0686283  95.1833725  17.4460435 102.0032310  95.3548145  16.3846684
  95.1261330  90.1781464  43.5664082  95.8766556  90.5841541  44.0001345
  95.1406288  90.5352783  42.6784420 116.3386917  72.8842735  43.2928610
 116.4259815  72.1472454  43.8973475 116.0318565  73.6074924  43.8397026
  97.5766850  59.8419523  33.6418986  97.0500660  59.1038895  33.9487624
  96.9374084  60.5261326  33.4432817  18.7786615  87.1257591  69.9361467
  19.5952833  86.6293240  69.9901009  18.3707178  87.0097828  70.7942629
 103.7392330  41.7973852  22.8978968 104.2431641  42.6109838  22.8794408
 102.8268909  42.0819139  22.9518509 109.6539783  91.3486099  35.2182770
 110.4958344  91.7185593  34.9524856 109.4212914  91.8291759  36.0127163
  91.4838505  31.7125893  19.3750668  91.9360638  31.6599798  18.5330677
  91.2921143  32.6437831  19.4861853 116.4613724  54.0161943  57.6479483
 117.3352242  54.2239761  57.3171377 115.9933090  54.8509264  57.6288509
  84.3479443  85.0536251  91.0020733  84.7391796  85.8141804  91.4318466
  84.2866707  85.3045273  90.0803757  85.7370281  84.7248936   7.7285445
  85.8990669  83.8245010   7.4470109  86.0396481  85.2627563   6.9968671
  95.6835556  75.7938528  10.4726255  96.3377857  76.2549973  10.9975684
  96.1111355  74.9747944  10.2225220  98.0145741  78.8410139  46.6840744
  97.3266888  78.3157873  46.2751865  97.9760265  79.6822500  46.2290192
  89.2608452  61.2982798  43.7694836  88.5330486  61.5661669  44.3305349
  89.3468285  60.3571844  43.9217424  85.4243374  83.4237671  10.6762171
  85.3869629  82.4774170  10.5374432  85.7417679  83.7754631   9.8444843
   2.5202018  67.4253178  15.8916306   2.6259506  67.7752924  16.7762589
   3.3015600  67.7187204  15.4229891   1.9964698  17.4118721  29.6391916
   1.2608664  17.9687405  29.8941755   1.8884568  17.2893584  28.6960292
   3.4627414  31.9785976   9.2795175   3.4571561  31.8730474  10.2308643
   2.8129065  31.3500929   8.9649856  15.2549565  56.8931866  28.2702637
  15.5337560  56.5493441  27.4215746  14.9116349  56.1309242  28.7364411
  81.7371559  61.0672712  20.1314759  81.6428375  60.1471281  20.3777790
  80.9704590  61.2495852  19.5881712   2.1406119  56.8665552  31.5900898
   1.8689451  56.0162830  31.2444544   2.5127998  56.6679955  32.4493217
 107.9109383  80.1536560  42.8875637 108.7298679  80.6405640  42.9798174
 107.4610329  80.5779362  42.1569347 113.5783672  57.0728207  26.2022352
 114.4708157  57.2886896  25.9317493 113.6872768  56.5784359  27.0146108
 109.5278072  59.0753078  22.0641065 110.3188705  59.4401121  21.6674185
 109.2856884  59.7076130  22.7407169 101.1840820  65.4987478  36.9693971
 101.6252708  66.0100842  36.2910795 100.2604771  65.7355738  36.8851733
  99.2425346  67.9164410  32.7204847 100.0434971  67.7662659  32.2183514
  99.3438816  67.3723221  33.5014439  89.5279980  57.6488590  30.2863622
  89.7077179  56.7881536  30.6646705  89.2325974  57.4618864  29.3952870
 113.2730484  44.2167854  15.8207393 112.6424885  43.7469673  15.2749324
 113.4060383  43.6465693  16.5779686 107.5872326  65.2037430  44.1662979
 107.2533607  64.4292736  43.7135744 107.5854588  64.9595118  45.0918150
 113.8751316  69.9656010  40.1253414 113.2380867  69.3429756  39.7749829
 113.7016201  70.7784748  39.6506262  77.3507595  16.3967073  45.8005714
  76.7445564  16.5796614  46.5184021  77.1896362  17.0958376  45.1669359
  97.1726322  49.2162514  51.9513750  96.6620064  48.4253550  52.1245241
  96.8318844  49.5439005  51.1190462 103.4845066  61.6655827  34.5790219
 104.1646194  62.3191357  34.4160843 103.1518745  61.4441013  33.7092328
  89.4367599   6.8732518  24.8478889  89.4724560   6.5103173  25.7328939
  89.4350719   7.8215915  24.9778128   0.2124106  87.0617580  31.8268752
  -0.4654706  86.9672871  31.1577010   0.9751879  87.3895645  31.3504982
  16.1650693  75.2202749  32.0146394  16.3684320  74.3621731  31.6424346
  15.2457511  75.3663254  31.7915845 100.6877232  83.7104321   7.5488913
 101.0384369  84.0455914   8.3740610 101.1019802  82.8540611   7.4428147
 105.0686646  54.5766354  70.2201509 104.6898842  54.4861031  71.0945415
 105.3141212  55.4998636  70.1598740 111.8374252  61.7341566  28.4336185
 112.1838093  60.8668947  28.2236028 110.9182358  61.6953707  28.1693888
   4.1788113  99.1030407  15.7087171   3.4096509  99.2837715  16.2490511
   3.9812928  99.5124340  14.8663270 108.1212711  61.0250616   0.6188119
 108.1033039  60.5156755   1.4290187 107.2054958  61.0702753   0.3439628
  28.1003737  85.0207615  45.9317923  28.0403423  85.4428482  46.7888069
  28.0043268  85.7374382  45.3045940 100.3785324  54.9901009  23.9254737
 100.4836082  55.4554749  23.0956411  99.9121952  54.1873074  23.6924911
 105.0607395  68.0531263   7.7802682 104.5823956  68.8822317   7.7816910
 105.9771442  68.3051205   7.8940237  21.4705467  33.4450197  11.3079953
  21.1132908  32.6331401  10.9481978  21.1833501  34.1242290  10.6977296
 104.9015331  41.3968945  48.7148857 105.5500698  41.6252995  49.3808174
 105.1156235  41.9581270  47.9696274 107.2288322  64.4655085  46.6461134
 106.6204357  63.8137484  46.9943857 107.1566391  65.2062798  47.2480059
  96.8588352  55.6814575  11.1790645  97.4501324  56.3511705  10.8354437
  96.9283867  54.9580765  10.5560768 101.4511395  66.4618206  95.1011086
 101.1182785  67.0995855  94.4696808 101.9213486  65.8204031  94.5684528
  90.7661915  64.5467043  48.6018085  91.4448643  63.8871527  48.7454271
  91.2016773  65.2320576  48.0949783  97.6915455  66.3374758  42.9869223
  97.7756882  66.3346243  42.0334339  97.5251389  65.4229641  43.2154131
 104.5428371  58.5244370  32.9972839 104.4973564  59.4803429  33.0174637
 104.7908211  58.3154106  32.0967054  13.9224708 102.2064209  93.4420872
  13.8663328 101.2741470  93.2324505  13.9857090 102.2338486  94.3968010
 103.0034542  98.7367058  64.0223122 102.6931000  97.8318787  63.9876270
 102.2056103  99.2611217  64.0906763 112.5460148  57.9897308  19.9866617
 112.9734612  58.8432646  19.9159539 111.6213226  58.1702042  19.8175359
  88.3347130  28.3569860  32.4053216  89.2320347  28.2181144  32.1023965
  88.3773327  28.2191348  33.3515859   8.4442616  90.9903526   4.3312821
   7.7994704  91.2781334   4.9775469   8.1655401  90.1064301   4.0920559
 104.9113655  44.0448618  22.3286653 105.2523518  44.4295025  21.5211916
 104.7760201  44.7920942  22.9113817  16.2276232  60.3123808  31.9865108
  15.6642294  59.9887705  31.2835908  16.0087740  59.7645283  32.7402949
  39.5705199  30.7137752  77.6517582  38.6278224  30.7925057  77.5056171
  39.8074460  31.5127563  78.1226349  97.9902935  77.5891256   8.4833086
  98.5361290  78.3334732   8.2298410  98.2102203  76.9046545   7.8513569
  89.2264843  71.3847113  29.5739508  89.7189808  70.7803249  29.0186071
  89.0429020  70.8840466  30.3688478 100.8125973  50.6699705  33.9062309
 100.6060410  50.9022951  33.0009198 100.8923149  51.5106106  34.3570089
 106.0289669  57.6468039  50.2694368 105.8604527  57.2222853  51.1106396
 106.1755562  58.5665369  50.4904175 111.6841984  30.2780056  30.6624913
 110.9742165  30.7933497  30.2796459 111.7574978  30.6012297  31.5604806
 114.3182850  62.3328638   3.2946301 113.5773659  62.3407745   2.6886547
 114.5049572  63.2575703   3.4567949 113.6007977  75.9279871  55.3315258
 113.3777237  76.2388515  54.4541264 112.7601242  75.8679771  55.7852983
 114.9238586  59.7631741  16.6115475 115.0716591  58.9866400  17.1513426
 114.7322655  60.4590130  17.2403038 104.3277550  19.6212113  33.5433388
 104.3388271  18.6782157  33.3794188 103.7975502  19.9816573  32.8325748
  10.7125330  62.2048950  41.5156603  11.6106343  61.9336510  41.3257313
  10.2212727  61.3852024  41.5704012  77.0989275  78.3618641  67.4362707
  77.5652456  77.6028967  67.7866268  77.5406647  78.5534525  66.6089916
  23.8787389  99.0653229  61.1649656  23.0712962  98.8816452  60.6848335
  24.5440483  98.5348797  60.7265282 106.6622257  30.3458452  70.3856373
 106.9122982  29.8758364  71.1811161 105.7962036  30.7036495  70.5810928
  67.9310369  86.1305809  31.7851877  68.2533216  85.4012012  31.2556958
  68.2156754  86.9132328  31.3133097  10.5835056  41.4322948  26.1216235
  10.0681782  41.7590427  25.3841257  11.3706136  41.9769859  26.1238194
 110.4883003  77.0840740  28.6216402 109.9264717  76.4861631  28.1286097
 109.9940205  77.9030323  28.6567187   7.6621819  54.7972727  72.5264645
   6.8132734  54.3651581  72.6206112   8.2075346  54.1569138  72.0695639
  86.6637707  42.0359135   9.2854953  86.9438457  42.4416780   8.4650415
  86.9938374  41.1389017   9.2339712 104.1011238  78.1971931  16.1826086
 104.7222519  77.6043272  15.7595873 103.5509396  77.6254654  16.7180026
 104.3484974  58.5723925   7.3051810 104.6689510  58.7359190   6.4181614
 104.2901802  57.6189613   7.3668075  99.5401764  74.8406601  52.5980186
  98.9568520  74.2814493  52.0849323  99.3168068  75.7313967  52.3279810
   6.5168130  59.2655230  21.8519974   6.4297813  58.3133602  21.8068051
   7.4565172  59.4155025  21.9554138   7.7803421  53.8092136  22.5919724
   8.1698626  54.4877672  23.1433988   7.3342192  54.2925549  21.8965697
   8.1037307  43.7599421  58.8978148   8.0362183  42.8292465  58.6845398
   7.5775188  43.8627338  59.6907663  83.5322952  48.7950754   9.7932357
  82.9607773  48.0399847   9.9326605  82.9338169  49.5145750   9.5923030
  10.5468404  49.5113564  33.9465666  10.0095177  50.3018236  33.9983177
  11.2682259  49.7498035  33.3643508  96.7165279  67.3929548  25.8943439
  96.8818474  66.5100145  26.2249827  95.8850861  67.6469278  26.2948847
  60.7981777  64.4874573  49.6836567  60.7153559  64.6385288  50.6252241
  60.0146961  64.8880768  49.3069744 118.0673985  41.9273138   3.8059738
 117.4552950  42.2408819   4.4717330 118.1503234  42.6582813   3.1935716
 116.5327740  48.5634184  29.4856048 116.0513401  49.1432238  30.0757575
 117.2383022  48.2054234  30.0244021 106.8177223  33.4931326  28.1250310
 106.3949585  33.1415224  28.9085317 106.9032192  32.7399373  27.5405455
   5.4830360  90.2066135  33.2818723   4.9781704  91.0003471  33.4589148
   6.1196887  90.1635933  33.9953518  65.7279730  74.5305538  69.7151136
  66.3391829  73.8705730  70.0423527  65.1611805  74.0527678  69.1095591
  91.6014099  33.7307286  61.9974470  92.0357418  34.5650935  61.8201733
  91.7244530  33.5914111  62.9364252 106.3905239  65.0997210  31.5056205
 107.2726345  65.4016972  31.2889934 106.1762619  64.4716024  30.8158469
 101.6007328  48.2390213  31.8248057 100.8374023  48.0606031  32.3740983
 101.5101433  49.1601324  31.5807319 116.8902588  54.7240686  79.6395016
 116.9771290  55.6679106  79.5058918 116.2674809  54.6407127  80.3616047
 103.1847286  57.8361130  20.2543807 103.3702660  58.6757803  20.6748152
 102.4432278  58.0162716  19.6765065 117.7780342  81.2767124  19.5393956
 117.6478958  81.0463047  18.6195004 117.9055786  80.4370403  19.9808908
  13.1494594  36.7894197  41.2246275  13.7495816  37.1576333  40.5761623
  13.6990249  36.2206626  41.7638159  23.2128596  48.2624626   5.0728750
  23.6835003  47.9048109   4.3200031  23.4515214  49.1893387   5.0862718
   4.1172451  73.9602184  19.4655609   4.7262633  73.2689428  19.7253001
   3.2502100  73.5716295  19.5816636  96.8230534  54.9970436  34.1700435
  97.2897243  54.5428801  33.4684849  97.3103619  55.8115816  34.2936897
 116.3732815  62.1330452  20.6948805 117.3304272  62.1227741  20.6950760
 116.1371899  62.4360752  19.8181462 110.9963989  65.1929903  45.2236462
 111.4732456  65.5393457  45.9778881 110.6629086  65.9694052  44.7739840
  43.2767677  44.0064240  25.0695944  43.3978224  43.6771631  24.1789985
  43.1642294  43.2194185  25.6026864  17.2157562  53.5376692  38.5445499
  17.4569917  53.2383490  39.4211578  16.4029515  53.0720234  38.3476949
 108.9600372  62.0491505  16.4850295 109.8610115  61.7353773  16.4073634
 109.0150738  62.9853106  16.2931669   9.8706686  45.3780413   1.7121042
   9.8884565  46.2022161   2.1985652   9.7611606  44.7054625   2.3843262
 104.9441910  36.4686298  30.2279234 105.5298805  36.9773412  30.7886505
 105.0079632  36.8895245  29.3705964  21.0880089  69.1780472  43.6835337
  21.8703318  69.6354866  43.9916801  21.4253736  68.4066343  43.2281828
  59.3016529  11.7216218  68.3668995  58.6409664  12.2806156  68.7758589
  59.1001177  11.7573833  67.4318409  20.3786397  98.6943150  49.8604918
  20.1954484  99.6137047  50.0538874  21.3281035  98.6585522  49.7444296
  86.9729805  72.0931578  52.2868395  86.3813877  71.9796753  51.5429449
  86.7308521  72.9415226  52.6581669 115.7450294  18.4762537  27.2738767
 116.3853931  18.6159265  26.5762663 115.1667881  17.7929044  26.9349098
   8.6113334  78.0113220  33.0246973   8.2826251  77.2447014  32.5551486
   8.0072904  78.7148523  32.7871823  17.4831355  30.6516838  48.2592249
  18.1979680  30.0834584  48.5462189  17.0729947  30.9493303  49.0712738
  82.5428677  89.1441154  66.6191483  82.3961449  88.1996346  66.6706944
  81.6758537  89.5122337  66.4488268  65.7522821  70.5971241  46.7032909
  65.5819559  70.0641727  45.9266472  65.8573627  71.4864349  46.3651752
   5.1080775  91.0415459  25.2562118   5.4710299  91.3737392  24.4351482
   5.8166981  90.5247116  25.6395745  65.4615116  68.0500507  21.9232130
  65.6674147  67.3181677  22.5047469  64.7096777  67.7472067  21.4140344
  26.4709544  73.5853910  18.5864365  26.9589472  72.7626944  18.5509336
  25.9686327  73.6012602  17.7717876  60.8770037  22.2777343  33.4925604
  60.4361105  21.9126582  32.7253819  60.4273129  23.1069160  33.6552525
  20.0378370  87.6795387  76.9152308  20.1177382  86.8263721  77.3417997
  19.6927464  88.2565784  77.5965309 113.3581161  77.0006227   2.7439651
 112.6636219  77.2133493   2.1205372 114.1642284  77.2769022   2.3079801
  94.6447468  31.1467862  38.0024672  95.4713440  30.7986069  37.6681876
  94.4045258  30.5524659  38.7133193  77.4289656  31.1850595  92.0744133
  77.4777651  30.4299688  91.4881611  76.6243076  31.6356802  91.8180943
  34.6148229  89.1081619  87.5310326  34.8876190  89.5456314  86.7245483
  33.7033677  89.3745518  87.6515102  25.2321720   3.5183030  39.0350032
  25.8266616   4.0597332  38.5157084  24.5709515   3.2213011  38.4098554
   9.1115052  89.3805313  53.2145977   9.8090917  89.4525528  53.8660717
   9.5610654  89.1228008  52.4098015  83.8713455  87.7349663  54.4963551
  83.7603951  88.1173897  53.6259079  82.9830837  87.6799202  54.8487759
 101.5414524  83.0417728  39.4873452 101.2564945  83.7826157  40.0223017
 101.8084240  82.3767567  40.1219463  27.6177096  52.6062918  26.8077755
  27.9481697  52.1419764  26.0387254  27.7610755  53.5315561  26.6088581
  98.4652615  31.1801124  16.7624855  97.5266457  31.0178828  16.8569326
  98.7515926  31.4454675  17.6364601  11.6556025 108.4928799  21.7798162
  11.1945248 107.6728058  21.6033936  10.9854615 109.0706825  22.1449065
  77.5074816  10.6720757  92.3555946  77.4048567   9.8130983  92.7652931
  77.8336334  11.2349260  93.0577755 116.5176678  78.3399916  48.5948515
 116.4656353  79.1591692  49.0872669 115.8232498  77.7942228  48.9638329
 109.3324471 110.2326107  47.0078993 110.0427246 110.8316231  47.2379541
 109.2868900 109.6214867  47.7432060 104.8898411  79.2952871  34.3503499
 104.1425037  79.8485565  34.1231418 104.5937347  78.7925768  35.1091886
   5.3506374  70.1910591  14.9417436   4.4077712  70.0264788  14.9539399
   5.4288501  71.1198521  14.7238922 113.9796352  43.7585211  24.7983074
 114.4747543  44.5171976  25.1073194 114.0805244  43.1076145  25.4928398
   9.3147278  97.0864964   9.8784781   9.6865118  97.3925686   9.0512359
   8.8638532  96.2730789   9.6520233  96.1848354  98.9340401  83.5113525
  96.7132378  98.2371521  83.1222916  96.7450523  99.7092342  83.4729576
  96.1355400  79.6190405  24.6210837  96.0773563  79.8923159  23.7055659
  95.5788231  78.8422585  24.6750164  10.5384791 103.7049770  53.2573795
  10.5706644 104.3256664  52.5294113  11.3601124 103.2180786  53.1934977
  79.2053747  61.7511797  48.2827854  78.4673548  62.3421764  48.1335068
  79.2204809  61.1868668  47.5097704   1.3719590  58.7036276  26.8327832
   0.6528986  58.9620924  27.4093080   2.1621253  58.8644886  27.3485279
  81.4235115  71.3888025  18.9475596  82.0532036  71.8295908  19.5180202
  81.8785191  71.3028955  18.1098092  88.9818382  82.5702000  59.1949511
  89.0632534  83.5196781  59.2850065  89.6487045  82.3326683  58.5506678
 112.0457745 106.5577602  34.5340252 112.4976730 107.2926140  34.1192961
 111.2974072 106.3837910  33.9631319   7.8847057  71.5226126  11.7208898
   7.7260292  72.2274160  12.3488307   7.0422435  71.0744238  11.6459525
 110.8095551  62.3716021  34.0104413 111.6373253  61.9414663  34.2249560
 110.9695148  63.2991743  34.1843772 109.8305798  74.0232944  22.8950167
 109.4123840  73.6865664  22.1025801 109.5900726  73.3967209  23.5775042
  40.4951000  10.5085742  17.5511527  39.7933578  11.1092079  17.3000944
  40.3585005   9.7373068  17.0009530 116.7700672 108.2856369  19.5869184
 117.6962185 108.1036091  19.7461343 116.4375114 107.4898911  19.1716754
 102.2666454  36.4646029  35.3123665 102.1902847  36.8656278  34.4465828
 101.3743496  36.4708591  35.6587625 116.8767166  61.7808294  43.7887430
 115.9439659  61.6647673  43.6078119 117.1798325  60.9115458  44.0508461
 100.4328346  52.3361349  31.7128086 100.3616142  53.1211853  32.2558165
  99.9162579  52.5370264  30.9324121  83.0431557  68.1818342  20.0962782
  82.3593903  68.6931801  20.5289769  83.7973499  68.2462120  20.6821704
   3.4033805 100.8933449  41.9086933   3.9615181 100.1632786  41.6408825
   3.8702473 101.6738129  41.6101408   9.3609452  94.5632744  12.7544057
  10.0105906  95.2271938  12.9855001   8.9050448  94.3782616  13.5754764
  87.1355343  30.4379773  83.4011364  87.4213791  29.6333122  82.9686546
  86.2665653  30.2297616  83.7443066   3.5886684  63.2431030  16.2080264
   4.5106852  62.9880333  16.1755347   3.2715690  63.1094599  15.3148186
 100.7108116  85.3009033  40.4035044  99.8210716  85.4313469  40.7315016
 101.2230587  85.0808525  41.1815834   2.8938934  98.6493397  85.3955460
   3.6260524  98.2939053  85.8993721   2.1224760  98.2064247  85.7490730
 114.1422462  51.6490507  44.4494724 114.3218422  51.9247627  43.5506058
 114.9928093  51.3708353  44.7891283 101.9067955  75.3810310  30.3589582
 101.6550350  75.5801868  29.4571877 101.3315201  75.9274101  30.8944654
   7.2937644  49.8544168  23.3770514   8.1703407  49.9254131  23.7549472
   6.7669505  49.4526005  24.0678763 113.1243420  84.5564079  37.6853943
 112.3971653  84.9014568  38.2034612 113.4669304  83.8306713  38.2070923
  92.9201984  58.2977152  27.9674649  93.4087658  59.0144157  27.5626469
  93.1465244  58.3481121  28.8961577   5.6740671 109.8158836  25.8201694
   5.6574076 110.6167793  25.2962279   6.1802948 110.0492191  26.5983200
  86.4776993  90.0390434  27.0467687  86.4765263  90.8274841  26.5040064
  85.7469273  89.5180607  26.7139339  73.7910748  48.2361794  70.8573580
  73.9186096  49.1825485  70.7913399  73.4805012  47.9752970  69.9903440
  25.7589483  67.0833111  50.1894379  26.2155271  66.3806295  50.6520414
  25.9112144  66.8983984  49.2626905  10.5959427 108.8735294  32.3416758
  10.6327605 108.2841015  31.5883803  11.1904383 109.5887947  32.1154046
 117.0576668  72.0148087   4.6854919 116.6510582  72.0754194   5.5499178
 116.3204670  71.9817924   4.0758327  80.8500671  85.0022030  30.8331513
  80.1392365  85.1488018  30.2090859  81.6092014  85.4291916  30.4361391
  16.8423545  52.3254585  43.6231613  17.3590922  51.5554142  43.8603115
  16.3298786  52.5208807  44.4076395 106.3039303  49.4902563  17.3049486
 106.5461445  49.4103765  16.3823509 107.1112156  49.2980957  17.7820170
  20.9695601  54.9933434  43.3950996  21.4977455  55.3710747  44.0983582
  21.4659166  55.1771927  42.5975657 109.2415047  53.6775398  25.9637022
 108.5195160  53.1238937  26.2610841 109.0732288  53.8099718  25.0307631
 111.6368866  83.2555580  33.4651709 112.1668816  82.9583168  32.7255845
 112.1109486  82.9488754  34.2381191 116.6180325  63.2130432  38.5969281
 117.1169281  62.6813936  37.9767036 115.8254433  63.4577417  38.1192708
   4.6690875  96.9490433  53.7633085   5.4960644  96.5711403  53.4640932
   4.3693608  96.3549805  54.4514132  79.6785450  97.2552490  28.6178613
  80.1683521  98.0608940  28.4527564  78.7878036  97.5508213  28.8061476
 103.9790058 106.7576790  38.3268094 104.5670319 107.0961761  39.0020037
 104.1371441 105.8136463  38.3228111  95.7313061  73.0155039  18.0971372
  95.8804989  72.0705175  18.1283414  96.4345741  73.3867264  18.6299062
  11.1463058  85.6571388  53.3836985  11.4945078  84.8459435  53.7537622
  11.9000983  86.0719681  52.9642391  81.5502930  50.6013012   9.3007088
  81.2082481  50.1241302   8.5447013  80.7721710  50.9483957   9.7369295
  48.2346106  21.2704420  94.9728870  49.1892958  21.2011123  94.9717140
  48.0242825  21.6949987  94.1411781   4.6828008  40.5066490  42.9895496
   3.9786637  40.0523520  43.4521914   5.4560351  39.9617028  43.1357384
   1.8034014  74.5130539   5.3700882   1.2684917  75.2655888   5.6226575
   1.4107560  73.7735939   5.8340466   3.8271618  59.5655537  28.7605309
   4.2936262  58.8636684  28.3066535   4.2502701  59.6192455  29.6174598
  54.2532539   6.5846759  20.3649259  54.0830612   6.9620287  21.2279844
  55.2000237   6.4448971  20.3471017  17.0256066 107.0692825  23.7819266
  17.7931786 107.1012020  24.3529296  16.5595579 107.8859043  23.9612651
   3.5131761  67.8668118  50.2113485   3.2836416  68.6136675  49.6583986
   2.6908311  67.3898554  50.3231049 106.2756824  78.5943365  37.6857138
 105.3331661  78.5829592  37.5190687 106.5936947  77.7692699  37.3191476
 112.7997303  67.5533915  51.9924974 113.1020069  68.4434652  52.1731186
 113.1604004  67.0283413  52.7069712  10.8318782  72.0844603  41.7487907
   9.9097246  71.9589710  41.9726610  11.0469019  72.9502630  42.0957470
  95.6532001  83.8354015  45.9307814  94.8260021  83.9646626  45.4668188
  95.9485245  84.7203636  46.1449337  16.3853478 107.8788662  77.1487427
  17.2771132 107.6810646  76.8626308  15.8351290 107.6329994  76.4050770
  22.4115038  41.0219002  30.4563260  23.3541703  40.8677912  30.3941989
  22.0210361  40.3429270  29.9060845 107.9246616  53.5256052  31.0565424
 107.3580837  54.0545988  31.6181374 107.9762363  54.0174866  30.2370167
  13.0273354  57.4227667  23.5640121  13.2673967  58.3463097  23.4886813
  12.3863471  57.2842693  22.8667450  21.8470693  10.9613562  31.0415506
  21.9254827  11.4563429  30.2260327  21.5975475  11.6146100  31.6951799
  20.5302858  70.9049845  28.0136132  19.8863518  70.6522226  27.3520327
  21.3761115  70.6994534  27.6154089  10.3292120 106.0006428  21.9804001
  11.0199857 105.5438328  22.4603820   9.6484250 106.1599541  22.6341438
 114.5020008  79.4262123  20.3053737 114.1155434  79.0522146  21.0972118
 115.4262352  79.1814470  20.3513122 116.4464092  80.2715492  40.2569866
 115.7703686  80.4829216  39.6131516 116.0794353  79.5442915  40.7596397
  72.5965118  84.1040611  30.9377193  72.5911045  83.2977009  31.4534569
  71.7038250  84.4415474  31.0114908  21.2632799  67.7144575  39.3353486
  21.7066073  67.0617247  38.7934709  21.4913917  68.5532808  38.9346313
  17.5502384  90.2104855   4.4417378  16.6332793  89.9359226   4.4358483
  18.0408847  89.4035244   4.5976436  97.4433231  82.4666023  37.4671626
  96.9484615  82.0994663  38.1996632  97.8376865  81.7064190  37.0395875
  73.2525921  20.4294014  24.5720267  72.7074671  21.2112689  24.6600938
  72.9503393  19.8469543  25.2688980 113.2574272  71.3645792  47.8877878
 113.5390568  71.6351509  48.7616920 112.3073673  71.4810467  47.8955650
  79.5090866  95.5317402  14.9568963  78.9570618  94.7516251  15.0109971
  78.9233828  96.2554836  15.1791120  28.4885120  77.8016901  23.8538837
  28.1142354  78.6651611  23.6790538  28.8211346  77.5085926  23.0055428
  17.7070916  70.7031727  13.4006631  18.3224940  70.5154705  12.6919460
  16.9132328  71.0004425  12.9560852  19.2836022  65.9995174  33.3844757
  19.2333066  65.3743744  34.1075921  19.6991241  65.5109358  32.6739430
  16.8138683  67.6801205  32.8987598  16.4880168  66.8409443  32.5734401
  17.6852250  67.4819708  33.2418418 106.2875938  42.0476627  57.9246712
 106.4135075  41.6153526  58.7693501 106.4339924  42.9759550  58.1065273
   0.1699530  62.9204750  15.3795266   0.5081736  63.8107634  15.4756117
   0.1404749  62.7762413  14.4337153 105.6077766  83.2129478  29.4842267
 104.9099255  83.6769772  29.9467444 105.5389977  83.5173988  28.5793424
  90.7070541  69.1060019  76.0389376  91.5003872  68.6026049  75.8560753
  90.6894398  69.1872740  76.9925213   1.1959299  60.8119822  16.8430114
   2.1422000  60.9559298  16.8521523   0.8275997  61.6569853  16.5850794
 113.5613728  64.8956537  64.4516516 113.7061691  65.6848097  63.9296389
 112.7277088  64.5483112  64.1344976 111.5209675  85.8787346  33.7381005
 111.8379116  86.1780071  32.8859210 111.5909481  84.9249268  33.6981893
  89.2598534  70.9109020  43.7873507  88.3351040  70.9509993  44.0312004
  89.2677689  70.4385710  42.9548407 111.6537762  76.7324972   9.1881537
 110.7605457  76.8161917   8.8544303 112.2047710  76.7539835   8.4057409
  17.8499281  82.4697495  33.2010174  17.8399432  82.7559280  32.2876549
  18.7784970  82.4336338  33.4305573  19.9883914 106.4432430   4.8073420
  20.1268911 107.1103191   4.1349879  19.8615909 105.6312656   4.3165940
 104.7301579  35.3588128  36.1009240 105.1776791  35.7637596  36.8438745
 103.9810181  35.9302425  35.9321332   4.0310591  92.4133110  33.9217710
   3.3530855  91.9039536  34.3657780   4.2912161  93.0754089  34.5622206
   6.6122115  96.8056870   5.5161041   6.8734086  97.7057743   5.3215158
   7.4041808  96.3965511   5.8648431 109.0391445  98.4775829  58.7856913
 109.5188427  97.8284836  59.3002701 108.1762314  98.5197639  59.1977882
  15.6485367  64.5491505  15.8196616  15.1618719  64.7469282  15.0194919
  15.0454271  64.7732353  16.5283763  89.0903759  94.9491692  11.9200277
  89.6874809  95.6156731  12.2598302  88.2168674  95.3078461  12.0767534
  81.2737083  59.5091724  84.3676758  81.8154812  59.8479271  83.6549664
  80.6304646  60.1995325  84.5285130  22.9082036 104.5087337  14.0871441
  22.5200891 103.6524773  13.9070714  22.1599102 105.1021767  14.1512537
  19.7754443 108.0710316  47.9928350  19.8782265 107.3936176  47.3244143
  20.1917005 108.8456535  47.6147890  32.2729087  98.9533424  18.5551143
  32.3956633  99.7714806  19.0365791  32.5866079  98.2744598  19.1525662
 115.6284142  71.9207335  10.3067243 115.6013298  70.9965229  10.5543923
 116.5601444  72.1134233  10.2019811  61.7000008   5.4666460  22.6982737
  62.6425791   5.3107738  22.6392603  61.4697695   5.8633262  21.8581128
 107.1749687  69.6718454  44.3263817 106.4195442  70.2592945  44.3481064
 107.7507687  70.0466681  43.6599016  28.0487847  82.9013634   2.5635904
  28.1277823  82.8649998   1.6103491  28.5910821  82.1774006   2.8766572
  18.9467347 105.2325344  20.8066249  18.4206772 105.9934902  21.0524893
  18.6881816 105.0439930  19.9044979  46.5640068  77.9332781  14.0438318
  46.3743925  77.8739548  13.1074774  47.4983263  78.1368780  14.0865743
  70.8348513  28.1904984  40.8062363  71.4758062  28.6713433  40.2825975
  71.3608551  27.7025580  41.4398527  11.3757479  89.0094566  54.4413996
  11.8515778  88.1874084  54.5599270  11.9472885  89.5390034  53.8853836
  91.7226696  23.8035226  27.1314597  91.1087132  24.4519925  26.7868161
  91.2404728  22.9772115  27.1008968  65.0162983   7.9223019   6.9141811
  65.4205894   7.4563026   7.6460457  64.9320364   7.2615588   6.2267590
  75.2999973  25.1993918  39.9047470  74.6706867  25.6566334  40.4625368
  74.7591639  24.7006464  39.2923880 112.4520206   3.7101993  24.1733456
 111.7465687   4.3331954  24.3478584 112.1883106   3.2699355  23.3653474
  96.2371159  21.3471222   6.4851457  97.1418285  21.6361809   6.6042340
  95.8965015  21.9073749   5.7877713  92.5126076  30.0325966   8.7400937
  92.6036835  29.7987771   7.8163707  92.9339695  30.8889651   8.8130617
  67.5544071  19.2808068  18.3313119  67.3696995  20.0237417  18.9059091
  67.2481108  19.5627058  17.4693692   7.0772135   4.7384292  36.8559241
   7.5916350   5.2440542  36.2266803   7.6252353   4.7031304  37.6399255
  88.8311100  28.7095070   6.8066388  88.5635853  29.4388056   6.2473631
  88.9867783  29.1086650   7.6626027  41.3597298 103.8622761  11.5072477
  41.2267208 103.0308437  11.9625044  41.0546589 103.6982250  10.6149209
 114.5692635  12.7533877  50.5724859 114.5887375  13.6566865  50.2564144
 114.7741795  12.2251999  49.8009539  59.8207998  23.3360267  51.7090368
  59.5596170  23.3515668  50.7882881  60.6896687  23.7375379  51.7183399
  90.4144382  83.2688236   4.1648686  90.5427456  82.4933147   3.6186549
  89.4651031  83.3346558   4.2681313  72.4016190  85.7303047  46.1972761
  71.4518166  85.7222080  46.3157940  72.5608492  85.0988102  45.4957867
  98.1262589  16.5787959  24.6221399  97.3530960  16.3910377  25.1542997
  98.8619804  16.4855123  25.2273250 109.5565128  22.2520494  26.4706635
 109.0789795  21.4388108  26.3068748 109.7032642  22.6230311  25.6005645
  53.1087160   0.9179878  29.5001078  53.5651970   1.6675220  29.8822832
  52.5284243   1.3009709  28.8422203  16.3366187  98.2261086   7.0194185
  16.8536890  98.4641647   7.7889639  16.9714081  97.8446770   6.4129698
   6.8370283 104.5100307  15.2305329   5.9398896 104.1767311  15.2135479
   7.0321941 104.6251678  16.1605251  38.7487721  96.7916393  26.0743356
  38.5855961  97.6793957  25.7557368  38.2321286  96.2307835  25.4957557
  31.9361901  91.2003231  58.1975079  30.9967399  91.0726261  58.0657578
  32.3344398  90.9138298  57.3755932 101.4927101  10.5693281  17.8102422
 101.8949413  10.7564700  16.9620538 101.0011101  11.3627505  18.0224693
  79.6472549  26.7214298  34.6241307  80.4653263  27.2074485  34.5203042
  79.7977352  25.8974528  34.1608262  15.1958454  69.7235250  87.8528976
  15.7264829  69.2831421  87.1890259  14.8385608  69.0122128  88.3845139
  60.4080296  79.3100691  36.1124206  59.5005417  79.0675592  35.9283471
  60.9280920  78.6135817  35.7115722  21.9691372 106.3296986   6.8166578
  21.4782429 106.6261292   6.0502464  21.7560744 106.9666862   7.4986303
  76.9481564  34.2550302   8.8218451  77.2900105  33.7532616   8.0818474
  77.3039246  33.8154030   9.5941073  90.6143856   5.4804522  53.7310362
  91.0770702   6.3135123  53.8213968  90.9408188   4.9454716  54.4545507
  16.8360007  55.9986830  89.1820621  15.9617972  56.2823248  88.9145851
  16.6898310  55.1697922  89.6379280  92.7692795  15.4202402   7.8483182
  92.7858925  14.4632673   7.8609377  93.2424641  15.6575048   7.0507979
  85.7590103  32.3395848  26.5241051  86.3462448  32.8884411  26.0043526
  84.9852657  32.8847599  26.6667008   6.2060183  93.1827259  14.5345831
   5.7007557  92.7204704  15.2033579   6.9920331  93.4813309  14.9920142
  62.8381300  76.1012793  20.3333139  63.2706738  75.8480597  19.5178282
  61.9370461  76.2963200  20.0759387  92.5301361 105.2796268  42.1681929
  93.0721760 105.9952641  41.8361139  93.1105900 104.5185089  42.1658039
  66.2434959  25.0351429   7.1666133  66.8924570  24.6998024   6.5480435
  65.5472994  24.3782330   7.1629655  80.6941414   7.4772573  12.6997149
  80.8796406   7.3003083  13.6219466  80.4016685   6.6361928  12.3485756
 106.0240936  29.3940473  38.1267500 106.7583084  29.4292212  38.7398839
 106.2802315  29.9777126  37.4126339  14.9792981  39.0658665  92.0803547
  14.9058652  39.0450716  93.0345058  15.9019530  38.8790727  91.9070148
 114.3904114  40.5901051  28.9717221 113.9503384  39.9518847  29.5331836
 115.3202724  40.3767872  29.0497470  71.5524673  89.7265530  40.9398937
  70.9298801  90.4494762  41.0172749  71.5632534  89.3256760  41.8090391
  42.1881676  85.5105305  32.3531246  43.0205202  85.6925106  32.7893615
  41.7461729  86.3588047  32.3170662 115.3600502  15.8975160  15.0723577
 114.8913193  15.3847992  15.7308745 115.8972931  16.5056336  15.5800939
  87.0355415   7.9174846  28.1236982  86.8723011   7.8242868  27.1851373
  87.9877186   7.8666824  28.2073998  83.4402657  14.4490719   2.9684353
  83.1094456  13.8329959   3.6220714  83.1956291  15.3107166   3.3060050
  36.8352437 105.1088619  23.8826919  37.0849848 104.1850853  23.9051700
  36.8040895 105.3709984  24.8027682  23.6005354 101.0780334   7.6685953
  24.0576506 100.7143211   6.9103169  22.7934623 101.4454174   7.3081887
  21.9266272  42.8264093  89.7977257  22.1387053  43.2244682  90.6420040
  22.7670097  42.7662325  89.3434525  32.1201515  89.5139217  40.5418253
  31.8813515  88.8637543  39.8811579  31.3816071  90.1226616  40.5567265
  99.6281910  62.7596998  83.5155678  98.7484169  63.1272793  83.5999489
 100.1672268  63.4937716  83.2209301  75.3928137   0.6840836   0.9577289
  75.1697826   1.5455581   0.6050958  75.7482100   0.2038417   0.2098697
   8.8237327  15.6045556   7.7332413   8.3070087  15.5015385   8.5323757
   9.6212995  15.1013267   7.8971928 110.1739502  36.5069103  38.8641667
 109.3840694  36.1279011  39.2497468 109.9848270  36.5524673  37.9269409
  51.1818409  21.7516661  39.5469022  51.6528463  22.1921515  38.8395429
  51.4838266  20.8442283  39.5070148 103.4724236  27.1030641  93.5160828
 103.4539604  26.9709373  94.4639397 104.0659618  26.4259315  93.1913757
 116.5914536  90.0268745  81.7706490 117.1036911  89.6855259  81.0376263
 117.1495533  90.7001114  82.1598911  51.4383078 102.6977539  50.0386381
  50.5140877 102.8833294  49.8724556  51.8545055 102.7656269  49.1793346
  39.4732904  96.0669041   9.6259791  38.6446881  95.5929089   9.6965444
  39.9656677  95.8056927  10.4041588  89.6813583  40.9399748  91.4675713
  88.8412476  40.5083752  91.6230106  89.8211479  41.4793682  92.2458649
   3.6174229  68.1492138  80.3051949   3.5483420  68.3668518  79.3756294
   4.0118754  67.2771645  80.3183460  50.4350281   5.3341573   9.3010336
  49.7867060   5.4578668   9.9942929  50.4699898   4.3863159   9.1721684
  46.9241858 106.4945221  14.6843493  46.8029118 105.5603123  14.8539734
  46.0577202 106.8045998  14.4210541   7.8811145 103.7626266  38.9295363
   7.2322881 104.4377232  38.7308168   8.3799195 104.1188335  39.6647501
   0.9075944  33.3624649  76.4828587   0.4857295  33.8957691  77.1565390
   1.4202246  32.7193832  76.9726419   0.7243378 105.4510498  48.7974072
   0.3509729 104.8879528  48.1193590   1.4780112 105.8649349  48.3767986
  73.4515572   4.8167950  29.3173075  73.3622980   4.3106973  30.1248527
  72.5902557   5.2135003  29.1868281  86.7125511  85.9592152  15.5383897
  85.9185791  85.4278374  15.4794395  87.3210621  85.5496597  14.9234021
  76.8557739  17.3139548   6.7887127  77.4995899  16.7305446   7.1904129
  76.1118269  16.7466426   6.5863973  89.6931553   1.1363406   6.9336486
  89.5292377   0.4517142   7.5822234  90.5496311   1.4914601   7.1714854
  42.1589422 106.8237305   3.2364634  41.5104866 107.4031353   3.6364880
  41.6396427 106.1724949   2.7648160   0.6164919  10.6433606  38.8542628
   0.7864749   9.7019303  38.8219476   0.7554614  10.9428191  37.9557943
  77.3509264  28.9500546  30.0959635  77.8130245  28.6876774  30.8921146
  76.5821600  28.3805299  30.0665164  18.5718012  59.2746830  94.4395828
  17.6993203  59.5820475  94.1935444  18.6674690  58.4372377  93.9859676
  22.7551603  11.9735026  34.9688673  22.3320198  11.7336392  35.7932758
  23.5218596  12.4823976  35.2323580  51.3651896 100.3287220  15.1161659
  51.0618544 100.9833908  15.7451499  51.4268732 100.8034706  14.2872846
  77.4901438  29.3775058   8.6584669  77.2540569  28.4804535   8.8946778
  76.7293358  29.9000835   8.9120775  74.2154217  20.3963494  51.0808229
  73.7351799  19.9349391  51.7683554  75.1156855  20.0823474  51.1654758
  75.4631102  16.8362764   0.0863523  74.7028887  16.8255237   0.6678934
  75.2911913  16.1381295  -0.5455237  23.4612274  91.2347698   4.2077255
  22.6155519  91.1236572   4.6421456  23.5011196  92.1674538   3.9961919
  47.7948093  29.9673462  19.0428019  48.0084801  29.7787809  18.1290078
  48.0785418  30.8721614  19.1733229   0.8598514  43.8505745  82.2908020
   0.7954404  42.9179573  82.4965000   1.6358584  43.9201593  81.7347431
  41.4932299 106.9764233  15.0878561  41.1138773 107.3808956  15.8680630
  42.1455908 106.3643646  15.4285038  84.3740845   5.8871156  54.7680140
  84.9643898   6.5427881  54.3967199  84.1189384   6.2479764  55.6170845
  31.5359235 101.3187981  39.2135692  30.6688905 101.3353920  39.6187973
  31.3764191 101.5450096  38.2972622  41.5315580  13.6755502  30.5088210
  42.0139933  14.1719294  31.1699510  42.2110987  13.2553625  29.9816585
  32.7529669 101.9338512  27.2912621  33.6148190 101.7959881  27.6842475
  32.9395175 102.3057556  26.4292216 107.6702499  31.1448479  11.6720080
 106.9927597  31.4146948  11.0519886 107.6450634  31.8107796  12.3591244
  95.8064842  10.8440793  13.9724481  96.3575459  10.1172495  14.2627537
  95.5354118  10.6004643  13.0873466  82.7364254  24.6928787   9.9067777
  82.1796513  24.1144729   9.3855464  83.3251476  24.1007757  10.3748047
  53.5223532   3.8413417   6.3301075  53.1129456   4.7036049   6.2585366
  54.4354534   4.0271759   6.5490746  56.6296148  10.7410574  27.2448730
  56.6408253  10.5126464  26.3153934  57.2407818  10.1258242  27.6500893
 103.4304714  20.8174777  53.6594534 102.8896523  21.5928197  53.8097620
 102.8049564  20.0943947  53.6134672  75.8299398  24.7021317  26.3901734
  76.1010456  25.4386353  25.8421803  75.9595394  23.9316726  25.8371544
  57.6935196  10.9798610  19.9965334  56.9111824  11.0991538  20.5350041
  57.4314737  11.2753165  19.1245985  52.9804277  98.6039448  27.6461458
  52.7540636  98.0075073  26.9325209  52.1547890  98.7487316  28.1082964
 114.2197609  76.2324667  89.1119766 114.5534611  75.5013943  88.5919666
 114.9338722  76.4444256  89.7131157  49.0248537  98.8733482  14.8871529
  49.8108625  99.0211678  14.3612540  49.3537235  98.5314560  15.7185268
 100.1996136  19.8271108  44.2158222  99.7199631  19.5382845  43.4394503
  99.5409012  19.8488569  44.9099874 107.6285458  25.9472013   3.3990172
 107.7879047  26.5254188   2.6530254 107.3655128  25.1152968   3.0053446
  88.8850212  44.2434168   6.2452585  88.1223011  43.6752796   6.3534647
  88.6503696  45.0495291   6.7049956 100.0608540  47.1903086  27.0723581
 100.1626778  47.8988409  27.7078485 100.3136921  47.5807476  26.2357759
  88.4114933 106.4386463  96.7431831  89.3558121 106.5923309  96.7136002
  88.0693436 106.9020176  95.9786892 112.5578213  23.2450604   3.8833717
 112.2380352  24.0459132   4.2988294 111.7975235  22.6637650   3.8668621
 105.5825806   7.7161795   7.7889210 105.6555080   6.9055349   7.2851658
 105.9756279   8.3837402   7.2266811  86.4971542   7.9481757  11.5469527
  87.0502758   7.8286046  10.7749510  85.9489155   7.1639484  11.5725863
 104.7666550   1.3130724  15.6084871 105.7057285   1.1647033  15.4973352
 104.6798897   1.6376099  16.5048003  35.7362914  59.8483706  95.7553005
  35.6229353  60.7742977  95.5407143  35.4422593  59.3832588  94.9720669
  85.6441784  29.4823742  14.1449189  85.3425503  28.9373565  13.4181380
  85.8400726  28.8603091  14.8455548  72.6131153  25.5474448  21.7673779
  71.7357302  25.9294581  21.7894626  73.1897688  26.2835503  21.5627980
  12.8036320 101.7614746  60.1803923  12.9489696 101.5770817  61.1083555
  13.1494606 102.6451302  60.0547552  86.7807579  14.7908258  34.6885133
  87.5793171  14.4313526  34.3020940  86.7567730  14.4248748  35.5726719
 102.7100182  42.0631123  35.5617809 102.3279953  41.3302374  36.0446715
 101.9832134  42.6737261  35.4387426 105.9829903  23.1140280  19.3983161
 106.5751839  23.8121247  19.6779597 105.7220650  22.6813006  20.2112746
 108.4281731  19.9762249  20.7560515 108.7352467  19.4401431  21.4871812
 107.4742413  19.9054742  20.7912660  89.2960262  25.1779914  13.2415950
  88.5631371  25.4843187  13.7757003  90.0699902  25.5605292  13.6549699
  85.0739384  58.6127520  41.8610668  85.3062820  59.2621374  41.1973286
  84.2128086  58.2928658  41.5920734  94.6436977  45.2900219   6.3490915
  95.5969906  45.3590679   6.2972242  94.4451618  45.4085350   7.2779441
  34.2603540  89.0894318  42.2632122  34.6749949  88.2430649  42.0959616
  33.5046697  89.1061497  41.6759396  97.9980087  34.5218539  20.5334282
  97.4171352  34.2639828  21.2491894  98.7954712  34.8230600  20.9688187
  55.1167536   6.0017610  56.2933397  55.7694912   6.6987026  56.3599491
  55.6167173   5.1935977  56.4079571  72.3403549  52.9814482   6.8465209
  71.4678240  53.0606174   7.2320819  72.5193739  53.8470840   6.4792848
   4.7215083  55.7038355   3.9526731   4.0875423  56.3833952   3.7235045
   5.3244656  56.1335516   4.5593184 110.8091545  11.2374413   6.3207889
 111.7357731  11.0407543   6.4583731 110.4725266  11.4293957   7.1960407
 102.7163601  24.7550654   9.9291873 102.1195030  25.0077271  10.6335723
 103.5516071  24.5955539  10.3686702  10.7580662  80.1729870  84.4189739
  11.7038822  80.3156757  84.4550610  10.6573796  79.2221880  84.4645786
  77.2964191 102.4987507  46.1114168  78.2005548 102.2600269  45.9070158
  77.0414448 103.0957222  45.4079628  81.7061520  32.3700356  39.9431038
  80.8190060  32.3648477  40.3025198  82.2334003  32.8054762  40.6129074
  95.3800106   2.5543234  19.6533847  95.8240128   1.7414102  19.4120049
  95.7416916   2.7793685  20.5105734  58.3717918  17.7791321  12.6816118
  59.1528559  17.2633231  12.4813378  58.6853409  18.6826062  12.7222693
  76.1798096  50.2550364   5.5070889  76.9043255  49.9096584   6.0286492
  75.4557276  49.6515799   5.6737596  91.1093616  36.8318748  24.6200871
  91.6878223  37.5938630  24.5886803  91.6839600  36.0874367  24.4415474
 112.5986195   0.3809021  16.1160016 112.7223110   0.8452144  16.9438577
 113.4812832   0.2936908  15.7560992   1.5135325  52.9905128  27.8964424
   1.2783261  52.9447985  26.9697165   1.4120387  52.0931911  28.2138515
  89.2752743   9.0269202   7.3133677  89.8111248   9.4606090   6.6492808
  89.9089909   8.6488879   7.9230613  17.3430943 100.8869171  93.8890266
  17.1829522  99.9619770  93.7017536  16.5623116 101.1741066  94.3624592
  86.7685223  14.5650303  12.6797080  86.2049770  14.7423112  13.4328485
  86.1634064  14.4765723  11.9433379  59.2538309 108.7760830  11.9307292
  59.9865913 108.6836720  11.3218319  58.5108137 109.0154076  11.3767624
  67.2703457  37.5195813   3.7778166  66.7772198  38.3397841   3.7598020
  67.5935841  37.4147511   2.8829658  19.4815433 109.9118042  16.0176730
  18.5826731 110.1017475  15.7489991  19.3893564 109.4367123  16.8435168
  41.5650606  85.5656338  17.8064466  41.2903547  86.3741112  18.2390404
  40.7561779  85.1974010  17.4510026  81.5670300  15.9718311   6.5405840
  81.0002804  15.9958196   5.7695770  82.4272728  15.7291853   6.1980408
 106.8902493  17.7253461  25.6154108 106.0378742  17.3750877  25.3565502
 107.2145557  17.1068645  26.2700367  88.9618301  20.6680989  45.1522732
  89.0387917  21.3624763  45.8066034  89.3184280  21.0528708  44.3516350
  26.9447112  81.8663502  95.6451607  26.8744445  82.7287960  96.0544014
  26.5979815  81.2611866  96.3007545  68.0662251  30.7059169  21.5211177
  67.3420143  31.0470915  20.9963751  67.7355242  30.7134891  22.4193454
 116.7818642  97.3199940   6.7144769 117.0994473  98.1363201   6.3284969
 116.8165684  96.6866779   5.9975767  79.1016817   5.8591413  19.8617017
  78.1479406   5.9345770  19.8313606  79.3505669   6.2945616  20.6769919
 108.3879948  27.8880310  22.8640771 108.2507229  27.1024418  23.3934522
 109.2439747  28.2160163  23.1396985   5.7926822  69.0380478  83.4682655
   6.7245305  69.1165066  83.6725521   5.7414305  69.1842318  82.5236797
  70.9315634  25.1745343  10.3357196  71.7919588  24.7780514  10.4726553
  70.3381586  24.6510530  10.8743012 103.6050987  19.8840976   5.5111593
 102.9280567  19.2153072   5.4083580 103.8304043  20.1364470   4.6157336
   8.7664258  41.6165066  93.6252499   8.5944444  40.7497406  93.2573223
   8.0742091  41.7429018  94.2741680  93.6796761  25.4348707  27.8723049
  93.5180283  25.7568860  28.7591028  93.0301189  24.7431445  27.7465558
  88.3829212  39.5439363  13.8374138  87.6534462  40.1543713  13.7303340
  88.1456280  39.0188646  14.6017563  70.3139973  14.0785956  41.0619497
  70.3361607  13.5397923  40.2711058  69.6227694  14.7195518  40.8957863
 103.7134075   0.0778897  93.3646870 103.5291767   0.9597198  93.6882019
 104.4356728  -0.2317091  93.9112377   8.9317244  32.4668574  10.2152359
   9.1280699  31.5416050  10.3621566   8.0180126  32.4754691   9.9301249
  80.7909775  27.7534866  13.5401344  80.0277805  28.0459285  14.0383780
  81.2508774  28.5609508  13.3105278  27.4735594  10.3205419  21.4891839
  27.0510364   9.9010789  22.2386885  27.4913955  11.2508011  21.7139792
  73.5851669  35.4317069  31.7419982  72.8411150  35.4725385  32.3427916
  73.2601452  34.9340701  30.9916973 107.0964718  28.1898475  34.4498110
 106.9404888  28.4762454  33.5498786 106.9318295  27.2470641  34.4330645
 109.7373104  52.9713821  12.4620867 110.6006241  52.9916859  12.0491695
 109.1240788  52.8928995  11.7313206 109.7673035  22.2627258   3.3457550
 109.0673351  22.8590488   3.0799091 109.6424675  21.4876127   2.7981696
   5.9974182   8.4898525  25.6805038   6.3258410   9.0484077  26.3850498
   5.7611483   9.0998089  24.9816728  19.8836207  36.3029099  88.7285614
  20.6696272  35.7591462  88.6761379  19.2234969  35.8180857  88.2331753
 104.0445423  34.2555785  31.0803509 104.0298271  33.7118816  30.2926922
 104.2122269  35.1408434  30.7572103  78.3291864  38.1694198  37.3618960
  77.5726032  38.7527609  37.3024702  77.9512215  37.2916102  37.4150324
  80.3309727  40.1303101  14.3658888  80.2241611  39.2087841  14.1300642
  80.4071903  40.1260853  15.3200412  15.5789495  26.4509869  17.2563457
  15.6461525  27.3164415  17.6597130  16.2577140  26.4479351  16.5814388
 113.5139561  73.5461378  83.4720802 114.3050671  74.0817165  83.5314465
 113.6575699  72.9908943  82.7057171  74.0587854   9.0433252  29.4944572
  73.9537382   8.4615177  30.2472496  74.9759054   9.3153393  29.5281196
  93.7574673  33.2959938  26.0077047  93.8759422  34.0089273  25.3800774
  94.0769672  33.6514354  26.8370509  99.5548248  27.6317286  64.1374636
  99.1385937  28.1116843  64.8534393  98.8433743  27.1292806  63.7404633
  16.5501177  56.5744972   5.2201802  16.9982660  55.7289648   5.1986063
  17.2050619  57.1840954   5.5602843  80.5983353  29.1044784  31.1717153
  79.8915672  28.4948206  30.9595227  81.3926697  28.5714436  31.1378789
  99.0941429  35.0798655  40.5019140  98.9107513  35.3393602  41.4048290
  99.8726463  34.5265484  40.5651426  34.5036221 103.7446785  14.6074319
  33.9540815 103.1529140  15.1212895  35.1913786 103.1830311  14.2499852
 107.1538162  23.6169004   2.1388075 106.2549877  23.2982922   2.2215143
 107.4547672  23.2694864   1.2991881 107.0371437  67.2506905  28.3964491
 106.7296791  66.5059900  28.9132762 107.8574085  66.9489765  28.0061030
  76.1143064  35.6486869  33.0930901  75.2014494  35.5453396  32.8243232
  76.3082123  34.8554683  33.5925269  79.9731064  22.1092105  33.8977623
  79.8347425  21.7645884  34.7799897  79.2510319  22.7232885  33.7645268
 108.7475300  37.6336694   2.5081769 108.4203053  36.7762256   2.7801177
 108.5487556  37.6803112   1.5730059  82.4731255  47.8448820  24.1418457
  83.3517742  47.8619146  23.7624812  82.3941231  48.6811781  24.6007538
  65.6185722  34.1989589   6.4497375  66.2324238  33.9841199   7.1520621
  65.1560211  33.3789849   6.2767661  94.7847557  87.0417213  71.2062645
  95.6596947  87.1291733  71.5845060  94.1911793  87.2830105  71.9173813
  96.4947033  18.4955871   3.5122588  96.0033512  17.6816523   3.4012550
  95.8538342  19.1868281   3.3457911 103.7033463  28.1499457  25.9928322
 102.8323555  28.3218002  26.3507152 103.5466957  27.5638652  25.2524257
  60.1766253 104.7007084  42.0859432  60.0145674 105.6410599  42.0103931
  61.0522127 104.5783234  41.7190599  91.8345737  45.5308294  19.9064970
  91.1000824  46.1357450  20.0105572  92.6072979  46.0950089  19.8778772
 100.4971790  33.1530309  23.1648183  99.6875000  33.1094050  23.6734962
 100.5084515  34.0412617  22.8082395  13.1281209  88.1741810  93.9630127
  13.2041550  88.5007477  94.8595715  12.1853209  88.1088066  93.8110733
 109.3347645  12.5862718  39.2749763 109.4024372  13.0970633  38.4682894
 109.1638184  11.6922593  38.9787507  73.7581491 106.3668251  19.7461700
  73.6863327 106.6177464  20.6671000  73.4053469 105.4776669  19.7119808
  62.2087908 111.4282417   3.7610120  62.4963617 110.6698704   4.2693448
  62.8905106 111.5455818   3.0994081  92.5814629  31.9791341   4.5609307
  92.1131802  31.1702013   4.3546033  92.4125195  32.1228480   5.4920775
 103.9591694   8.0015969  14.3798351 103.6637974   8.3665234  13.5456800
 104.5075989   8.6875319  14.7605610 101.1714745   5.3418845  13.0222905
 101.9191933   5.2570236  13.6138439 100.9726524   4.4438648  12.7572179
  69.6993971  32.7683544  37.2193360  70.1869917  32.4335599  37.9719305
  70.3598785  32.8768706  36.5350676 117.6551437   7.5261009   0.0531939
 116.9067001   8.0414361  -0.2476305 117.7156258   7.7156317   0.9894905
 106.0407734  64.4309807  21.3421035 105.1190662  64.4849443  21.0895967
 106.1539650  65.1299000  21.9862556  51.2433863  98.2339764  30.5803919
  52.1862984  98.2800865  30.7385683  51.1464357  98.4364700  29.6498942
  86.8318939   0.7500254  57.5326586  87.2110367   1.4571716  58.0546045
  85.8949661   0.9447062  57.5102472  61.5978432 107.6026344  20.4480529
  62.0251417 106.7985249  20.1529860  61.4396906 108.0984879  19.6447194
 101.5677786  39.2503495  96.6175117 102.4807645  39.3971867  96.3702713
 101.0665680  39.8154874  96.0296009  79.3937302  26.7081094  30.9279656
  80.0656319  26.2184477  31.4023113  78.6134243  26.1561775  30.9801888
  46.6093111  11.6666496  27.3331165  45.7712364  11.6479456  27.7951932
  46.7486334  10.7620072  27.0530367  65.5047131 109.0244484  19.8084128
  65.4116106 108.9265060  18.8607991  66.3687515 108.6613846  20.0029802
  84.4232368  13.5729229  27.2129393  84.6314335  13.2906389  26.3223219
  85.1241875  14.1837049  27.4406290  65.7292843  71.2275219   9.7900110
  65.7147169  70.3343439  10.1338899  65.4867649  71.7755222  10.5364096
  33.3591890  93.3971310  55.9330225  32.5317168  93.8723278  55.8574343
  33.3274436  92.7476692  55.2305841 103.5727978  13.3941281  32.8351331
 103.2991314  13.8191640  32.0223093 102.8456974  13.5427129  33.4396839
  75.0659847 102.4215698  26.8271446  75.0658989 103.1619835  27.4337959
  75.8389521 102.5603962  26.2799001  27.6081204   7.2182429  85.2552032
  28.5068369   7.4267966  85.0001621  27.7007508   6.5490317  85.9332943
  85.4744434  29.0095973  39.3780971  85.9412766  29.7184157  39.8206711
  84.9796486  29.4453192  38.6841559 108.1779289  29.3467236  51.9888115
 108.8204765  30.0468588  51.8740273 107.7591896  29.2631197  51.1321306
   6.6980004  38.1568670  42.2005749   6.2496686  37.4253559  41.7761660
   7.5092435  38.2615161  41.7034197  74.6092653  40.8042860  10.1066482
  75.5084467  40.9421015   9.8088050  74.1933632  40.3171110   9.3953705
  87.7832413  43.2639551  20.4451704  87.6286125  44.0892553  20.9047365
  88.4088802  42.7956200  20.9978604  85.9727001   2.9467580  55.1485300
  85.5309391   3.7209818  54.7997332  86.8828011   3.2208940  55.2616549
  70.5993462  22.3959255   7.5062293  69.8177052  22.3598409   8.0575663
  70.6939363  21.5061450   7.1662712  43.9436102 107.7755737  33.8652635
  44.4664001 107.2710419  33.2420707  43.0368423 107.5614738  33.6458039
  97.8544426  13.6728072  49.7005606  97.0632839  13.8322866  49.1859102
  97.5355625  13.2883883  50.5171156 101.4423466  19.1607308  28.8156056
 101.9674873  19.3024516  29.6032453 100.8633804  18.4327257  29.0415335
  14.1012024  68.7876376  95.5517156  13.8793396  67.8566739  95.5338860
  13.2580304  69.2332682  95.6336146  39.0799713  95.4732513  94.3755341
  39.1277266  96.2649536  93.8396549  38.8603592  94.7775078  93.7559032
  54.8322153  23.8289046  35.1239252  55.4990721  23.8714051  34.4385576
  54.0381575  23.5491395  34.6684766  73.6126137 103.5191727  19.5728564
  73.1038761 102.9887390  20.1860905  73.5015059 103.0819511  18.7286305
  93.9388561  97.8327847  39.8345447  93.6902523  97.0251465  40.2841568
  93.1168938  98.3124065  39.7316909  78.5484219  20.7586336  19.8033881
  78.9365435  19.9172008  20.0433588  77.6041985  20.6103373  19.8551893
 100.4144764   4.6137106   5.1093966 100.9310722   5.1587367   5.7029474
 101.0589314   4.2295685   4.5149723  73.1866455   7.6885527  53.7847233
  73.2157850   8.6215508  53.5728359  73.6182594   7.2613168  53.0448532
 103.3628750  29.6970534  29.3212056 103.2442856  28.8613486  28.8697982
 102.4895287  30.0886607  29.3335247  70.5370426   1.8104084  35.6648660
  71.0780239   2.6000029  35.6754303  70.6915951   1.4257090  34.8021078
  78.4593153  10.2309513  23.6894846  77.6188660  10.1725364  24.1438651
  78.3989620  11.0371029  23.1769323  90.6584740  59.8485184  23.6560297
  90.1460648  59.9607086  24.4567084  90.3393269  59.0279675  23.2804275
  80.7153797   2.5213745  70.4841375  79.9947500   2.5277281  69.8541546
  81.1218739   1.6617507  70.3744030  91.6695309  11.7910874  95.4540920
  91.1993885  12.5532269  95.7922268  92.3256588  12.1579337  94.8615074
  82.1705246  46.5859747  10.3221536  81.7894936  46.7094374  11.1915231
  83.0391979  46.2211084  10.4909873  91.3088036   3.6752239  36.9013715
  90.7322502   2.9269165  37.0557928  92.1579838   3.2847103  36.6949129
  89.2519855  37.7164030  22.7323008  89.9427605  37.3738170  23.2994843
  88.7648678  38.3243108  23.2885361  91.2341213  14.7566295  54.1892719
  90.5715179  15.2762222  54.6444750  91.9735146  15.3545129  54.0794563
  97.0307064  14.2694914   6.2958127  97.7004051  14.3837917   5.6215268
  97.1825886  14.9889457   6.9086325  92.1091747  49.4259930  28.5818052
  91.5206146  49.0517664  29.2373800  92.5292873  48.6675072  28.1762981
  96.0486412  84.5296574  88.5413361  95.7608318  83.8141537  89.1083050
  95.2468777  84.8379326  88.1190014  98.1159496   1.3486673   0.6021037
  97.8751087   2.2687078   0.4936949  97.7515984   0.9132951  -0.1685638
  31.7907238  86.5452766  93.8162613  32.2797918  87.3311901  94.0599442
  31.5112710  86.7068672  92.9151344  62.8788424 109.2296600  39.0874434
  63.1138849 109.2978477  40.0128269  62.1029091 109.7826481  38.9960289
 106.2957096  38.6975479  36.0904646 106.4957237  39.3876171  36.7229438
 105.6803608  38.1244826  36.5478230  99.6055603  45.3677750  12.6063740
  99.6064377  46.2893200  12.8651845 100.5088234  45.1921749  12.3427165
  42.5473881  87.6770782  29.7736835  41.7608595  87.1390629  29.8639226
  43.1079721  87.1833038  29.1752195  13.2661319  29.6927333  94.3040752
  12.6688147  30.4179144  94.1208935  13.4913504  29.3442082  93.4415054
  24.2576647  53.9453125  42.8053856  24.6381164  54.7138071  42.3800564
  24.5994878  53.9723730  43.6990643  83.8065624  74.1102648  30.9824753
  84.5896626  74.2008638  30.4395390  83.9640808  74.6889496  31.7284942
  21.5912151  40.4664707  12.7373528  21.0872817  40.7865572  11.9891381
  22.2967076  41.1049175  12.8417337 106.5897942  72.8856421  26.6417623
 105.9140873  73.4463978  27.0228171 106.3474751  72.0003128  26.9132543
 114.9027252  46.1917830   9.7965825 114.7911167  46.0845423  10.7411849
 114.0356541  46.0155201   9.4314116  12.7733493 111.0519028  21.4909601
  12.4806595 110.1407146  21.4732170  12.7728426 111.3215542  20.5725265
 101.3050938  39.8061681  30.1996946 102.1956921  40.1533222  30.1492238
 100.9557438  39.9133754  29.3149948  32.1452713  85.9193230  89.7047329
  31.6056466  85.1607895  89.9275970  31.8379378  86.6120243  90.2894974
  22.3442507  84.0940380  91.3509274  21.3941765  84.0507698  91.4591789
  22.5983191  84.9069309  91.7878437  48.1242371  71.9245958  18.3435202
  47.9159260  71.1603403  17.8061652  47.5507450  72.6149225  18.0106640
   7.2919589  29.5098209  25.3187895   7.1537411  30.4531288  25.4042292
   7.7965021  29.4138741  24.5110369  89.7933292  16.5420377  34.7911525
  89.5443058  16.3970506  35.7039475  90.4432392  15.8631849  34.6094680
  22.3482990  61.5883827  45.0487041  22.8949738  62.3642492  44.9245596
  21.4672327  61.8752766  44.8086119  87.7976227  25.0385118  35.5872536
  87.3480797  24.1947913  35.6349897  87.2898102  25.6132078  36.1600447
   1.1867091  40.7076645  14.2329168   0.6297453  39.9307489  14.1836345
   1.1616088  41.0767508  13.3500934   0.9240735  46.8798399   1.1130887
   0.4107549  47.1516562   0.3522654   0.4921884  46.0830975   1.4211608
  34.7126245  62.2720957   1.8654239  35.2679777  63.0482912   1.9385065
  33.9425683  62.4777889   2.3954567 102.1456814  24.1820049  21.3828158
 102.6538944  23.5250163  21.8585443 101.4296722  23.6879396  20.9834886
  31.7954469  76.8823195  91.8625069  31.5214562  76.7356110  92.7678490
  32.4459291  77.5822115  91.9195557  68.1414700  28.4426451   0.2678980
  68.2229424  29.3892622   0.3841306  67.4686956  28.1811643   0.8965778
 117.8041458  23.8699055  40.1123810 118.6299801  23.6138082  39.7017193
 117.4433804  24.5374417  39.5288754  11.6840124  15.7211614  38.1268239
  11.8899369  14.8047400  38.3112121  11.1473191  15.6913733  37.3347974
 113.1433487  28.8156152   1.2647648 112.6810074  29.6458006   1.1495893
 114.0684032  29.0409374   1.1660623  60.3071117  96.6925812  90.0415230
  59.6877956  97.3948002  89.8425865  61.1686420  97.0901680  89.9152851
  51.2207127  70.2839231  95.1898861  51.6789246  71.0100794  95.6129360
  51.8077612  70.0078058  94.4860649   5.2941924  22.0832515  13.5840201
   4.9002677  22.8714299  13.2100797   5.9415966  21.8079877  12.9349220
   6.6498435  17.9945290  10.9657860   6.6380423  18.7863719  10.4281271
   5.9317940  18.1160772  11.5869641  88.4080315  57.0486450  27.7754664
  87.5079441  57.1685505  28.0782700  88.5409641  56.1008167  27.7887917
  15.7054079  63.9244938  89.6621227  15.1105547  64.5825100  90.0218391
  15.1282060  63.2514477  89.3014622  59.2418909  99.4164944  36.3513446
  59.7885418  99.6009445  37.1151400  59.0164661 100.2795410  36.0041118
  97.0092392   1.0531011   8.2531703  97.7330303   1.3627382   8.7976778
  97.4210835   0.8060209   7.4251819  21.7994522  94.7460338  95.4431595
  21.3382840  94.0208957  95.0215796  21.8702435  94.4835898  96.3609519
  80.0896740  49.2481899   6.9700080  80.2174854  49.3834352   6.0310709
  79.1692209  48.9989471   7.0529795  17.6093328  44.3474913   7.7794057
  17.6230514  45.1778269   7.3033994  17.8703797  44.5781708   8.6709619
  88.2071495  43.8773060  24.5446706  87.9476452  44.4991446  25.2245307
  87.9296017  44.2880392  23.7258315 117.3650774  74.7715902  41.6813946
 116.4387401  74.7000456  41.9116402 117.6991129  73.8773251  41.7517138
   1.8905510  46.0418415  18.8805640   2.0232326  45.9146595  19.8199534
   2.2810507  46.8962765  18.6970389 111.3787746  81.3725090  63.4438419
 111.4748764  80.6085873  64.0125418 112.2611141  81.5353966  63.1104088
  27.6966953  88.6810017  87.6964855  28.3954644  88.0269051  87.7070904
  27.9259920  89.2647266  86.9733620  59.2933750 102.7767754   4.9973062
  58.9827108 103.6170578   4.6601862  59.8762083 103.0094051   5.7200974
  67.0672512  23.3567905  38.4071064  67.1975517  24.1032767  37.8222895
  66.2039804  23.0164051  38.1722999  24.3454576  21.0956907  89.8863220
  24.9933720  20.9274459  89.2021179  23.5301900  21.2540793  89.4104195
  94.3431854  52.9361153  24.3732643  94.0207100  53.6303616  23.7985754
  94.6609592  52.2590256  23.7759376 101.2723255  36.4200330  27.5551438
 100.7812023  36.4872217  28.3739924 100.6242466  36.5929532  26.8722701
 111.7667866  15.1013124  40.0425911 111.7995548  14.3589318  40.6459379
 110.8343220  15.3003454  39.9581504  87.7191734  36.4071941  13.5445309
  88.0169964  36.9833779  14.2484844  87.6684952  36.9749689  12.7755737
  48.6329126   0.9188668  89.9422741  48.0198002   0.3287365  90.3805351
  48.1660271   1.7527725  89.8888779 116.5161419  43.2980204  35.6452346
 116.7057419  42.5803757  35.0408602 116.4721489  42.8811502  36.5057659
  17.9390621  90.6521893  91.4518166  18.7687218  91.1099911  91.5871620
  17.9424751  89.9522018  92.1046829  89.6615601  58.5231543  11.6139925
  90.3355312  58.3731031  10.9510648  90.0418091  58.1822586  12.4235761
  80.1016331  36.3656187  10.2741933  80.4913330  36.0240531   9.4693971
  80.4819489  37.2384715  10.3727722 111.7902470  19.4920957  26.0654926
 111.1505890  19.9228013  26.6325545 112.1413898  20.1972413  25.5217123
  68.3614826  19.3217826  48.0922651  68.5907459  19.9498785  48.7772226
  68.8751888  18.5415626  48.3010674 117.1597862  42.8163624  16.3076365
 117.9052067  43.3574772  16.0473025 116.9410515  43.1181669  17.1892834
 100.3481674  10.1070440  14.4177580 100.5828571   9.1950423  14.5892417
  99.4918251  10.2158296  14.8313653   5.4908353  92.0115852  84.2371559
   5.8469075  92.8739262  84.0231323   4.7441503  91.9076538  83.6473274
  90.5474091  32.2607708  30.8297753  91.4033604  32.1910596  31.2525249
  90.6187153  33.0344367  30.2706766   5.4787338  42.2539425   7.9489368
   5.4777610  42.4090147   8.8934916   4.6624619  41.7824268   7.7827895
  90.9510708  35.8360982  10.6426764  90.9414768  36.3417387  11.4553678
  90.8649254  34.9258304  10.9259093  25.1382303 106.0178375  70.3526068
  24.2893195 106.4332199  70.2008295  25.2926970 106.1245441  71.2912130
  18.2163990  44.1236830  39.0237308  18.6925268  43.7124681  39.7451448
  17.4930990  44.5862198  39.4469643  92.0767117  20.8955789   9.7485316
  92.2758198  21.0813928   8.8308936  91.1866665  20.5436707   9.7339857
  95.1987743  60.3644276  30.8580899  95.4753590  61.0054588  30.2032542
  95.1953125  60.8505774  31.6826367   2.5560194  30.1276326  37.8181791
   3.0329239  29.4312119  38.2696128   2.9878464  30.9344697  38.0988336
  10.8624232  28.8973355   6.1864895  11.7253757  28.8902855   6.6006082
  10.9815061  28.4017229   5.3762925 115.2036285  16.0394442  37.2539783
 114.9162960  15.7149279  36.4005375 115.1101017  15.2882099  37.8397512
 100.6819725  35.5307508  21.8846655 101.1803436  36.1560535  21.3584971
 100.1113033  36.0752606  22.4269581 103.7947178  15.9278750  31.1492181
 104.7365570  15.8376241  31.2942457 103.6814117  15.7775867  30.2107024
 116.1770916  10.5630219   4.9105665 115.3286839  10.5279839   4.4687396
 116.3763142   9.6503466   5.1192963 107.8514481  35.9772515  23.2519484
 107.8168201  36.1524248  24.1923451 108.7198257  36.2779474  22.9841232
   8.8210863  42.0410681  10.8760893   9.5282853  41.3961554  10.8623815
   9.2539722  42.8666306  11.0935450   2.4502936  70.6192350   7.2343320
   2.8518882  71.4864302   7.2883940   3.1742135  70.0334167   7.0129871
   5.4329920  38.4979200   4.2321160   5.3688830  38.8045287   5.1366121
   4.6556851  37.9532480   4.1081882 107.3049450  76.6029549  28.9850616
 106.4000988  76.3570070  29.1774130 107.5243092  77.2513580  29.6541548
  31.9518018  78.5105228  94.9249268  31.6379905  78.9950275  94.1613770
  32.7576232  78.9601612  95.1793098 102.0213699   9.5116407  33.0761290
 102.6502609   8.7906456  33.0462503 102.3115730  10.0523102  33.8107634
  99.9749184  69.1468430  29.5649052  99.9034405  68.5306597  30.2939057
 100.1456356  69.9916792  29.9812508  44.6493053 109.8977089  35.3754115
  44.5408726 109.1026974  34.8534560  45.5749178 110.1222801  35.2803040
  99.1213894  49.1416168  11.1052752 100.0193501  48.9151525  10.8631957
  98.6758232  48.2985163  11.1882508 109.0205193  34.8902678  29.2062736
 108.2197762  34.5394015  28.8164806 108.7160683  35.4195380  29.9434423
  73.7707806  62.4234819   7.4397713  73.7500286  63.1335497   8.0813354
  73.3828402  62.8020811   6.6508514 103.9918518  47.4913645  27.5597668
 103.8058853  48.1742573  28.2042074 103.9067554  47.9308891  26.7137122
  89.5458031  81.8527699  16.6454995  90.1515388  81.8663883  17.3865294
  88.7339687  82.2221661  16.9929433  48.4239388 104.6820450  80.7682705
  48.8486338 104.2455673  81.5067482  47.6088858 105.0285721  81.1313629
 115.2391434  22.9093170  40.7240343 116.1251259  23.1887293  40.4933596
 115.2678776  22.7803898  41.6720724  84.9115276  31.1103606  23.5983872
  83.9780712  31.2489796  23.4381342  84.9404621  30.5355644  24.3632436
  92.5018787   7.5338858  23.9483500  91.7349720   7.6107705  24.5159554
  92.7653885   6.6168410  24.0246844   4.2591035  98.8115120  94.4129467
   4.1901180  99.7578716  94.2869282   3.4672737  98.5759163  94.8964119
 112.7495861  11.1492574  25.0270414 112.9871368  10.2265108  25.1183844
 112.3546982  11.3793111  25.8680940  14.8966467  95.5132866  79.7340775
  14.0816069  95.0961304  80.0132179  14.9813938  95.2788734  78.8099003
  97.8634930  40.5264521  17.7802479  98.0796146  39.7650981  17.2418594
  98.6795521  40.7389545  18.2331526  41.9384861  83.1398678  91.6116142
  42.2184420  83.7386513  92.3039436  42.3395109  83.4895229  90.8159065
   0.8810155  77.6307774  90.6938362   0.6635828  77.7540827  91.6178226
   1.5914328  78.2510471  90.5301189 109.3612385  66.1160707  27.5060797
 110.0873852  66.6772032  27.2339177 109.7474670  65.2433491  27.5796056
  82.5837326  24.9563909   2.6504079  83.3588028  25.4576516   2.9038680
  81.8619728  25.5816221   2.7165124   5.2258718  93.1649017  95.2588940
   5.3375912  94.1143227  95.2103424   4.9559706  93.0013943  96.1625767
  25.0861573  98.9404774  44.5572853  25.7444382  98.6740589  45.1990986
  24.2560577  98.6387157  44.9262142 100.9816360  26.3442302  22.5687027
 101.4264393  27.1917987  22.5660467 101.6426754  25.7258463  22.2574925
  85.3927517  87.9309273  56.8051004  84.7275352  88.1060123  57.4707317
  84.8940659  87.7784157  56.0024261  28.5338354 100.0819206  92.4090481
  28.3984709 100.7699680  91.7575073  27.8467226  99.4409275  92.2267628
  54.8881292  95.6826401  87.5652885  54.2494106  95.3067589  88.1710720
  54.7024727  96.6216278  87.5737190 104.9508572  64.2949867  28.9359665
 104.4735241  64.1952801  28.1122899 104.3840885  64.8456860  29.4760919
  51.2361860  28.6269593  65.8556700  50.9313059  28.6275864  66.7630148
  51.4170980  27.7066731  65.6644249  84.3589592  32.2005415  30.7417417
  84.6273232  33.1185770  30.7040286  83.6304760  32.1892667  31.3625622
  17.9657733  89.2395496  93.8618946  17.8539705  89.5427608  94.7628975
  17.2796762  88.5827065  93.7433529  14.1575301  53.9936829   7.1074843
  15.0308585  53.6895132   7.3544896  14.3122065  54.8203802   6.6504514
  26.4632273 106.6574860  77.5300503  25.8362103 106.0129356  77.2019768
  25.9200239 107.3512936  77.9039431  87.1403885   5.0465387  69.0564346
  86.2920761   5.4687291  69.1919565  87.3109341   5.1468116  68.1199074
  86.7600918  41.1261082  28.4832644  86.5437889  40.7329416  29.3287635
  87.6816750  40.9068918  28.3459353  65.4388666 101.2711334  59.6034670
  65.9829950 100.6674004  60.1090956  65.8252382 101.2656593  58.7277269
  24.2318225  58.7810898  91.4463520  24.3649054  58.5910082  90.5177021
  24.0599346  57.9272413  91.8433762  96.7566776  43.2835531  17.3181975
  95.8356380  43.4877968  17.1563041  96.7794323  42.3303270  17.4022675
  80.1968384  17.1236598  92.3183823  80.9081078  17.5090504  92.8300571
  80.3381634  16.1793077  92.3851585 112.3650265   7.0858335  65.0369358
 112.1035480   7.2396058  65.9448004 111.7630386   7.6215035  64.5203018
  14.5443380  44.7327709  11.6327226  13.9003551  44.5967722  10.9377241
  14.7512519  43.8513327  11.9433510 104.8818779   2.2992671  17.9740977
 104.2556381   2.2268122  18.6943853 105.6551933   1.8256369  18.2805049
  11.8531549  38.6900806  58.9306831  11.0529923  38.1754541  59.0361786
  12.0861697  38.9556384  59.8202991  88.4638691 108.5843468  28.6975360
  89.2286491 108.3200073  29.2088723  88.4055424 107.9322052  27.9992938
 107.3842335  47.1632099  10.3996062 108.1274319  46.8296623  10.9022391
 106.7867947  46.4183664  10.3325832  96.6109848  50.5773449  23.6400366
  96.1214733  49.8436499  24.0119314  96.3888454  50.5661249  22.7090359
 108.9750957 109.6718407  87.5838947 108.5488796 108.9444828  88.0372334
 108.4297752 110.4322433  87.7855015  95.1787853  44.6651077  25.5543494
  94.9785519  44.7495556  24.6221447  95.7103443  45.4352236  25.7558703
 106.2496185  25.4701114  35.0498247 107.0127583  25.1231575  35.5118585
 105.6760788  25.7941675  35.7442832   8.9105153  58.1022739  36.8875456
   9.2479265  58.3608770  37.7451634   8.6940366  57.1749830  36.9850039
  65.6421375  46.0698032   0.1494431  64.8572636  46.0088015  -0.3950598
  65.6110477  46.9533539   0.5163201  68.4689617  12.5777197  32.7717829
  68.5691738  13.5257041  32.8584766  67.9864168  12.4617398  31.9532919
  10.3227603  11.1978936  37.3820639  10.7097924  10.6043828  38.0256343
  10.1582491  10.6470251  36.6167474 106.6587448  56.3225222  13.8070548
 106.8806171  56.2492943  12.8788090 107.4048996  55.9332895  14.2630959
  13.3126462  23.6888981  20.5234790  12.5224984  24.1932344  20.7172418
  13.9751780  24.3497229  20.3219962  97.4432087  30.5222082   9.2710119
  97.9752064  29.8232508   9.6513641  96.9237137  30.8534431  10.0035679
 108.2089901 109.7028542  70.3933048 108.6532784 110.5469036  70.3132248
 108.8835239 109.0564156  70.1850700  94.4723797  30.8617091  14.1222143
  95.0063515  30.0702024  14.0542758  93.5795593  30.5640340  13.9475560
 116.3525009  33.7741256  27.0607686 115.8464241  34.4673896  27.4844575
 115.8067322  33.4941173  26.3259435 110.1821804  15.4190266  32.6054597
 110.9281349  15.7133567  32.0828104 109.7424507  16.2266135  32.8713036
 102.6354408  44.9037790   8.6679387 101.8630886  44.3939447   8.4234595
 103.2568169  44.7537708   7.9554653  98.7415791  38.3066678  48.4593773
  99.0802670  38.1544781  49.3416262  97.8507328  37.9571605  48.4812117
  90.6035137  27.6916599  31.0940456  90.3486824  28.0839062  30.2589202
  90.4181576  26.7587066  30.9869337   6.3981450  50.8885145  42.0797253
   6.6478544  51.7585230  42.3911142   6.4868647  50.3245449  42.8480339
  80.9967613  23.2453513   7.8372890  81.6759682  23.5865760   7.2555029
  80.2896595  22.9790282   7.2496510  96.3519478  44.6142960  20.5443668
  96.0192585  44.1663885  19.7665942  96.6410446  45.4685307  20.2235341
 110.2329254  56.4190722  21.4550161 109.9253464  57.3161602  21.3251901
 110.5500031  56.1475658  20.5936360  83.1434155  45.9344006  21.2759686
  83.4376812  46.6631603  21.8223643  82.1894836  45.9464407  21.3540745
  94.8877907  49.0663195   5.8495176  94.6731281  49.6870899   5.1532423
  94.8844814  49.5926237   6.6490340   0.3776966  83.4222794  43.6523485
   0.8377358  83.1421566  44.4436312  -0.0461803  82.6277733  43.3277988
  81.8728447  44.8780918  28.6999965  81.0938740  44.9208832  29.2546177
  82.2276878  45.7669353  28.7164378  71.7646694  48.9211464  19.3976247
  72.5673628  48.8327456  18.8837218  71.9927454  48.5734701  20.2597952
  13.9286017  54.3274927   2.9436985  13.4528279  55.0527859   3.3484501
  13.6760914  54.3606710   2.0210016  98.1663799  22.4066091  30.2521634
  98.2668781  22.2605324  29.3115282  97.5382042  23.1259251  30.3170681
  95.4249859  31.2091970  22.7600169  94.9175739  31.8361378  22.2445416
  95.5118084  30.4451323  22.1900177   5.4098171  77.3560381  54.1652489
   4.6485451  77.1856022  53.6105871   5.1652366  77.0058775  55.0218678
  64.9148703  94.8077488  23.4362221  65.0242710  95.4546928  22.7392840
  64.3953133  94.1103745  23.0362654  86.5921021  15.5982900  43.8866138
  87.1356106  15.6872404  43.1037235  86.7821312  16.3831401  44.4005537
  59.3261719   8.3017695  91.7898178  59.3833733   9.2476952  91.6549683
  59.5443058   7.9247069  90.9374809  99.3618011  57.5980806  27.0017362
  98.4195423  57.6889133  27.1435833  99.5356274  56.6665125  27.1366405
  99.4711018  33.7939858  44.0745211  99.3916512  34.7341013  43.9129591
 100.3881931  33.5951734  43.8856936  14.7384310  98.1326962  87.9615211
  14.7200620  98.8263321  88.6208820  13.9081550  98.2244778  87.4941349
  16.9527590  52.0601177  20.9339643  17.0634532  51.5293932  21.7228317
  17.8431284  52.1963549  20.6100631   2.2763412  49.9332619  16.6675210
   2.5216207  49.9253845  15.7423139   1.7825012  50.7458305  16.7774737
  32.6336932  59.5550203  43.7204027  31.9869304  60.2600479  43.7498999
  32.4427295  59.0887070  42.9065704   9.4980675  43.7561607   4.0473542
   9.3380457  44.2877054   4.8271525  10.2179897  43.1764936   4.2962137
  34.8972678  49.1719341  10.6002879  35.8479881  49.1684103  10.4891551
  34.7664261  49.2997980  11.5398431 106.2461090  86.8528271  37.8589249
 106.7565918  87.1147919  37.0927548 106.8834686  86.4399624  38.4416389
 112.1179485 103.4650803  24.1847062 111.2626553 103.5468102  23.7627816
 112.1185875 102.5827694  24.5558739   3.6745813 106.0750771   6.7054904
   2.7815598 105.7664967   6.8588775   3.9022112 105.7301044   5.8421177
 117.0248985  42.3578739  38.2968307 117.9035759  42.2808838  37.9250288
 117.0427990  41.7965794  39.0719819   1.8584198  46.9935751  50.8312464
   2.1803086  47.3085308  51.6758919   0.9377325  46.7843533  50.9887028
  76.8857241  59.9484301   0.9880413  76.3639259  60.5971718   1.4603645
  77.1353197  60.3877020   0.1750391   9.6033823  85.1461315  30.4882073
  10.2291918  85.3935432  29.8074841   9.7279561  84.2033100  30.5968475
 101.5474224  48.2371140  10.5166745 101.7341423  47.3684692  10.8727908
 101.6515923  48.1355762   9.5705938 104.9548721  51.5525675   2.8849670
 104.1960335  52.1036196   3.0766532 104.7697639  51.1817598   2.0221412
   0.4388563  59.5905209   3.6225054  -0.0773347  58.9682627   3.1100816
  -0.0103947  59.6366262   4.4664717   7.3837680  69.1673899  38.7132335
   8.1813806  68.6515522  38.8313770   6.6974586  68.6459827  39.1295838
  62.1638107 104.2464638  84.8287582  61.2820005 104.6187401  84.8363304
  62.6452971 104.7579098  85.4790115 114.0521240  69.4752455  31.8565202
 113.9197636  69.1752577  32.7558088 113.1958961  69.8070002  31.5862298
 114.1432953  76.6353226  33.4756994 114.7740364  76.2516737  32.8664303
 114.6814442  77.0116854  34.1721106   4.4388476 103.6696339  54.2303753
   3.9817256 104.4988060  54.3709135   3.8894147 103.0167294  54.6640539
  30.9189653  38.5906744  22.3098469  31.6920757  38.6609101  22.8698468
  31.2267971  38.8536549  21.4424896  59.8587132  96.4715004  95.1148224
  59.5282602  97.3065948  95.4459476  59.8790026  96.5819168  94.1642284
 100.1379776  56.8561554  11.5540314 100.5607700  57.5891972  12.0013928
 100.7772064  56.1453199  11.6021979  85.3286266  69.1270447  51.8925333
  86.0806370  69.2490196  52.4720383  84.5909309  68.9814568  52.4848557
  14.1856372  38.4256935  44.8474407  14.6081126  39.1630292  45.2879906
  14.7414672  37.6738381  45.0523758  11.5042233 103.7714005  93.9891624
  12.1270061 103.0455303  94.0276337  11.6108644 104.1320896  93.1089592
  15.5302846  74.7125673  65.8352518  16.4786386  74.8248863  65.7701302
  15.1953757  75.5941677  65.9990978 118.2642555  84.9935055  22.9345536
 117.4276447  84.8560524  23.3788729 118.1521893  84.5786667  22.0792246
  20.6072497  77.1474838  12.7362704  21.3724279  77.5528908  13.1441665
  20.7366586  76.2078953  12.8653133 101.7771149  47.2626591  89.3155956
 101.5728855  46.4153433  88.9198875 100.9241104  47.6324701  89.5433331
 105.7603359  68.0745316  25.4040432 105.5643463  68.7160730  24.7212243
 105.7822323  68.5852194  26.2133336  91.6900158  57.9636717   9.8677689
  92.2631264  57.1989775   9.8127431  92.2288609  58.6374855  10.2823222
  68.1344128  14.8953652  65.2795649  68.3155155  15.4740226  66.0202312
  67.8157806  14.0864146  65.6799459  83.9339066  60.4963636  18.4984767
  83.3456230  60.5218506  17.7438235  83.3787155  60.7283306  19.2429090
  20.4290795  52.5494862  58.1741476  20.2968097  53.4423113  58.4928989
  21.3737941  52.4095869  58.2387829 114.1391659  67.2186136  13.6714089
 113.6925030  66.3835287  13.8105392 113.9884567  67.4198818  12.7478230
   4.2208192 108.4780979  28.4043360   4.0692061 108.9766121  27.6013851
   5.1329708 108.1947517  28.3417082  96.6854668 110.9930038  17.9735100
  96.6929722 110.4123592  18.7344480  97.5199032 110.8248806  17.5356996
  36.0456157  38.1760049  36.1917996  35.8846021  38.5038304  37.0765805
  36.9978404  38.0965018  36.1354280 106.7448711  17.4096072   6.2761915
 107.1595478  17.7066898   5.4662454 106.8747997  18.1319118   6.8907058
  12.2518301  67.3515224  23.2425261  12.4163473  66.8984365  24.0694976
  11.3347530  67.1622801  23.0440569 100.1965618  41.1302090  19.2311037
 100.3668022  41.1029577  18.2895601 100.7459831  40.4354906  19.5940495
 115.5418777  45.6007910  37.2629690 115.9380436  45.1557922  36.5137959
 116.1818409  45.4995394  37.9675436 110.2947807  69.4053602  35.1755643
 110.1841068  68.5264492  35.5381823 110.3403854  69.9767447  35.9421659
  76.7418098   8.5827583  93.9753437  76.2610340   8.8592249  94.7555065
  76.0731220   8.2075608  93.4023571  58.0843210  69.2693090  91.1737061
  58.8143635  68.9182758  91.6836548  57.7609444  70.0051069  91.6935730
 114.2792702  82.5517082  14.1756797 114.1417217  81.8833733  13.5043836
 113.4573841  82.5714684  14.6659315 102.7074528  57.6953888  13.7654364
 102.7889633  57.6158810  14.7158384 103.5952854  57.5550842  13.4363294
  12.4500751  87.0239162  51.4853430  13.2449448  87.5557137  51.5253830
  12.7540803  86.1591911  51.2095690   9.8148519  40.6019878  36.4023781
   9.1471976  39.9222803  36.4943981   9.6102583  41.2335968  37.0919061
  55.6393003   6.1206514  90.8259392  54.9089289   5.5569744  90.5708694
  56.2138319   6.1293560  90.0603867   5.5430526  61.1237097  66.5962172
   5.4438400  61.2065983  65.6477880   4.8061743  60.5761433  66.8671751
  40.4921436  14.8138285  90.6154156  40.0189066  15.2626455  91.3160133
  40.6454229  15.4918480  89.9573612   8.4615767  83.9523029  25.2217603
   8.9819014  84.6491051  24.8218131   9.0071410  83.6268806  25.9377813
   4.8350552  87.6615334  23.4551144   4.9114770  87.9203606  22.5367475
   5.6771237  87.2552776  23.6603308 111.7209721  80.0453377  28.1067705
 111.9187546  79.5341921  27.3220134 112.5780678  80.2927780  28.4537601
 114.0565395  98.5999870  34.9255395 114.4505405  99.2640972  34.3598866
 113.3412743  98.2352448  34.4043970   7.0924783   3.0743006  29.6863151
   6.9878137   3.3611351  30.5935097   6.3026726   2.5654048  29.5033813
  88.3646297  22.8005815  20.3673053  87.8709602  23.2614160  21.0456491
  89.0686131  22.3585868  20.8419394 106.1960888  59.1805363  23.4590650
 106.0462475  59.9732447  22.9438949 107.1302700  59.2027235  23.6665201
   8.2667017  27.7012014  90.4172134   7.5129884  27.5568795  89.8450947
   8.2594860  28.6426592  90.5899525 109.2328548  49.8285627  31.1176109
 109.9730015  49.8823261  30.5130291 108.4868717  50.1516914  30.6123042
 109.8811054 111.6013336  85.3883266 109.6837902 110.7921982  85.8601284
 110.7831669 111.8075180  85.6332588  18.4564805  11.6537464  20.5534697
  18.5788345  12.5978351  20.4536772  19.3068480  11.3323832  20.8531928
  99.9063396  45.5761385   5.8755910  99.6266079  45.0672054   6.6364914
 100.8584118  45.4785633   5.8590376  96.6089725  12.7549648  29.1451883
  96.6572189  13.5326481  28.5892105  97.2758770  12.1662033  28.7918830
  65.0429964  22.3421621  78.1074715  64.5144081  22.8291249  77.4752617
  65.4716969  21.6621208  77.5878620  71.5682554  71.5530443  10.6264877
  71.9076204  71.8182850   9.7716725  70.9296894  72.2297907  10.8511603
 110.0380135  55.7635498  32.3817444 110.3550243  54.9831867  31.9270229
 110.0955200  56.4611483  31.7288399  14.6395504  58.5728693  33.9118695
  14.9288285  57.9397249  33.2548451  15.3491187  58.5927963  34.5540118
  55.2697611 107.1379471  51.4299583  55.4035997 108.0837822  51.4908361
  55.2658129 106.9566059  50.4901028  22.4697995  50.9165239  25.4888463
  22.3503709  50.0759220  25.0468564  23.4152937  51.0646248  25.4703999
  93.2478714   4.1534710  58.1478882  93.6833000   4.6201441  58.8612223
  93.4998608   3.2383296  58.2713747 101.7838764  26.2716413   4.1859633
 101.8262768  25.3163505   4.2289934 102.5840759  26.5264606   3.7266481
 111.4187813  48.3023643  18.7599432 112.0597649  48.1459188  19.4534075
 111.7060566  47.7436638  18.0377567  26.9336343  10.4969203  95.1013565
  27.4343514   9.7953659  94.6850204  26.3851547  10.8484364  94.4000435
   8.9419544  52.1414375  26.9726729   8.6562777  51.2723446  26.6910696
   9.8604906  52.1891785  26.7076373  67.1945429   1.1899550  96.1671829
  66.4371490   0.6548852  95.9299374  66.8281221   2.0543149  96.3538742
  26.8744779  50.4066801  19.0185297  27.5500846  50.2526760  19.6788859
  27.0834446  49.7928572  18.3144081   7.0470679  94.8756599  62.5347233
   7.6053697  94.1165066  62.3667431   6.3833439  94.8419666  61.8458366
  71.1935854 110.0039291  78.5204172  71.1703873 109.0539646  78.6356163
  70.5279732 110.1809025  77.8556824  31.8361807 109.7307491  85.0255871
  31.1463046 110.3896713  84.9473000  31.5184736 108.9890099  84.5106983
 106.5705585  58.6588860  15.1781046 106.6438103  57.9849768  14.5023012
 105.7992458  58.4063482  15.6855786 115.8323383  68.5441971  25.3460002
 115.9474659  69.4716883  25.1392794 116.4838600  68.3673859  26.0245943
   4.5669931  33.3028197  58.8338327   4.5193440  32.3667336  58.6396551
   3.6764866  33.6229444  58.6897850   3.3949417  43.2707596  42.4476004
   4.3094307  43.4590483  42.2366762   3.4195352  42.4163628  42.8784561
  98.4643078  20.6772494  46.3964891  98.2040215  21.3151288  45.7319689
  98.5881710  21.1962557  47.1911716  60.8282232 110.6882858  94.4581795
  59.9308681 111.0132504  94.5315647  60.8026648 110.0787830  93.7205505
  -0.1419959  65.0245190   9.2500824  -0.1732108  64.0828562   9.0811825
   0.4233421  65.3728914   8.5606921 114.6287060  21.6440940  21.8887329
 114.9403763  20.9493971  22.4688077 114.3436718  22.3403645  22.4805045
  49.3814135  14.7442389  91.0330868  48.9723015  13.8910401  90.8884811
  48.7741232  15.2061975  91.6110325  93.0328083  68.0753803  37.8214216
  93.6279392  68.8034868  37.6428056  93.6088276  67.3232269  37.9581618
  98.4928894  33.3635139  27.5464582  99.3803310  33.5633826  27.8443217
  98.3000660  32.5063753  27.9264140 113.6708260  58.7579966  52.5611067
 113.0407429  58.0726147  52.7835512 113.6922359  59.3233967  53.3331776
  16.7141902  53.8012218   7.4725276  17.1365762  53.8568449   8.3296907
  17.4261022  53.9304781   6.8458647  13.2558835  73.4409714  53.7169266
  13.0252254  72.6132584  53.2951260  13.7860906  73.9016056  53.0665970
   9.4566327  48.8750315  39.1024089   9.1589469  49.3430519  38.3222985
   9.3767440  49.5143366  39.8103213 106.3457108  92.7491951  38.1540656
 106.1022186  92.3313522  37.3280215 106.2737370  92.0516968  38.8056421
   5.9774894  54.6263838  17.2152364   6.4770287  53.8521671  16.9558418
   5.1035905  54.4799519  16.8531728 113.0167961  75.5869627  18.1483579
 112.8133392  76.3934422  17.6746190 112.8899288  75.8120775  19.0700173
  65.1136589  13.8647151  67.0894814  64.8804426  14.5943332  66.5154600
  64.7135592  13.0987489  66.6778374 116.8693161  79.5711565  77.1873188
 117.3637581  79.4982004  78.0036736 115.9676647  79.7297955  77.4667692
 108.2335854  52.4023294  70.5871296 108.1803513  52.7978992  71.4571428
 108.5636520  51.5179777  70.7458973  -0.2614702  92.3037338  27.8877187
   0.1615702  93.1622601  27.8734112   0.4198252  91.6961861  27.5996995
  81.8666172   8.1186271   5.8615398  82.2520542   8.8073003   6.4031988
  82.4419785   7.3641884   5.9880573  20.0960565  87.0817375  10.2275813
  20.2299452  87.7134323  10.9341669  19.3048227  87.3847198   9.7821784
 114.1618824  41.0017300  96.2389755 113.5376835  40.4835463  96.7469978
 114.3514442  40.4628372  95.4709339 105.3260517  15.2771175   6.8323731
 105.8181572  15.9733343   6.3972366 105.7519817  15.1789987   7.6839525
  79.9692774  16.7102063  15.3958416  79.7304630  17.1734095  16.1987388
  80.1600742  15.8170378  15.6823337  89.4508934  29.9225283   9.1872370
  88.9449978  29.8854709   9.9989831  90.3458118  29.7109032   9.4528753
  52.3729181  16.6367495  23.4453106  51.6902208  15.9718466  23.5350752
  52.9337978  16.5089500  24.2103696  39.0110135  79.2572355  89.7924042
  39.1480088  79.4130278  90.7268524  39.8688936  78.9848518  89.4666958
  32.6801538  97.2047901   8.9771283  33.3160686  97.9165840   8.9050597
  33.2134056  96.4116383   9.0299100  50.9853792  89.1250610  44.0916300
  51.6913414  89.6558189  44.4606018  51.3608646  88.2480621  44.0134192
  83.7711620  15.7380271  30.7660699  83.5578537  16.2124717  29.9625564
  82.9232311  15.4596102  31.1120939 113.5001659  66.7207766  88.6269760
 114.4478512  66.8430042  88.6834431 113.1980133  66.7688417  89.5339584
  80.5038643  23.1997609  13.8285685  80.7589817  22.6978922  13.0544376
  80.2778721  24.0656543  13.4888852  13.5778499  31.4618731  65.2622175
  14.2978418  31.8246841  65.7781744  13.6142004  30.5200863  65.4294014
  85.1790894  14.5095351   0.7255525  85.9084166  13.9514735   0.9955091
  84.5741374  14.4884494   1.4670438  72.8829145   6.1223680  16.7481232
  73.4456253   5.3767365  16.9569826  73.4817696   6.8673074  16.6964495
   3.2005310  81.9300461  85.6973457   3.5658461  81.7741203  86.5682411
   2.8535202  81.0797787  85.4274178  89.7286701  25.0390029  22.2877789
  89.1608906  25.7633996  22.5506735  89.9830437  25.2480817  21.3889980
 112.6120567  67.3116159  94.4348431 113.1549931  67.8632021  94.9980545
 113.1035519  66.4941740  94.3545532  89.9985600  31.2027001  41.8683434
  89.3609428  31.1523247  42.5804853  90.7557583  30.7132459  42.1897554
  43.8943672  92.4973011  33.1676221  42.9714537  92.4795914  33.4209108
  44.0262032  91.6808033  32.6857734  76.7352343  33.8836503  34.9925566
  77.4553919  34.2926407  35.4724884  77.1376801  33.1390619  34.5455050
 112.1570969  73.0161572  86.1994839 112.3032856  73.7917519  86.7410660
 112.3774624  73.2987976  85.3119087  11.0529101  91.5091228   5.7892162
  11.5626907  90.7979012   5.4012424  10.2381492  91.5214539   5.2869761
  60.3937101  20.4258704  35.4084492  60.1632595  19.6149039  34.9551749
  60.2629185  21.1117148  34.7536659   2.6227874  52.5641870  55.7701397
   3.5520962  52.5710201  55.9994173   2.6055339  52.3089170  54.8477650
  75.0226355  19.9222314   1.8007407  74.5129824  19.3659508   1.2116404
  74.4314623  20.1017308   2.5318557  20.3524208  82.0898533   2.7433261
  20.8665943  82.8158188   2.3900139  19.4579339  82.4280262   2.7853322
   8.5731244  78.5241270  77.3151207   8.7551314  78.4348679  76.3796329
   9.4109434  78.7836790  77.6984310  99.5678234  54.4357634  33.5466743
 100.3277874  54.0849781  34.0110397  99.5689487  55.3696632  33.7565947
  41.3791323 102.7243996  24.4348407  42.3055267 102.6109314  24.2223692
  41.3245153 102.5423050  25.3729725  72.7835464  10.7212222  20.0300407
  72.5557137   9.7977048  20.1369977  71.9473076  11.1566079  19.8645842
   1.3603456  42.1622372  86.9418049   0.4192668  42.2086906  87.1104622
   1.4270502  41.8345594  86.0449219  85.6683636  33.1666112  36.3759613
  85.8003712  33.7121177  35.6005716  86.5145683  32.7420115  36.5169811
  78.8376904   4.2171448   4.7429013  78.8686371   5.0750530   4.3195009
  79.7268200   4.0789631   5.0693774  49.5318460  29.2804098   4.7237706
  49.7113228  29.4425631   3.7976351  48.9172983  28.5465431   4.7237343
   4.8698515  71.7706823  48.8124371   5.0965506  71.5933323  49.7253370
   5.2135384  72.6485062  48.6464930  18.7032962  59.9646235  71.1035585
  19.4479978  60.5037546  70.8371162  18.5207772  59.4148922  70.3415108
   2.0685849  88.1518459  92.3011017   1.1713520  88.1873703  91.9695187
   2.2832330  89.0611744  92.5091267  97.3589420   2.5921458  28.1734943
  97.1916771   2.1992651  29.0301728  96.5406418   3.0352581  27.9493141
  70.2418804  43.4358406   2.1708599  70.2100229  42.9828453   1.3282394
  70.0748014  42.7503967   2.8177589   5.5641794  47.6000071  70.9122896
   5.2663207  48.2563353  71.5421677   5.2693403  46.7659807  71.2779379
  29.1218138  44.7995615  92.3536491  28.7396169  45.4705286  91.7879963
  28.6404514  44.8780394  93.1772804  45.4020739  92.7134705  90.4798794
  44.4761705  92.4910927  90.5772305  45.5899906  93.2871723  91.2227058
  67.1269083  19.5381200  58.2245970  67.9826641  19.9629974  58.2828331
  66.9377899  19.2567408  59.1197491  15.4897082  76.3901186  88.3455563
  15.3444004  76.2846565  87.4053478  14.6108258  76.3944960  88.7247276
  27.9817820  73.4197235   6.8801826  28.4429765  72.6301432   7.1631873
  28.1074142  73.4434557   5.9315598  13.8945758  62.8306007  92.0897293
  14.2932343  62.4084616  92.8507233  14.1691649  62.2933865  91.3466072
  60.0101042  19.8115194  50.7537317  60.0219917  19.6752810  49.8063517
  59.0928221  19.9933970  50.9580612  94.4219017  48.5473824  12.4109995
  93.7232590  48.5033989  11.7581606  94.4195271  49.4588566  12.7033031
  77.6244402   6.7766052  -0.1326842  76.6819859   6.9439524  -0.1289049
  77.8312635   6.5509319   0.7742484  93.0059052  52.1997976  89.8976898
  92.3418427  52.4828005  90.5263138  93.0094719  52.8842974  89.2286015
 115.2143955  53.1831789  88.4880829 114.8220158  52.4217129  88.0609512
 115.1285172  53.0033398  89.4243050  99.2497444  26.6992784   0.2065724
  99.6451664  27.1027231   0.9792963  99.2499638  25.7616806   0.3992951
  90.2394867  65.3690052  88.0799484  89.6305180  64.6987247  88.3899689
  90.9631538  65.3430986  88.7059307 116.3675594  65.4263878  95.0697327
 117.3141098  65.5687475  95.0699520 116.1329556  65.3743887  95.9962845
  92.0724869  23.1454277  18.8034701  91.6963100  22.7523756  19.5910180
  93.0005169  22.9137874  18.8400340  59.3577051  74.7312164  56.4205265
  59.2319489  75.2891970  55.6530142  60.1035881  75.1185656  56.8786192
  21.8003631 106.5646839  11.6901100  22.7215743 106.7931461  11.5659976
  21.4241886 107.3218346  12.1389437  56.9924688   9.5468044  15.1144457
  57.1044731  10.3475368  14.6020842  56.2043619   9.1402012  14.7541714
  91.4588356  75.9121275  81.8448639  92.3665237  75.7168055  81.6121101
  91.2549973  75.2980471  82.5502586  43.7531471 103.7537766  15.4531550
  43.6915064 104.3686390  16.1841702  43.1023169 103.0803680  15.6510603
   5.9543043  44.4866753  94.7246742   5.0280392  44.4598007  94.4847870
   6.0255897  45.2314615  95.3217030  20.9396791  63.2151222  90.0994396
  20.9837437  62.2596598  90.0622177  20.3071451  63.3988380  90.7939720
  32.9992414 109.6866131  16.1523080  32.0988560 109.9164104  15.9226799
  33.1728673 110.1739788  16.9576395  31.4442158 100.9165478   4.3556163
  31.7454767 100.0230312   4.1910005  31.0992002 100.8923721   5.2481472
  37.9369116 109.7111130  22.9740572  38.1205940 109.2792702  22.1397901
  36.9815254 109.7497654  23.0185080  94.3649960   0.3174482   8.6496001
  95.2274418   0.6561825   8.4094536  93.7808037   1.0715038   8.5698688
  29.8861456  98.7696552  14.1848409  30.1149106  99.2303658  13.3775926
  29.3341374  99.3870640  14.6647692 105.7363892 104.2128849  74.2695332
 106.0133171 103.3395386  74.5466661 106.3354778 104.8082733  74.7199154
   1.0136875  38.2924080  73.9593983   1.6682383  38.5981774  74.5873356
   1.4815274  38.2542801  73.1251907   5.1240295  91.3310814  61.9728136
   5.1096904  92.1507072  61.4786100   5.4646450  90.6845570  61.3545752
  88.2949162  40.2166605   3.1474251  88.4913540  40.7073355   2.3493776
  88.7341022  40.7055235   3.8433844  99.4812393   7.4311596  16.9286597
  99.8304939   7.2485673  16.0563576  98.8493538   8.1368107  16.7907763
   8.2494944  85.6579113  74.5804071   8.2874203  84.7016621  74.5998240
   7.3557574  85.8565426  74.3010998   5.4027021   2.6081443  11.5111816
   4.7590378   3.2420737  11.8275070   6.0902005   2.6122203  12.1771860
  25.1022029 106.1296940  13.8124108  24.3019819 105.6122971  13.7219846
  25.8042765 105.5317974  13.5557973  27.6284933  39.7786093  92.8671932
  27.2970366  40.3432894  92.1689796  28.5674453  39.7099781  92.6943016
   4.2824447  47.4755335  84.4484997   4.2393041  48.4315157  84.4700527
   3.5200408  47.2129393  83.9327335  92.6200104  88.0052757  65.1785421
  92.5022030  87.1467876  64.7719145  93.0332470  87.8165531  66.0210705
  69.2403412  87.2711658   5.2695906  68.5333109  86.9399548   5.8233321
  68.9310455  88.1269264   4.9725157  53.7449980 109.5574093  24.0240908
  53.3237648 110.1069355  23.3631754  53.0184317 109.1755486  24.5165515
  77.7476931  15.8451092  26.4033532  77.1665478  16.0566866  27.1339250
  77.2684479  16.1308074  25.6255794 106.7645931  13.4964538  27.0119452
 106.5664196  12.6563096  27.4256063 106.4133167  13.4155965  26.1252117
  74.0397692  38.1548119  16.9811547  74.9589205  37.8889441  17.0076728
  73.8197613  38.1636071  16.0496235  78.1440639  20.4971695  77.6257086
  77.5335979  19.8026443  77.8730869  78.5606527  20.7540917  78.4483099
   6.8928409  98.2681179  10.2179408   6.5843850  97.4522686   9.8236167
   7.7763480  98.0662060  10.5259669  54.6262026  24.2697692  28.0530143
  55.1795578  23.7213397  27.4969101  55.1990461  24.5368958  28.7718511
 110.7203674  19.9088264  17.3407102 111.2899971  20.6584764  17.1681452
 109.9719715  20.2793622  17.8085124  67.2132826 102.5675583  18.4535158
  67.1572161 103.2377815  17.7724171  68.0618763 102.1491146  18.3085108
   4.2354435  83.6948204  73.9723587   3.9284179  82.8653526  73.6063623
   4.9196398  83.4440899  74.5930386 107.7001846  68.0416009  95.8047625
 107.0064724  68.6219618  96.1180991 107.7514017  67.3510119  96.4655910
  28.3750439  99.3619156   1.4702928  27.9818606  99.2288494   2.3328084
  28.9437604  98.6019993   1.3465069  81.6410542  11.4121032  12.4467766
  82.4221992  11.2943673  11.9062364  81.4393616  10.5342293  12.7706409
 104.3324471  43.6219072  28.4572339 104.3958378  43.5855198  29.4116378
 103.4925842  44.0492153  28.2891011  27.7516127  95.7707405  84.2960644
  27.3631525  96.5071392  83.8237953  27.9980206  96.1347198  85.1463795
  20.5526853  53.0052996  92.2027111  21.3120699  52.8219461  92.7558327
  19.8106027  52.6434755  92.6870918  86.2423611  24.0789747  15.1606512
  86.6087341  23.2029939  15.0395489  85.9687138  24.0994668  16.0776722
  20.4408503  50.9077930  87.8216267  19.9819088  51.5577888  87.2895432
  21.0568428  51.4193535  88.3461189  21.0896826 108.3123589  22.6388049
  21.8056560 108.2667923  22.0051336  20.3041053 108.4294033  22.1045780
  80.2924633   4.8930565  11.5659106  79.5067263   4.6110457  11.0975885
  80.3175068   4.3397716  12.3466027  93.5147572  78.8858604  60.6291342
  94.4153118  79.1466713  60.8220434  93.0407906  79.0387869  61.4465666
  83.7453175  23.2989264  37.1077037  82.9537868  23.2184482  37.6399016
  83.6655235  24.1553760  36.6877556  48.9244795  94.2365646   7.0337969
  49.0378809  94.3943596   6.0965276  49.3074799  95.0064278   7.4543476
  24.4913673  89.0927982  93.6557102  25.2220964  88.6025524  94.0324497
  24.6488547  89.9989510  93.9208698 117.1332264  35.5706978  33.5995960
 117.4971104  35.7317924  32.7290392 116.2032127  35.4062891  33.4437823
  77.6121807  -0.2591133  34.1070557  78.4023809  -0.0053556  33.6301661
  77.5978613   0.3175543  34.8709154   8.0643767 104.5176601  70.0449133
   8.8400465 104.5837307  69.4879532   8.2385588 105.1174355  70.7702780
 101.1410713  17.8940725   5.5912584 101.0072803  18.5593629   6.2663287
 100.2574062  17.6146924   5.3518474   5.0167280  92.0011520  70.8327055
   4.9118614  91.3601398  71.5357971   4.9976093  91.4808941  70.0294590
  59.8359728   1.6351859  17.4343681  59.1566229   0.9885585  17.2430933
  60.5545616   1.1244804  17.8072560  98.9540672  85.4344368  80.9220695
  99.6339703  86.0826397  81.1058998  98.2076740  85.9501839  80.6169033
  25.4052377  95.5992889  68.7547493  25.9003973  96.4170074  68.8036251
  25.5920386  95.1563358  69.5824766  81.1555386  14.3832231  16.0351801
  81.7761993  13.8547730  15.5334234  81.0311985  13.8970697  16.8503022
  98.7061405 103.1209755  74.0610361  98.7970448 102.2211266  74.3744612
  99.4342995 103.2367039  73.4506083  90.8839226   2.2458528  25.2413702
  91.3269234   2.4533331  24.4186068  90.5415535   1.3613001  25.1126146
  53.4437656  97.0752811   3.3747619  54.3480635  97.2567272   3.1187212
  53.5185289  96.6307449   4.2191771  98.8976955  12.6537788   0.2370990
  99.3637753  13.3716667   0.6656317  98.5375690  13.0437183  -0.5594470
  61.7718840  40.0962353  14.7856760  62.5437117  40.6623459  14.7914922
  62.0382071  39.3230486  15.2831578  79.3921423  14.6598470   9.9212700
  79.7414160  13.7708950   9.8580039  80.1552010  15.2036345  10.1169026
  83.9201546  46.8031502   1.2268738  84.7054768  46.3509989   1.5352173
  83.3002472  46.7282438   1.9523576  21.2950492  71.5476990  89.2895031
  21.1755657  72.1431208  90.0293827  20.5765915  71.7591953  88.6934185
 114.2817211  32.0652199  25.6916761 113.9400291  32.5504780  26.4426804
 113.8254261  31.2243271  25.7221437 117.7778721  22.6764035   0.7827000
 117.9876614  22.6842141  -0.1511949 117.8226280  21.7529249   1.0305198
  92.3361874  66.9336081   9.6408153  91.4236927  66.6916275   9.7990334
  92.8434563  66.2995195  10.1476097  29.1691971 108.1281757  92.0699024
  29.0796542 107.1772575  92.0069313  29.5574737 108.3880329  91.2344646
 109.0656471  72.6296616  83.6920071 108.7749290  72.5393391  84.5995045
 109.4475269  73.5063314  83.6489677  87.3197365  20.8709025   1.8744829
  88.2665443  20.9828854   1.7893927  86.9615555  21.7479229   1.7374612
  99.3481731  61.3617897  15.4126847  99.8736954  61.3567686  16.2127042
  99.3935013  60.4615116  15.0906932  82.7018452  13.2211518  56.1745071
  82.7801037  12.5086784  56.8089294  83.3440208  13.8699210  56.4625120
  41.2039948  79.5001698  17.9837191  41.9048262  78.9807987  18.3778238
  41.6441059  80.2815533  17.6490939 103.2684231  62.3231268  14.1142797
 102.9589748  62.4093103  15.0159705 103.8395977  63.0800533  13.9836979
  42.1058798 105.9984875   6.7217267  41.7418623 106.4097023   7.5057060
  43.0441523 106.1819839   6.7687076  90.4401112  43.9614105  16.8188524
  89.8372078  43.4599257  16.2699866  90.5449104  43.4293175  17.6076019
  65.7866430  23.5452390  47.8490353  65.8843136  22.7274585  48.3368158
  66.6750002  23.8968778  47.7906847   6.5862012  67.9244041  78.5431194
   7.1075070  67.1385098  78.3793020   5.8342648  67.8395367  77.9569244
 101.6939735  11.8131399   0.0827029 100.7653904  12.0437014   0.1109369
 102.0935059  12.3434734   0.7721601  20.4775929  87.5384808  72.8528452
  19.5988154  87.1795750  72.9760075  21.0550475  86.7759705  72.8895807
 106.9019222  86.4770889  91.1074638 107.8014183  86.2889862  91.3753319
 106.9783878  87.2336674  90.5261040  90.7709694  16.8834221   8.6347139
  91.5860081  16.3860655   8.5670400  90.7323360  17.3913419   7.8243083
 113.7812710  85.7288933  95.5305290 114.4578743  85.0843716  95.3230858
 112.9692078  85.3345490  95.2122974  92.2333336  18.1347167   6.4393353
  91.9400692  19.0446866   6.4860171  93.1744576  18.1773925   6.6087812
  96.1938477  81.4455223  94.4631290  95.8676052  80.5614281  94.2952538
  96.9209576  81.3207150  95.0730228   2.2351523  61.8179607  65.9743595
   2.6825368  62.3388863  66.6412258   2.7830175  61.9058228  65.1943874
  24.3031549  91.2096500  55.2433109  23.6306477  90.8843803  54.6448421
  23.8684702  91.9051266  55.7368565  93.8014507  46.1973906  23.1022358
  94.6133804  46.6280127  22.8347158  93.9281178  45.2787590  22.8649545
  64.7980261 110.6748581  46.5305042  65.5853510 110.1804543  46.3026524
  64.0796423 110.0569248  46.3951635  72.0803690  15.4764807  66.7850351
  72.4104786  15.6848550  67.6590157  71.2344313  15.9217000  66.7360878
  96.3078403   9.6273887  30.0452113  96.9676208   9.3788958  30.6926489
  95.9206581  10.4303670  30.3938532  77.1666574  62.1148157  42.7523565
  76.2852621  62.0766830  42.3809862  77.7486515  62.0377159  41.9963312
 109.8454380   3.8513345  21.3936377 109.5288467   4.7413561  21.2391663
 110.5051041   3.7105235  20.7144833  20.5777836  90.5048847  71.8135071
  20.6491804  89.6867180  72.3051882  19.7465611  90.4308033  71.3446665
   7.4269074  38.6632872  18.8386428   7.8684133  38.8399720  19.6693575
   7.6561570  37.7568460  18.6336124 105.3653336  65.2036572  90.1209831
 105.5480099  65.8348894  89.4249916 105.1848984  65.7422018  90.8914661
  97.6451015  13.4062958  57.8780937  97.6452541  12.9729915  58.7316036
  96.7727947  13.7938213  57.8063774  26.4052105  93.2974720  84.7500801
  26.9168448  94.0889359  84.9175739  25.4944587  93.5907555  84.7774982
   8.5400146  94.1982460  52.1424532   9.2633158  94.0877819  52.7595949
   8.6312574  93.4658623  51.5329313 101.1303425   3.9364821  43.0155420
 100.5980778   3.3703044  43.5744333 101.4186573   4.6420026  43.5946321
 109.9925613  38.4836698   5.0468600 109.8679543  37.7508664   5.6499374
 109.1356659  38.6058831   4.6381611  59.7700214  49.6496344  19.6360791
  59.8261642  48.8129950  19.1744304  58.8471031  49.7285843  19.8773706
  10.6236911  96.7564297  63.4708738  10.4163158  97.3032475  64.2286491
  11.1220050  97.3312378  62.8899145  70.5180073   1.3302696  81.7242527
  70.8440876   0.4371004  81.8344975  70.8847523   1.6176334  80.8880997
  98.8391495  21.8980312  18.0465186  98.6649704  21.4381266  17.2253108
  99.2977715  22.6954341  17.7818477 106.7583370  12.9253983   0.8598121
 106.9782066  13.7402046   1.3114536 105.9932327  13.1451321   0.3282434
   5.8908582 107.7010632  63.5641336   6.2348491 108.2584763  62.8661442
   5.5183601 108.3137131  64.1982746  24.5660782  61.5965319  91.7510128
  24.2264175  60.8314943  91.2867069  24.0366459  62.3263359  91.4295864
  16.9956088 105.0983047  40.7235193  16.8306875 105.0538445  41.6653585
  17.8213227 104.6294785  40.6025600  22.3349547   2.0569870  83.6530209
  22.6943183   1.1934565  83.8565063  23.0884290   2.5653020  83.3528137
 116.6298485  88.5608292  67.1245480 117.2646618  88.4057140  67.8239584
 117.0211124  88.1541157  66.3514233  94.2401314 111.0276604  95.6726646
  93.6369324 111.3117123  96.3594723  94.1338158 111.6765881  94.9770927
   4.7577831  21.6494203  26.6656232   5.6792325  21.7318463  26.4199233
   4.3013337  21.5017033  25.8373332  36.8773031  91.6738605   9.3389100
  37.4225187  90.9786320   8.9706159  36.0611415  91.2357712   9.5801407
  58.6384821  90.8479881  89.7198200  59.2536879  91.5200424  89.4264030
  59.1923714  90.1066971  89.9646282  52.3688793  75.9742165  10.4312336
  51.4287424  76.1144876  10.5439281  52.7742052  76.7574835  10.8032966
  37.5332332  22.6425266  64.1523933  37.5657701  23.2900620  63.4482145
  37.4251628  23.1609941  64.9497318 110.2416992  48.0350256  75.4411840
 111.1847687  47.8928614  75.3596258 109.8552513  47.4659204  74.7755957
  98.9628696  44.3161821  26.2906861  99.0417480  45.2140665  26.6128922
  99.4086838  44.3256235  25.4436970  16.2714851  37.6164937  84.9479961
  16.3991511  36.6730428  84.8488331  17.0707202  38.0050278  84.5923328
  54.8694277  31.4508319  51.4608526  54.6821022  30.8966470  50.7032108
  54.2418146  32.1703053  51.3923597   5.5720478  83.0957508  79.7108173
   6.3878959  82.8005695  79.3064737   5.5015236  84.0175152  79.4626045
 109.6878815  50.2885389   7.7316278 110.0173378  49.7784710   8.4715754
 108.7641525  50.0463295   7.6661229  28.1499815  97.2374439  71.4048433
  27.8132272  96.5531158  71.9832182  27.9617763  98.0548382  71.8660164
  -0.1550497  47.8775787   8.1292325   0.7340991  47.5537634   8.2734019
  -0.5115999  47.9983568   9.0092975  12.5815165  89.6826649  66.4348793
  12.6546574  89.4946671  67.3705816  12.2357535  90.5743885  66.3960600
  40.1220083  28.4103370  15.1523519  39.5019364  28.1156445  14.4853413
  40.3790379  29.2878938  14.8694086  32.9447079 102.1589756  90.8423233
  33.4116769 102.4723339  90.0677395  33.2171655 102.7520752  91.5424919
 104.5794964  25.1441956  29.6296453 104.4705105  25.8460951  28.9880133
 104.0990067  25.4472208  30.4000592  77.1606350  42.8435135   3.5681844
  76.8358326  42.2478437   4.2433953  76.7709541  42.5201321   2.7559018
 102.6828480  14.2693388   6.6539466 102.4264240  14.8482645   7.3718095
 103.6344147  14.3591249   6.6020668  14.1445446  53.4269857  89.1860390
  14.7218323  52.6782560  89.3356228  14.6147752  53.9692211  88.5527229
   0.4650197  97.3501873  63.1236410   0.6660664  96.6072941  62.5544977
  -0.1279229  96.9921780  63.7843084  48.6424875  97.1429443  73.9769030
  48.0048180  96.6367531  74.4802761  49.2490292  96.4880657  73.6312628
  11.2464440  29.0787435  25.4025173  10.9752905  29.9945903  25.4652286
  10.6421626  28.6100864  25.9782219  76.1532068  29.1215706  18.6388063
  76.5919256  29.9493575  18.4425259  76.7484951  28.6711907  19.2379868
  58.6530590  28.6712623  79.4499111  58.3441114  29.4381714  79.9322319
  59.6062279  28.7054729  79.5307350  27.0819044 101.9181728  17.1155083
  26.9739962 100.9831429  17.2896242  26.1909676 102.2410583  16.9805777
  17.4617136  57.7220345  91.7066288  16.9618475  58.5094118  91.4912128
  17.1765876  57.0736933  91.0627365  14.8730862  63.6426163  80.2480030
  14.5291626  62.9165459  80.7683563  14.7503340  64.4135237  80.8019543
  85.0475121  23.2633281  20.5590653  85.1373577  23.4621739  19.6270692
  84.8976135  22.3184109  20.5890012  65.7191849  48.2765961  15.9421992
  66.4676476  48.5864878  16.4520991  65.4977083  47.4307585  16.3317382
  52.6520729   2.4758036  17.2772419  52.8285646   2.7914864  16.3909996
  52.0974207   3.1519747  17.6663280 110.3180218  97.9805183  80.1621246
 110.0538349  97.8460884  81.0722637 110.0474072  97.1795082  79.7133636
  80.0557423  14.8977506  20.0953817  80.2297115  14.1305637  19.5500493
  80.8364010  15.4429770  19.9978042  62.9199696  15.4676270   2.4419515
  62.5676489  16.3550866   2.3747337  62.1593094  14.8984563   2.3250277
 105.0246811  31.9848013  24.2935538 105.8307838  32.3764825  23.9573669
 104.3420601  32.2925472  23.6972713  78.2994127  57.5843906   9.0235448
  78.3028650  56.7236614   9.4423145  77.9854727  58.1803608   9.7036141
  91.3905048  14.7689152  30.1698446  91.0993671  14.0639687  29.5914674
  90.6296253  14.9577689  30.7190537  15.7229662  47.7099800  76.4923477
  16.6031337  47.3643398  76.6409063  15.2825403  47.6146984  77.3368502
  25.7364917  86.9670200  73.0510950  26.5519595  86.4675331  73.0091810
  25.3019333  86.6500950  73.8428974  99.4033241  57.0363998  88.6521626
 100.2909374  56.8418932  88.9530849  99.1487789  56.2665319  88.1435013
  11.5240848 104.3267632  69.4293118  12.0051396 103.6005783  69.8261547
  11.8552935 105.1059246  69.8758888  69.1264391  28.7174797  20.3345060
  68.7668467  29.0171361  19.4995630  68.7871075  29.3392038  20.9783626
  18.1740022  83.7565136  79.5812654  18.3446264  84.5161629  80.1380920
  18.7431514  83.8833046  78.8221693  94.3735981  26.3536477  40.4374552
  93.4994984  26.5220952  40.7893181  94.9034309  27.0864630  40.7512903
  87.4492645  16.5783131   1.8786845  86.5744305  16.8534935   1.6045108
  87.3094940  15.7404673   2.3199435  57.5377941   0.8839702  91.2336922
  57.2197342   1.3582489  92.0018959  57.2301960  -0.0133486  91.3618946
  13.1245792 100.7514095  74.8880100  13.8778436 101.0663319  75.3876638
  12.4590147 100.5648232  75.5501604  15.2241898  92.6443005  74.3355227
  15.8750713  92.8418064  73.6620426  14.4363499  92.4088955  73.8454962
   0.5531922 102.8227043  94.1557980   0.7263727 102.0896149  94.7464085
   1.4187019 103.0923367  93.8485146 102.3540401  30.1926899  18.8132250
 102.6882172  29.8896480  19.6574557 101.9863415  29.4084930  18.4057188
  97.1446609  38.4458661   5.5891627  96.4948273  38.1882429   4.9352694
  97.7816296  37.7313709   5.5882537 103.9313507   1.3479617  77.5960255
 104.0808392   0.4047358  77.6608992 103.2784081   1.4398123  76.9021511
  96.0761166  29.8601341  30.5605555  95.6128883  30.4710388  31.1336613
  95.4034710  29.2410946  30.2767062 100.4665375  19.8385656   7.5749618
 101.1601067  20.4362082   7.8542614 100.0468636  19.5613813   8.3893824
 109.2722797  30.6635475   0.6029100 108.4265804  30.4894972   1.0161054
 109.0818119  31.3234305  -0.0638055 108.3137512  31.7164540  16.1748290
 108.4193325  31.8685770  17.1139467 109.1679382  31.9309878  15.7999194
 100.4463768  29.5730543  12.7450812 100.6356812  30.4553294  13.0644345
 100.2245903  29.0758228  13.5323572  27.5102973  91.2032413  83.2979393
  27.2701836  91.7567635  84.0410423  26.9112968  91.4669418  82.5994492
  13.4887862  76.2929296  80.1618958  14.1041446  76.1183834  80.8740044
  13.6947417  77.1843386  79.8804665  69.1794300  27.4155927   3.6794588
  69.0381670  27.2541595   4.6123120  69.8907995  28.0554628   3.6521524
  13.6645579  75.8786726  91.0456848  13.1604517  76.4430332  90.4595089
  13.6488211  75.0197935  90.6234169  61.1150932 110.7345676  53.6889172
  61.1217928 110.9564781  52.7578211  60.3632927 110.1508904  53.7906265
  66.4573193   7.9615146  15.6914067  65.5342865   7.8286743  15.4755485
  66.5592957   7.5695056  16.5586793 103.1042957  13.6201680   1.7617059
 103.1613159  14.5738614   1.8204495 103.6912823  13.3024216   2.4477921
  74.8920012  69.9086571   6.8053830  74.9813890  68.9931822   7.0702434
  74.1260004  69.9182463   6.2314612  24.5821500  58.5168552  85.6015873
  24.8597956  57.9065323  86.2847042  23.6900949  58.2450724  85.3857136
  70.5668497  15.2201712   1.2795171  69.8890400  14.7030139   1.7146650
  70.4193687  16.1148334   1.5862112   7.9221153  79.3381786  83.2918835
   8.2928377  78.5609770  83.7099171   8.6570513  79.9478054  83.2250977
  55.6345034  77.4456167  24.0895772  56.3781071  77.0901203  24.5763087
  54.8912668  76.9066381  24.3603754  91.5262413  46.7066956   8.1471270
  92.3577881  46.2856197   7.9292893  91.2817287  47.1797800   7.3517412
  27.0232201  47.5782537  85.9078789  27.4561000  46.9358730  85.3455734
  27.1604085  48.4155178  85.4647064  57.5930023  94.9337578  33.3109832
  57.8349257  94.8744488  32.3867583  56.6365480  94.8959923  33.3111072
 112.3246765  66.1810589  91.0114288 113.0613899  66.6371250  91.4182472
 111.7322350  65.9873772  91.7378902  96.1170233  76.5745827  95.7552485
  96.6221416  76.1741349  96.4628720  95.3255499  76.9027755  96.1819615
 117.1545792  74.8889923  87.7129650 117.4418163  74.6113682  86.8431091
 116.4308643  74.2997122  87.9256248  57.0801020   3.1507185  85.2709579
  57.9191637   3.4831727  84.9520779  57.0095873   3.4935969  86.1618519
  91.3421249  36.8903017  13.0357325  92.2914791  37.0125246  13.0314255
  91.0311031  37.4552584  13.7430680 100.5652332  13.4971309  33.0744457
  99.9759579  14.0061522  32.5177717 100.2790642  12.5908422  32.9605031
  82.4188805  34.4544530  16.4971030  81.5396309  34.8244238  16.5763021
  83.0051804  35.1964855  16.6449940  89.4360733   1.3939255  13.0117047
  90.2423763   1.5369156  12.5160599  89.6867275   0.7848862  13.7063086
  19.0384948  89.9849701  82.1167850  19.1320395  90.3157043  83.0101490
  18.1774843  89.5669365  82.1050835   5.6138933  80.4089642  69.2815018
   5.5389732  80.9488869  70.0683308   5.2237380  79.5704699  69.5283556
   5.4503310  19.2157924  27.9077649   5.1454359  20.1088524  27.7474070
   6.4035195  19.2921793  27.9505229  19.2031801  56.3666058  81.0744953
  20.0418806  56.8261719  81.1146450  18.7804341  56.7080879  80.2865124
 110.6122017  12.1379530  58.5310841 111.1644173  12.0297968  59.3054199
 109.8310757  11.6177487  58.7194061  13.3063281 107.3580933  15.2925885
  13.4727180 108.0627441  14.6664858  13.0153596 106.6225338  14.7535872
  93.2116413  53.1181002  80.9866333  92.4299622  53.6545229  81.1187553
  93.2186127  52.9321384  80.0476933  99.3303394   2.9135266   7.8299421
  99.9005985   3.5738105   7.4361622  98.7500763   3.4110761   8.4061068
  77.2862768  15.1405811  91.8252563  77.7723217  14.5327163  91.2680340
  77.5744867  16.0081792  91.5416336  30.2311873 100.5867863  80.4267597
  30.7107210  99.8260498  80.7547188  30.8554339 101.0359669  79.8568583
 110.6859303  90.7815075  89.9029350 111.5069199  90.5930424  89.4483185
 110.0718498  91.0078430  89.2044353  66.3050747 106.9847488  75.9551573
  67.0115519 106.3836193  76.1913061  65.7202387 106.4629459  75.4056787
   9.9293685  56.3284492  67.6007891   9.8750311  56.5311050  66.6668701
   9.8481631  57.1775007  68.0352402  11.0525930  17.1360219  15.6182623
  10.2595603  16.6111755  15.7272005  11.6828966  16.7462015  16.2240589
  47.6046419  95.1299763  67.8286552  48.4324312  95.1033020  68.3085394
  47.5377893  94.2677879  67.4182987  68.7094069  14.4629538  90.9335709
  68.8186502  13.9026093  90.1652527  68.1064129  15.1485586  90.6462097
  27.3921633  84.4641209  39.8683190  27.8345585  85.2391911  39.5222092
  28.0986881  83.8413143  40.0390959  94.9827766  27.6131272  15.7071173
  94.8046875  27.1166825  14.9083304  94.1491413  28.0331683  15.9189272
  99.1838932  14.9553275  12.4666631  99.7924709  15.5147946  11.9841075
  98.9825058  14.2421019  11.8608725  10.8571589   2.7486762  25.7628798
  11.6214025   2.1954101  25.9243131  10.7728040   3.2779413  26.5559721
  32.0535588  99.2159653  85.4966354  31.3993645  99.7909832  85.8936405
  32.8226399  99.7735310  85.3788948  35.4313684  81.8034077  82.0330620
  36.0252738  82.2350121  82.6472473  35.8867645  80.9989262  81.7847443
 104.5110107  47.4523452   0.7107324 105.3162099  47.2830013   0.2216405
 103.9993120  46.6490653   0.6151838  76.8468857  37.8896332  16.7658794
  77.0909500  37.4215055  15.9674299  77.2822714  38.7385511  16.6883779
  34.1683388  86.9005299  84.2555904  33.9428163  87.4797630  84.9835110
  33.3631158  86.8366241  83.7420177  46.2423468 101.6749954  77.3992109
  45.5706406 101.3117981  77.9763794  47.0700598 101.4535427  77.8259182
  87.6622963  51.5312672  13.6947393  87.1234989  52.1504784  14.1871965
  87.3519802  50.6696177  13.9731157  19.8379493 103.1634617  79.6196699
  19.4765472 102.6079082  78.9290333  20.0892401 102.5520515  80.3119564
  83.9046478  14.4031012  63.5208464  84.4843578  14.7520840  64.1978836
  83.0427742  14.7592568  63.7366152   2.5001127  17.4534106  21.6605783
   3.3924818  17.1131635  21.7249298   2.0470449  17.0821333  22.4176216
  74.9148989  27.9335165  30.4512811  74.4749022  28.7015128  30.8157206
  74.5515680  27.1949649  30.9399176 117.4847889  40.0907278  21.5481091
 116.7654610  40.5197859  21.0847449 117.1400452  39.9262857  22.4257994
  28.6283469  91.6768265  65.4449320  27.7409267  92.0341587  65.4127884
  28.7085366  91.3137341  66.3269520  66.8610239  88.2688046  80.6551743
  66.1807346  88.7242603  80.1591969  66.4010143  87.8989124  81.4087009
   1.0960010  74.7781563  92.9038906   0.8720165  75.2835846  93.6853027
   0.3018619  74.2828751  92.7032185  82.5288010  42.8283596  26.8725395
  82.7167892  43.1642151  25.9961271  81.8937302  43.4462357  27.2346902
  44.7732973   0.7335833  82.6989174  45.1672077   0.3062813  83.4595013
  45.3774977   0.5477203  81.9801521  98.9961910  54.5868540  26.2897515
  98.1868839  54.9805737  25.9638095  99.6010017  54.6348667  25.5493951
  80.8432579  23.0482173  23.7265539  80.5314064  23.8293290  23.2695580
  81.2846565  23.3866930  24.5055485 115.7660007 107.0676994  81.4860439
 116.3369656 106.7010975  80.8108902 116.2383080 106.9197559  82.3053646
  17.4919486  87.4874783  72.4367142  17.7368367  87.1012592  73.2776022
  16.5658402  87.2687149  72.3332977  50.9745884 101.2361526  80.0457573
  51.7033672 100.6377697  79.8812485  50.3397703 100.7118988  80.5340099
  67.6664782  68.4913206   7.3607922  67.7078009  69.1577959   6.6749865
  66.7367458  68.4308243   7.5802755  10.4319859 108.0126286  74.6869421
  10.3236985 107.2261047  75.2216339   9.8646140 108.6633015  75.1003981
  35.2024460  62.6090956  95.3962326  35.7717443  63.3664894  95.5321980
  34.9580503  62.6560307  94.4719505  73.4222460 108.6535358  15.5705774
  74.3028450 108.9677334  15.3655005  73.4127855 108.5728931  16.5243280
  92.4145317  28.3887720  15.9605932  92.1583652  29.1501999  15.4401755
  91.9495964  27.6556540  15.5573583 104.0496922  24.3303037   0.6337620
 103.9624882  24.6968865   1.5136731 103.2079697  24.5100403   0.2149114
 115.1403522  84.5941162  54.3765593 115.5544949  84.8320866  53.5470486
 114.2585182  84.3132973  54.1321182  39.0763879 109.6206856   1.1621065
  39.4347358 109.0652561   1.8544382  39.7070432 110.3358650   1.0782958
 107.0350170  80.4252815  33.3440375 106.3455963  79.9106789  33.7636971
 107.7734947  80.3764915  33.9510775   0.4903753  35.3489923  29.2893434
   1.4203382  35.4784012  29.4755006   0.2914902  34.4855809  29.6515512
  96.9048309  39.4877768  20.3354049  97.2530842  39.9935293  19.6011281
  97.3718739  38.6532640  20.2943516  64.2656088   4.4955179  74.5374966
  65.0194359   4.8124260  75.0350380  63.7390471   4.0180826  75.1786041
   6.4485723  51.4029360  21.3555932   6.3736641  52.3199034  21.6197753
   6.8251455  50.9639406  22.1182919  60.4174948  26.7340994  87.3990345
  59.9849129  26.2931728  88.1302547  60.0297642  27.6091242  87.3837662
 112.9628754  20.4417324  20.1311398 113.6957359  20.6969380  20.6915092
 112.1833611  20.6643891  20.6400776  62.3755074  28.7618351   9.4478267
  61.5448952  29.1998839   9.2622650  62.9820538  29.4742060   9.6499550
   6.5229326  59.5995903  75.7079983   6.9491231  60.4145288  75.9734631
   7.0829177  59.2514324  75.0141478  85.1906586  24.6388745  12.7896166
  85.5265141  24.3524122  13.6389518  84.2616940  24.4089365  12.8094792
  49.5088625  46.8404675  21.2960649  50.1243448  47.4798441  21.6546869
  49.2187119  46.3352299  22.0555258 111.6423321 102.8074169  67.0485210
 111.3883972 102.3214912  67.8331423 112.2074699 102.2042942  66.5657139
  27.3662567  89.0046692  92.0762253  27.4663258  89.5565510  91.3005638
  27.2666740  89.6237659  92.7994347 101.6939163 105.5734253  62.9478884
 101.1653423 105.2545547  62.2163439 102.2164726 104.8167324  63.2135534
 111.2523079  25.0976086   5.2446103 111.6948032  25.7133889   5.8287722
 110.8986473  25.6447244   4.5433107  13.1526625  49.8573923  89.3672943
  12.8074110  49.3178368  90.0785637  12.4765575  50.5183601  89.2181873
   2.9922780  35.7906127  29.9989653   3.2118618  36.6149330  30.4331446
   3.7192160  35.6366658  29.3955636  82.1168613  35.1904774  20.6141162
  82.3950291  35.9333324  20.0783730  81.3318729  35.5011463  21.0652304
  58.9750290   0.4317247  88.1433678  59.5437145   0.3922831  87.3744297
  58.0982256   0.2557245  87.8020954  10.3817987  78.7299013  92.4422359
  10.2745438  79.1487122  91.5882301  10.5039191  77.8022242  92.2404194
  11.0825634  90.0342560  70.7138968  11.2581182  90.6614494  71.4153481
  10.1532447  90.1501656  70.5159998 110.7441998  68.8657808  95.6971836
 111.2082291  68.1337023  95.2910233 109.9931240  68.4617519  96.1317921
  12.0633209  82.2918415   4.5682886  11.2079918  81.8930435   4.4082728
  12.2277629  82.8258801   3.7911141  92.7455425  38.9559150  21.8327165
  91.9067287  39.3847084  21.6631603  92.6578236  38.5991669  22.7166104
 112.7720070  67.5026798   2.1741246 112.5156116  67.9455996   2.9830217
 112.8187084  68.2022333   1.5224528   4.6473959  74.3001461  85.7257843
   3.8534853  74.7862005  85.9486961   4.7589868  73.6802101  86.4465237
 113.0561733  51.7813730   0.5259415 113.5554123  51.5265417   1.3018663
 112.7137280  50.9571457   0.1801092   4.1813076  83.1902695  90.8507442
   3.6837724  83.4291363  91.6328144   4.8679161  83.8545704  90.7915115
  92.5090599  93.3606720  89.5785522  91.8047619  93.8108635  90.0449371
  92.3091030  92.4304295  89.6829700  38.6698747  18.3339798  89.4000530
  38.0440378  17.8406930  89.9303627  38.2342386  18.4426200  88.5546780
  43.7439299  25.9647369  86.0130405  44.3080902  26.2201881  85.2831841
  42.9649019  25.5965877  85.5961418 115.0810432  11.5815783  10.7042098
 115.4369545  10.8357763  11.1872613 115.8485985  12.0095599  10.3248417
  79.0590715  39.4589496   7.1385443  78.2912731  39.4110322   6.5689659
  79.1824007  38.5623598   7.4502331  91.8404484  69.5624208  14.2740357
  91.7359734  69.9196815  15.1558971  92.4670029  68.8463402  14.3783939
  30.1384091 102.9738045  91.0232735  30.9157515 102.9472828  90.4653645
  29.4855380 102.4589443  90.5490303  10.9558094  97.1385479  73.5861969
  11.8909848  97.2909069  73.7220907  10.8454037  97.1593380  72.6356125
  82.9647446  33.9810729  10.2244675  83.2664394  34.4680166  10.9913421
  83.7449360  33.5259914   9.9075449  23.8419676  50.8677959   5.2090299
  24.4865870  51.1927271   5.8376122  24.2814136  50.9309196   4.3610129
  62.0932007  21.7769504  67.8827810  61.8830061  21.2090564  68.6240911
  61.6237736  21.3898277  67.1438551  19.2556846 100.2538395  61.4637566
  19.8206687  99.6807766  60.9454727  19.5907903 100.1763916  62.3570299
  97.9172707  54.0741920  22.3739648  97.7907085  54.3100882  23.2929683
  97.0578766  54.2037821  21.9728780 115.5989933  55.5826283  14.1960430
 115.6702232  56.4722919  13.8501287 115.2027702  55.0799322  13.4843266
  31.6436005  16.6052616  82.1464157  32.0738912  15.8132315  82.4685478
  32.2779894  16.9945920  81.5445805  20.0776482  92.0710945  92.4035645
  20.1296926  93.0251122  92.3455620  20.7686138  91.8306160  93.0207920
   7.3128933  38.7257791   2.2174223   7.9874372  38.2544947   2.7064145
   6.4871472  38.3631349   2.5381500  65.2256918 110.2775288  27.1176600
  66.0806561 110.4171562  27.5248146  64.6268415 110.8265686  27.6237893
   4.3480214  95.1274872  92.8791904   4.4718769  96.0529709  92.6685619
   4.4460371  94.6758747  92.0409393   2.5820294  23.2051325   6.8275195
   3.4593365  23.1164050   6.4551061   2.0020728  22.8256369   6.1673188
 113.3153248 106.5950966  83.2708549 113.7446880 105.7649422  83.4775734
 113.9991760 107.1220016  82.8573895  88.6547947  29.6541905  17.4788213
  88.5075569  29.6325707  18.4243810  88.9571667  28.7719536  17.2632742
  18.0972874  70.7272434  91.8119240  17.3738194  70.8745956  91.2027359
  17.9808104  71.3947248  92.4880409 107.6650429  59.4995070   4.1017684
 108.0491352  58.7063360   4.4753721 108.4162331  60.0577116   3.9009139
  10.5390990  77.3712063  84.4798279  10.3551078  76.5437555  84.0351868
  11.4725864  77.3291874  84.6873569  99.7201633  55.4371023  14.2993486
  99.8469257  55.2925444  13.3616567  98.8616562  55.0573254  14.4863319
  96.1431694  33.2267547   7.5527132  95.7588005  32.8469586   8.3428103
  96.8427658  32.6197791   7.3111159 107.5606632  86.0160255  23.8934445
 108.2404423  86.4931488  24.3693519 107.9061794  85.9294415  23.0049872
  99.6164608  62.4923849  44.7713518  99.9689674  63.3362722  45.0538874
  98.6826515  62.5423813  44.9756670   0.5062164  94.6208954  94.4587326
   0.1593684  95.0662994  93.6857224  -0.0123866  93.8191795  94.5260715
  20.1037431  43.5169268  37.1655059  19.7703123  42.6748991  36.8555832
  19.4558048  43.8099337  37.8062510   1.1051181  27.0873809  12.4025846
   0.5955122  26.9020891  11.6137886   0.4565229  27.3769069  13.0442488
 113.0833817  14.4475341  30.7697487 113.8264942  14.2121089  30.2142382
 112.3343849  14.4630086  30.1739430 100.6679440  26.5083265   6.7135686
 101.2448502  25.7552958   6.8414313 100.8969307  26.8408442   5.8456808
   1.2767738  29.3729544   3.7851444   0.7476601  30.1385188   3.5611340
   1.8490300  29.2475009   3.0281663  65.4118299  36.4610720  11.9882441
  66.2042618  35.9770703  12.2206795  65.5689859  36.7623019  11.0933733
 112.3975277  49.3975973   3.3613324 112.4209595  48.7084579   2.6974279
 113.2736397  49.7824669   3.3380657  10.6225240  82.2701168  67.9642344
  10.3256917  81.6062260  68.5866261  10.1442730  83.0614376  68.2118750
  49.2793226   8.1914872  95.3198338  50.0498152   8.2285637  94.7530842
  49.2009735   7.2675502  95.5573940  52.1968079  91.8520069  58.8920832
  51.9358015  91.2068081  58.2349491  51.5433407  91.7648697  59.5860720
   0.8736164  63.8674688   0.5395611   0.6149010  63.0510235   0.9670125
   1.7195499  64.0851593   0.9310183  53.7837172  13.4181464  84.6921062
  52.8512669  13.3865213  84.9060440  53.8557768  14.1125131  84.0372086
 115.0169754  32.8999472  16.0441804 115.5486870  33.5855675  16.4484537
 115.4691029  32.0853710  16.2638998  21.5096617 108.2454014  73.1132698
  21.3275242 107.4894142  73.6714220  21.1328268 108.9879608  73.5853148
  24.1893220 100.5385494  69.9780369  24.4402766  99.7624207  70.4789257
  23.2380247 100.4726410  69.8948240 110.8242702  44.5151758  18.1208062
 110.3785038  44.8143673  17.3283386 111.7528820  44.5175076  17.8886306
   6.4250499  46.8569183  86.2633038   5.6714171  47.0990372  85.7251167
   6.9802910  47.6366234  86.2625504  93.0618191  29.1560674  29.6651125
  92.5896835  28.3776546  29.9607420  93.3022308  28.9607978  28.7594080
 101.5122986  60.9464121  17.6972759 101.4756870  61.2052155  18.6180961
 102.0716858  61.6049814  17.2854447  30.6903243  98.2446575  95.3479195
  30.3781390  98.1160545  96.2436008  31.5856862  98.5672474  95.4503536
 113.4507179  20.8301592  11.0219252 114.0121841  21.5182400  10.6648088
 112.8135395  20.6572104  10.3288782 118.1467247  26.8290019   9.8750234
 117.3019218  26.8323827   9.4249862 118.6344910  26.1155963   9.4634753
  84.0933323  42.3913336   9.2667538  83.8711357  43.2703161   8.9597607
  85.0498772  42.3844528   9.3015110  87.6672935  10.3502464  25.1552176
  88.0213261  11.2260008  25.0004697  87.6600838   9.9386728  24.2910480
 111.1013126  14.1853082   9.9215078 110.4766655  13.5351539   9.6000296
 111.6374969  13.7092388  10.5556166 118.0521011  42.3875332  10.1358938
 118.1637096  42.2801638   9.1913056 118.1427479  41.5028238  10.4898775
  15.0081694  94.3111038  85.2334404  14.7606218  95.2305126  85.1352310
  15.0103283  93.9669228  84.3402576 114.7803593  21.2225771   6.4110023
 113.8536358  21.4549160   6.4695036 114.8984528  20.5404019   7.0720065
 115.1119900  51.0454178  47.7633858 115.0598907  51.9312763  48.1222343
 115.6360531  51.1396599  46.9679546  12.5040889  10.0864828  28.3579659
  12.5205529  10.4974270  29.2223072  13.4251165   9.9297494  28.1496954
   4.1944158  67.5240231  68.2993364   3.5300905  67.1621799  68.8858271
   3.8005492  68.3266783  67.9575062  20.4897451  73.7803650  90.9956169
  20.6646299  74.5452404  91.5439034  19.5845282  73.5432148  91.1970520
  86.1322498  39.1112089   5.1377994  86.4905548  39.9983025   5.1075208
  86.2379837  38.8411999   6.0500211  99.5442486  42.3494530  12.0338702
  99.7101116  41.9201851  11.1945558  99.6076488  43.2849026  11.8411148
  80.7113075  12.7899015  18.1867552  79.9557400  12.2157657  18.3121169
  81.4630890  12.2559309  18.4435236  30.8533239  90.6668091  96.2533760
  30.4402041  91.5231991  96.1431408  31.5513921  90.8178806  96.8906403
   8.4427899  66.6047335  13.4767258   8.4810507  67.1537256  14.2599082
   7.8711349  65.8771849  13.7219167  18.5740507  89.0963459  78.9466715
  18.6255395  90.0481510  78.8592386  17.8310180  88.9494324  79.5319510
  92.5888348  34.9109197  40.3339481  91.6446495  34.7578740  40.3700972
  92.8838539  34.4093275  39.5739460  99.5842075  93.6509991  70.0447416
  98.9868164  93.9466190  70.7317400  99.9773312  92.8523064  70.3965616
  87.1510410 102.6570415  51.2150431  88.1045055 102.5979137  51.1547184
  86.9865513 102.9769039  52.1020937   2.0122486  37.7349830   7.9341209
   1.2916176  37.1195221   7.7994764   2.7861148  37.2714090   7.6140231
  28.8605618  86.9969273  84.1254807  29.0759349  86.1703205  83.6935520
  27.9531813  87.1692276  83.8740730  86.9725895  24.1604495   4.2312455
  87.7136517  23.7252212   3.8097671  87.3174286  25.0109458   4.5032379
 110.7387257  27.4920106  45.5651808 111.4145088  27.1297669  46.1381721
 110.0368977  27.7564240  46.1599588  47.4287939  88.6537552  90.1173592
  48.1835556  88.1978416  89.7449207  47.6400471  89.5826721  90.0239277
 115.2057934  69.1804123  11.0565138 114.3797398  68.6970043  11.0701454
 115.7520580  68.7035847  10.4316437  83.8144493  15.6146014   8.8900977
  84.1790199  15.1991725   8.1086016  84.0853882  16.5302110   8.8231331
  99.2178249  68.7781954  26.9417620  98.3528423  68.5006142  26.6401100
  99.1921520  68.6531782  27.8904176  10.6343579  41.1514378   2.9750186
   9.8359597  40.6958389   2.7081421  10.6535983  41.0627508   3.9279073
  83.3924198  25.6672287  58.1629372  82.8935242  26.2944007  57.6394892
  83.9896488  26.2080598  58.6796999  23.0397749  94.8184586  46.4507914
  22.8488898  95.2333641  45.6095743  22.4028182  94.1070271  46.5169716
  10.5372441  85.5476665  70.5028152   9.9425852  84.9438572  70.0578070
  10.6703794  86.2584400  69.8756695  90.5572128  12.9437768   8.0397022
  89.7895813  13.2777095   7.5755119  90.5263233  13.3740330   8.8941950
   4.9984205  32.1565866  34.5169282   5.1075804  32.0726013  33.5696888
   4.2636240  32.7611876  34.6206737  32.5549054  20.0947165  70.6387949
  32.4232244  20.6525278  69.8721552  31.8524718  20.3435516  71.2395477
  48.0484152  29.8823237  73.5361814  47.7108908  29.6013570  74.3866920
  47.7760553  30.7968426  73.4606504  87.9883289  14.1075003  88.3742046
  88.5860443  14.2232311  89.1128349  87.9131794  14.9800611  87.9879189
  37.8207469 106.0037708  95.8045101  37.5475264 105.8250904  96.7043209
  37.4122953 106.8430424  95.5923557  22.1895838  72.8657866   0.5891990
  21.8765426  73.0654955  -0.2930447  22.1841311  71.9096756   0.6345647
  12.5979555  39.2085481   6.5377408  12.6353407  40.1141644   6.8454617
  12.1622431  38.7330437   7.2450471 107.1199703  49.0137100   8.1840312
 106.9364929  48.1903172   7.7317160 107.2313976  48.7634850   9.1012019
  83.4118271 101.1281872  96.0078526  83.1962967 100.5562115  95.2712250
  84.3682861 101.1209679  96.0448360  56.1553192 103.1871414  88.0698586
  57.0271492 102.7938843  88.1084633  55.7742786 103.0097961  88.9298534
  23.1316018  88.7500572  68.0020809  22.7188039  88.2286453  68.6905289
  23.3254838  89.5888042  68.4205723  65.7805395  24.5414615  52.6827526
  66.4295530  24.4524980  51.9848251  66.2835789  24.8379016  53.4412384
  92.8162956  60.3485250  11.6039205  93.6560249  60.6378031  11.2469661
  93.0310535  59.5739460  12.1236682  20.4426551  25.1545882  31.0797596
  21.0730076  24.8575091  30.4235363  19.6012402  24.8154449  30.7744145
  15.8889544  94.1008759  11.4595997  15.4073250  93.4966564  12.0245659
  16.8097961  93.9353943  11.6618407   9.1153914   7.2327375  24.2130136
   9.4614333   8.1130964  24.3594885   9.6799785   6.6634107  24.7358322
  75.5838633  12.6950181  88.3835983  75.2720261  13.0962145  89.1947937
  75.8464003  11.8107378  88.6392498  93.4970284  74.5114374  21.0261416
  93.8671112  74.7622013  20.1797485  94.0179634  73.7570143  21.3012767
  57.0683146  43.9038944  79.7731638  57.9383039  43.7632322  80.1467514
  56.6310024  44.4841003  80.3963470  19.4180381  70.1002836  11.4838946
  19.5238197  70.9908104  11.1492324  18.8927472  69.6553087  10.8188391
  45.4478359  88.0066204  92.0374775  45.7393026  88.0439091  92.9484653
  46.1989784  88.3184624  91.5327263  18.8676775  68.8023615  83.2612133
  17.9607403  68.9269257  82.9816055  19.2345417  68.1936693  82.6200104
 100.8305168  63.8027716  10.2883565 100.2520657  63.0663681  10.0900245
 100.9323883  63.7778234  11.2397933 104.3172646  12.7707028  12.0997417
 103.4413719  12.9229677  12.4545074 104.1790962  12.1630538  11.3731730
  49.9693346   8.0437171  70.1228142  49.7572422   8.9392090  70.3861427
  50.0038099   8.0769885  69.1668129  24.7583151  31.2153125  14.0230119
  24.4513083  32.1217704  14.0406096  23.9955711  30.7095027  13.7426412
  21.4512897  97.8244877  84.3721390  20.8594060  97.2143459  84.8121738
  22.0379758  98.1300735  85.0639820  22.1465755  95.4704380  75.0695324
  21.9992685  94.8723602  74.3368483  22.0186377  96.3425350  74.6962786
   7.0056289  91.6372967  94.2384624   6.3008201  92.2508526  94.4459057
   6.6295534  90.7738304  94.4093990 107.7150345 101.1915970   0.7574789
 107.4240685 100.3288841   1.0529348 108.5580540 101.3217449   1.1917792
  81.0863876  19.0508568  90.3038597  81.5523243  18.4025097  89.7758675
  80.6788254  18.5412574  91.0041714   1.9261131  18.3091068  89.1166019
   1.3346657  18.9355969  88.6995506   2.8010198  18.5922551  88.8508987
  64.1944456 100.7585907  91.2847424  63.9296389 100.1128197  91.9397831
  64.5409727 101.4899635  91.7958736  58.3741665 103.1134892  91.0505962
  58.8741398 102.3649406  90.7251167  58.6548471 103.8458347  90.5018616
  98.7386131  29.3674040   4.3234128  99.3159580  30.1308036   4.3124592
  97.8674412  29.7283006   4.4878873  94.4605732  47.0240688   4.0999141
  94.4232655  46.2847137   4.7067010  94.4721508  47.7969360   4.6645185
 100.6023312  67.3850965  -0.1501353 100.5113220  66.8593788   0.6445783
 100.4541683  68.2852030   0.1398515  76.0674000   2.9395574  90.2827358
  76.6210222   3.2523170  90.9982204  76.6769266   2.5259271  89.6714878
  87.5471306  39.5619154   9.1103452  86.9075298  39.0363193   8.6298203
  88.3183098  39.5778489   8.5435539  42.4229383 105.2696705  41.4714527
  42.3208809 105.5468941  42.3819256  43.2771063 104.8383713  41.4467192
  23.1451058 101.4074898  95.9078121  22.4764109 100.8757496  96.3394642
  22.6495337 102.0283031  95.3737354 114.5205116  53.6416578  23.1019878
 114.0576553  54.4099665  22.7677679 113.8270283  53.0141306  23.3057594
  33.4741926  94.0184784  78.8222313  34.0189528  94.0957832  78.0389786
  32.5770855  94.1032028  78.4993505 116.3465500  61.7972946   8.3379763
 115.8841228  61.0363007   7.9868639 115.8430099  62.0470667   9.1127604
  72.1848547   2.7299924  95.8834031  71.4218962   2.1967787  96.1065903
  72.2241366   2.7035803  94.9273741  54.6256638  11.6989470  74.1998386
  55.3514719  12.0313489  73.6716890  54.4509125  10.8272326  73.8451433
 108.7073994  21.1634874  18.4117866 107.8371906  21.1700130  18.0131388
 108.5696697  20.7878876  19.2813778 116.3723755  88.4352589  88.3379936
 117.1800518  88.0573463  88.6859512 116.6662693  89.0569973  87.6721859
  30.2798700  90.4406452  90.4781151  29.3452930  90.6123447  90.3627014
  30.5038023  89.8441315  89.7637939  80.1150799  28.4421587   9.5813435
  79.6739721  28.7805605   8.8021535  79.6544170  28.8511300  10.3139806
  58.9643717 109.3324661  85.0875473  59.8044205 109.2041016  85.5280781
  59.1978216 109.6381855  84.2110443  41.1730957  56.4852190  93.7148190
  41.7161703  57.0834255  93.2015419  41.7662716  55.7759809  93.9625168
   7.0604336  30.8443713   1.7631958   6.6595858  30.6025481   0.9282857
   8.0002201  30.8598542   1.5821052   4.8788512  50.5595970  39.8741484
   3.9741141  50.6216955  40.1804590   5.4051769  50.5964470  40.6728077
 114.2703056  56.2865543  33.9388013 113.7930298  55.6398201  33.4190178
 115.1263237  55.8864450  34.0916920  10.6374288  88.8069153  93.0103588
  10.0854778  89.5847797  92.9296494  10.0326884  88.0722809  92.9063034
  62.7960587  21.5460801  89.1293526  63.4810305  21.1103058  88.6222553
  63.1346512  21.5627170  90.0245190  18.1454480  29.2278361  38.0175042
  17.9202533  30.0334287  37.5521660  18.8292468  29.4903517  38.6337328
   6.3781101  56.4948416  22.2504711   6.0934716  55.9167051  21.5426779
   5.7064581  56.3959503  22.9252577  10.6098962  64.7529888  12.9256570
   9.8493606  65.2650356  13.2006586  11.2258208  65.4023552  12.5862598
  86.3046265  60.1131773  -0.2109809  86.2462044  59.1662359  -0.0840174
  85.7175541  60.4801273   0.4500185 112.8306770  61.8947697  31.1986589
 112.4718666  61.7577362  30.3219032 112.3237896  61.3075018  31.7593837
  52.9549122  94.6218014  84.7727108  53.1509495  93.8090897  85.2388668
  52.3982668  94.3508816  84.0426540  78.9671230   3.1106234  95.3288078
  79.9010706   3.3118418  95.2697754  78.5480785   3.9588696  95.4741096
  27.6053905  65.3189802   8.4230804  27.8330231  65.8537722   7.6625466
  27.3399353  64.4770527   8.0530488 108.3766651  11.7705595  13.5537708
 108.5722160  11.6077185  14.4765258 107.7801037  11.0638368  13.3070207
  67.5569868  13.4633541  47.9118252  67.0579004  14.2164934  48.2279348
  66.9501829  12.7265859  47.9838896  50.9258032  25.5030489  60.6851006
  51.0955381  26.0916734  61.4205885  51.6478157  25.6643033  60.0777054
  60.9742165   8.9951760  73.7479544  61.3764429   8.1278908  73.7004042
  61.7005920   9.5853984  73.9485645  31.9679070 110.0512886  91.7801285
  31.5700746 110.1547813  92.6445675  31.2450790 110.1826382  91.1665344
  23.2979727  76.4264870  16.8637455  23.5866284  75.9648752  17.6510334
  24.0845561  76.8674564  16.5427017  81.3226414   6.4505631  93.2832813
  81.6904354   7.2534508  93.6525154  82.0014191   6.1262649  92.6914024
  14.6011221  78.8370085  76.7758799  15.5019641  78.6938858  77.0661068
  14.4451797  78.1478643  76.1301327  49.7715330   5.2178168  83.5760212
  49.8274946   5.0046355  84.5074940  49.4801998   6.1293852  83.5560226
 113.1839848  64.6187305   5.8286226 113.5980797  65.0575972   5.0855541
 112.4764633  65.2077484   6.0907459  15.2909946  66.5601730   4.4050825
  14.4225645  66.9393873   4.2699641  15.7475078  67.1969652   4.9549201
   4.2294860  45.1330423  13.7086034   3.3954474  44.8753834  13.3158934
   4.0751070  46.0177517  14.0397954  77.9477596  23.8027287  33.6145830
  77.6861954  24.1900373  32.7792335  77.4046230  24.2474699  34.2653036
 100.9498405  41.5997887   2.7911258 101.6303444  41.6569853   2.1203940
 100.1431274  41.4411402   2.3009443  37.6296258  90.6379509  90.0698566
  38.1176996  91.0277081  89.3445206  38.0190349  89.7707653  90.1819801
  39.9733710  41.9146776  25.8916569  39.2612410  42.3807621  25.4536247
  39.6428442  41.0234165  26.0040545  88.6143208   8.6517566  93.0491352
  89.1626453   8.6861396  93.8329697  89.2306137   8.7374812  92.3217678
  36.5112519  92.1579361  80.7618523  36.2515140  92.8401566  81.3809967
  37.2819304  91.7536259  81.1603737  13.2005155  51.4674234   8.3143228
  13.7085307  51.7798615   9.0630114  13.2398510  52.1849394   7.6819843
  95.9239769  58.0723238  14.4099188  96.4669514  58.3075190  13.6575246
  95.9600639  58.8399410  14.9806190  68.2149649  97.7938747  78.0059433
  67.9173613  98.6631966  77.7377272  68.7841558  97.5049305  77.2926617
 112.8076363  67.8325510  11.1568975 111.9954109  68.0230951  11.6261649
 112.5560188  67.8312731  10.2333605  56.9121456  75.9139156  85.2123356
  56.6031790  75.7937860  84.3143654  56.2288523  75.5208588  85.7553291
  57.1132565 107.4339485  74.2453861  57.0548630 106.4786530  74.2301321
  56.4657545 107.7237797  73.6027622  76.2265873  16.9235837  96.6997147
  76.5841007  16.1057842  96.3538551  76.5928364  17.6033008  96.1339664
  21.6956854  87.0926380  87.3436737  22.5128722  86.5985298  87.2781563
  21.5255833  87.1506500  88.2838440  72.2761059  92.6288891  63.6002111
  72.0964909  91.7582512  63.9551210  73.0180311  92.4984169  63.0096531
 115.8913898  75.1937151  18.2794487 116.5003014  75.6704617  17.7153826
 115.0242424  75.4350948  17.9538214 112.3185635  77.3455858  36.4253545
 112.3810673  78.2114935  36.8285084 111.7774487  77.4819756  35.6476474
 105.0858116  59.8199940  19.2949140 105.5774689  59.1337824  19.7461641
 105.7554245  60.3476143  18.8596356  11.8023539  67.8127050  17.1112502
  12.5786567  68.3715773  17.1465433  11.0816097  68.4152269  16.9276106
  83.5296535  30.8204746  82.8301716  82.8262424  31.2505460  83.3164597
  84.0969086  31.5370202  82.5455379  75.0136995   2.4873161  85.3628540
  75.0993824   3.0367973  84.5837784  74.2122412   2.7951577  85.7860947
  37.8325009  85.7550716  95.6605339  37.0831633  85.5610561  95.0974274
  38.5262299  85.1765633  95.3438282  31.0470629 103.6067200  93.5901642
  30.7271862 103.4872723  92.6959324  30.6658220 102.8782177  94.0802288
 111.1512852  66.0176611   6.9896698 111.0283852  66.2285757   7.9152191
 110.3518486  65.5533266   6.7416209  26.0300136  94.5746613  82.0628643
  26.9330382  94.6023655  82.3791122  25.7789588  93.6538315  82.1354485
  26.3604951  30.8858967  10.1195288  25.4588771  30.6266785   9.9294794
  26.8688655  30.5399132   9.3859839  80.3578377  17.2588491  31.6800380
  79.6686077  17.0946157  31.0364342  80.6519032  16.3869703  31.9438243
 107.9064941 104.6939659  66.3939095 107.2308350 105.0840187  65.8393288
 107.5375748 104.7223091  67.2767067  81.3840103  13.4112704  95.5281067
  80.5158901  13.8139904  95.5486012  81.9909191  14.1454852  95.6220436
 114.4728565  82.6752567  17.4125850 114.1022491  82.5552273  18.2869291
 115.3817940  82.3869801  17.4960697  27.9737711  24.6494031  89.1335869
  28.6954927  24.9124193  89.7047043  27.7225995  25.4535794  88.6792183
  26.3008475  70.5531836   2.0874295  26.3894057  70.6480122   3.0357945
  25.7327867  71.2779760   1.8262565  35.1287460 103.1297874   3.0075899
  35.2688026 103.0592632   3.9518583  35.4091096 104.0186691   2.7895987
  38.7693810  76.6335678  10.9600115  38.6841249  77.3158693  11.6259158
  39.0848613  77.0952177  10.1831031  84.9546528   5.1005161  73.8659048
  84.6861553   5.6148654  73.1046057  85.9095573   5.1662952  73.8747072
 111.9859219  50.7074022  77.8376961 111.7967701  51.1786222  77.0262766
 112.6931763  51.2070751  78.2455492  90.0946903  89.1653442  78.6083269
  90.2167511  88.3270168  78.1627417  90.9833336  89.4787121  78.7766981
  97.4301529  52.5867271  51.8008041  97.5896454  52.5706577  50.8571243
  96.5606117  52.9767942  51.8901443  23.3116817  77.8189850  85.8131409
  23.1572127  76.9222069  85.5162239  22.4644423  78.1084776  86.1516857
 105.8531475  51.7739105  69.4025326 105.5642986  52.6783276  69.2807770
 106.7813873  51.8467617  69.6245480 110.0626087  45.8322096  69.7530270
 109.6414089  45.8706570  68.8943386 110.9562969  46.1366320  69.5952797
 100.0142193  50.1158237  62.9528427 100.4460239  50.3975964  63.7593079
  99.5387936  50.8904123  62.6524878  47.6913452  16.6146958  54.2199469
  46.7609692  16.5958965  54.4441795  47.7812672  17.3659289  53.6336088
  30.4952717  49.7755575  81.8037605  29.6451616  49.9109364  81.3851738
  31.1100984  49.6899843  81.0751343   2.5698319  50.1821375  66.3032722
   2.2364885  50.9556723  65.8485603   2.8469515  50.5084419  67.1594048
  21.8529987  62.9473734  63.2337666  21.3259530  63.0699110  62.4441862
  22.3028874  62.1140480  63.0945015  20.1304317  23.4647846  79.4747877
  19.4902766  22.8285813  79.7936630  20.9179902  22.9477859  79.3053913
  47.4338007 101.6725922   5.0735790  47.5586939 101.3273335   4.1895956
  46.4844894 101.6797543   5.1960099 113.3785343  25.4775143  86.4834499
 113.5169983  26.0552549  85.7329369 113.9949036  25.7920814  87.1447945
  29.2367196  55.3249454  90.3800964  30.1862025  55.4431725  90.4072571
  29.0816736  54.8133707  89.5860672  29.3056130  94.1623497   8.2122445
  30.0819540  93.7244511   8.5612023  29.4849992  95.0955391   8.3272105
  49.2238665 105.7122517   8.7833065  48.6427546 105.2527046   8.1772053
  48.8251781 106.5760422   8.8888830   2.6041302  57.8868484  63.9985132
   1.8178943  58.0808353  64.5088387   2.5144839  56.9636488  63.7620878
 115.0201321  28.9548922  66.7362022 114.9963284  29.8624563  67.0395041
 114.3409252  28.9093637  66.0632706  29.1839457  51.5115261  70.7480907
  28.4157872  51.8804932  70.3121710  28.8324499  50.8180094  71.3064051
  55.4378986 104.2548561   9.5510095  56.3146353 104.4537830   9.8796284
  55.0910187 103.6110020  10.1685536  44.7285604 100.2181816   2.3158887
  44.5996141  99.3715191   1.8883657  43.9798832 100.3050327   2.9059470
  32.4872732  70.4072666  59.0870571  32.1102166  69.9550533  58.3323622
  33.3201408  69.9615860  59.2417717   6.1658549  50.5302668  69.5007133
   6.9271970  50.4420090  68.9273024   6.5327013  50.5497503  70.3846121
  86.0087872  64.0459871  77.8276110  86.8511295  64.4704628  77.6647711
  85.9263802  64.0352345  78.7811947 115.5033779  86.6716290  11.8363810
 115.2982235  85.9849262  12.4708772 114.7437382  87.2535706  11.8592525
  29.0581369  26.2590623  74.7578001  29.3994308  27.1370459  74.5878124
  29.1010308  26.1655188  75.7094526  96.8654346  21.0115886  64.8346901
  96.9339848  21.0857534  63.8828325  97.0713520  21.8884301  65.1586914
  38.1684995  79.6683502   2.9579592  38.2266283  80.6216908   2.8947410
  39.0778494  79.3706703   2.9315400  19.9382567  55.3686523  20.5623412
  20.5504727  56.0438251  20.8548522  19.4935846  55.7584095  19.8096204
  86.0363770  87.8655815   2.6380855  86.6042519  87.3980522   3.2506022
  86.6319370  88.4225845   2.1367988  70.5344391  68.1989050   1.5702917
  70.1046753  67.8213644   0.8028309  69.8273993  68.3244181   2.2032017
  14.9181592  65.7980537  85.2957058  14.1901314  66.1713409  84.7988510
  14.5251882  65.5176067  86.1222363 100.7129669  37.2176313  94.0173531
 100.7236099  38.1407905  94.2701340 101.6269779  36.9409204  94.0824699
  15.5673599  22.6229668  85.1367283  15.5431056  23.5079432  85.5006790
  16.1535835  22.1403122  85.7194996 103.2874680  48.5374975  60.3886986
 103.9085770  49.0995359  60.8519030 103.0420780  49.0406609  59.6122646
  32.2045088 101.1633968  20.9856129  32.1678638 102.1105194  20.8520484
  33.1116867 100.9920883  21.2384248   8.2544452  50.0326490  56.0483646
   8.7267220  49.6487236  55.3095913   8.4494734  49.4529200  56.7846441
  23.2231116  60.6455469  62.7836704  22.8028250  60.2853632  62.0027351
  23.4688663  59.8774290  63.2992554   5.2207410  61.2000084  49.9198771
   5.5086374  61.8267345  50.5836248   5.9738421  61.1060047  49.3365812
   2.7330676  43.0186272  72.4476814   2.1525647  42.7636623  71.7305803
   3.1290889  42.1972704  72.7388382  63.8329458  92.4157619  11.2621093
  64.4345379  92.2934914  10.5276906  63.7954569  91.5584946  11.6862881
  12.2461331  47.6738501  90.9501934  12.8463507  46.9732428  90.6949997
  12.0534050  47.5003576  91.8715954  49.1993809  33.9912438  79.8064613
  49.5184422  33.4389925  80.5202198  49.5319080  33.5724354  79.0125751
   6.1218101  43.1015301  80.3597164   5.5413747  42.3544407  80.5052757
   6.8774128  42.9309082  80.9220219   6.4083552  66.9257450  70.0555992
   6.2821311  67.4446392  70.8499861   5.5845571  67.0166492  69.5767212
  29.1959524  64.9766874  19.7609258  29.8203683  65.6237078  20.0891042
  29.5179653  64.1406488  20.0979447   7.7568263  59.5718527  66.2748671
   6.9865215  60.0858784  66.5170336   8.4941304  60.1671696  66.4098310
  11.8668175  44.2342615  48.1551266  11.1925757  44.2635536  47.4763250
  12.4963307  43.5858870  47.8396034 100.9967613  23.0266619  81.8916321
 100.1911163  23.0669069  82.4069405 100.8453369  23.6286354  81.1629772
  73.1348467  82.6481724   6.1062479  72.4330950  83.2148647   5.7858902
  72.8660297  82.4127293   6.9942445  92.1816826   7.9474699   0.2498366
  92.7214813   7.1796346   0.4376631  92.7740288   8.6905593   0.3646475
  96.4381790  75.7941151  83.4846592  96.9057751  76.0891294  82.7032757
  95.5567837  76.1543608  83.3866310  94.8050880  55.8246946  78.0467319
  94.5204353  56.1509752  77.1930647  94.9603748  54.8906422  77.9065084
 117.9513073  39.8759961  88.4933090 117.3280907  40.3204298  87.9185867
 117.8904438  38.9535928  88.2449245  40.1780891  95.0595951  12.3360384
  39.7523260  94.2300415  12.5523722  40.8862782  95.1391411  12.9750800
 107.4059677  56.9130802  88.8965511 107.4486160  57.7842808  88.5023117
 108.0934906  56.9176388  89.5625210  96.2786961  13.8821900  74.3279123
  95.4083729  14.2093861  74.5553493  96.8782425  14.5611870  74.6373272
  27.1324778  51.9281721  87.6780987  27.3033452  50.9863710  87.6717663
  26.1799216  51.9991970  87.6162529 102.5211334  28.4388638   0.4505835
 102.7537251  29.3061447   0.7821869 101.8220711  28.1396937   1.0319975
 108.8957214  50.6779051  78.9174938 109.8119831  50.7863045  79.1723490
 108.9343357  50.3411484  78.0223227  28.5142016  38.7869143  64.3366766
  28.5101986  37.8972220  63.9836025  29.3549371  38.8616610  64.7881269
  43.2343912 105.6825066  17.4447906  42.5983191 105.6620884  18.1597912
  43.3762217 106.6141319  17.2769260  10.5561423  50.9785032  76.8939638
  11.4730084  50.7037926  76.9049978  10.2783060  50.9224844  77.8082371
  18.2896173  57.1784878  83.8526249  18.3642006  58.1327438  83.8610744
  18.4946907  56.9301987  82.9512215  37.7460074  33.7129378  87.8274727
  38.0259871  33.0424976  88.4506607  37.5220370  34.4675756  88.3720779
   5.4612035  49.7932196  55.5351448   5.3269047  50.7298803  55.3907061
   6.2807047  49.7418165  56.0270882  39.5351505  76.1570787   0.6446301
  38.9826822  76.0193968   1.4140821  39.1017675  76.8605566   0.1613833
   6.6212302  87.4156666  78.0213690   7.1734375  87.9187775  77.4228811
   6.0720241  88.0722904  78.4496784  37.7293992  78.7786818   5.8292139
  37.4522972  79.0471458   4.9532169  37.4183369  77.8773260   5.9130901
  90.7667351  71.3273954  64.6156788  90.1552677  71.3389349  65.3520250
  90.2103043  71.4080048  63.8410044  91.2472725  33.8605046  59.2903280
  91.2560368  33.7321544  60.2388430  90.6562710  33.1827211  58.9623690
  95.0974941  10.4549778  11.1311424  94.4799900   9.7276247  11.0544729
  95.8207989  10.2172625  10.5510104  10.4533696  48.2934237  88.8676739
  11.1461949  48.3520031  89.5255470   9.7433412  47.8267622  89.3084908
  33.7767959  47.9260540   8.6504292  34.3685865  48.3286524   9.2859828
  33.0739927  48.5662079   8.5386008   3.2690153  45.5649662  58.0478811
   3.4485608  46.2196350  57.3730469   3.7618762  45.8663321  58.8110971
  16.2708354  85.6608963  66.6830301  16.9076610  85.1448727  66.1886549
  15.4865777  85.1127052  66.7087269  88.0396748  15.8120322  41.6735411
  88.0550575  16.5579069  41.0738182  88.7237644  15.2277303  41.3466644
  56.7639971 108.1057835   9.0072292  56.6507626 107.5727940   9.7942019
  57.0516920 108.9580441   9.3345171  20.8122420 104.8544025  93.6330032
  21.0618997 104.1341877  93.0540466  21.3258934 104.7117043  94.4280148
  45.0266886  97.6407146   4.3263218  44.3339491  98.2280922   4.0241238
  45.6289768  98.2082176   4.8073810  97.0173454  19.6545756  91.8586445
  96.4369297  20.3044105  91.4623356  97.3359680  19.1358626  91.1199665
 106.0656643  63.6546135  64.0625000 105.8388710  64.1811705  64.8290157
 106.5859795  62.9320240  64.4137335 112.1209240  55.2256298  56.4806318
 111.2932014  55.6314754  56.2229347 112.2305107  54.4965935  55.8701229
  10.9261847  72.6434469  34.2251110  10.3026450  73.3662605  34.2955828
  11.7837811  73.0680990  34.2043829   0.4715632  69.9280977  60.7891607
   0.6727386  69.5538759  61.6469002   0.5990147  70.8699322  60.9028959
   9.2507601  31.4428926  88.9628410   9.2767507  30.9299731  88.1550789
   8.3317584  31.6930127  89.0582657  90.3891945   8.1077528   2.5683674
  90.4833221   8.8882971   3.1143722  91.0192585   8.2342803   1.8589748
  62.4965096   6.5079600   1.5164296  62.9026651   6.4880753   0.6498981
  62.1963215   7.4109983   1.6195771   1.5035750  27.0876527  90.1231575
   1.0689470  27.3547626  90.9330845   0.8163313  27.1277285  89.4580841
  23.5149312  55.6342554  78.2141542  23.1561995  55.2089405  77.4352789
  22.9466772  55.3451347  78.9281082  21.3034272   4.9204436  93.9027691
  21.3059640   5.1049626  92.9635239  21.2504172   3.9663851  93.9592838
  98.5271931  65.3460455  62.1062803  97.8387833  64.8004866  62.4866629
  98.8924599  64.8130035  61.4001179 105.8939266  58.0599165  59.9397564
 105.9498882  58.4281158  60.8215332 105.0951290  58.4383631  59.5724297
  23.7340307  12.0468175  73.5331726  23.3334613  11.8487787  74.3796682
  23.7249613  13.0025864  73.4816504 100.1815128  17.4404311  77.3326921
 100.3074074  18.3617318  77.5598192  99.8731804  17.0340455  78.1426382
  14.3753314  12.9780710  60.6152201  14.6103597  12.3357034  59.9456263
  14.1989255  12.4551713  61.3973284   5.5307251  70.7529211  65.5669928
   6.3458478  70.5342627  65.1153374   5.1854265  69.9095345  65.8597279
  91.3306236  31.8578959  86.8195820  91.7902565  32.4726248  86.2476730
  90.7735920  31.3514686  86.2284184  50.0411701  28.6690235  68.5950375
  50.8502531  28.9966202  68.9878511  49.4143391  28.6502028  69.3181992
  25.9832191  30.0168610  94.5417976  26.7040586  30.2237034  95.1366425
  25.2318287  30.4867363  94.9035454 108.0175018  54.2315865  88.0831146
 107.4395275  53.7222004  88.6511803 107.8887177  55.1382923  88.3615494
  25.7860708  14.2546737  86.0032082  25.4429913  14.0370989  85.1364994
  26.6861176  13.9290261  85.9932041  91.2921715  61.3852024  88.2225418
  91.9682312  62.0618343  88.2592392  91.3874149  60.9984112  87.3521709
  15.1637149  51.3584280  41.2468338  15.4459214  51.4900446  42.1519661
  14.6248257  50.5678892  41.2765169  10.5574405 109.8601532  87.0485687
  10.4037964 110.0413132  86.1213112   9.7856957 109.3673038  87.3273945
  88.0781746  57.5233555  82.4853039  87.2322178  57.3836374  82.9108238
  88.4962177  58.2111120  83.0034351   4.6973148  39.0338159  86.9364548
   5.6100500  38.8289976  86.7334843   4.5446426  38.6274123  87.7895451
  76.1535597  55.4115725   0.8189200  76.2509966  56.3309240   1.0669851
  75.2627754  55.3496504   0.4741011  12.0213878  45.5569267  64.2989826
  11.8899238  45.3512430  63.3734322  11.1713934  45.8826447  64.5950365
  24.7064281  49.4472790  54.9937439  24.9899793  48.5563183  55.1987219
  23.9570713  49.3317032  54.4095039  24.1741705  56.5662336  59.1311550
  24.8308730  57.0380449  58.6189365  24.6730661  56.1472273  59.8324156
   4.9503210  55.3412342  48.4302139   4.5880875  56.2242699  48.3576393
   5.4483664  55.3530884  49.2475510 116.0622883  71.0078621  91.7082691
 115.3351879  70.7676458  91.1339474 116.6658306  70.2669525  91.6532612
   1.0222305  60.7369184  69.3959951   0.1420680  60.4921484  69.1102791
   1.0631261  61.6837120  69.2613220  66.6289997 102.0234013  11.2754405
  66.3711214 102.0075321  12.1971118  67.0477295 102.8761768  11.1585343
 111.0298634  31.3302732  79.2828751 110.2403927  31.2450910  78.7483549
 110.8704853  30.7634211  80.0375271  97.1547127  64.0499640  82.9430962
  97.3843861  63.9928246  82.0156193  96.2011433  63.9682436  82.9591846
  25.4478407  50.8233070  90.8970070  25.0511098  50.8120871  90.0259686
  25.8471513  51.6904020  90.9671688  62.5126123 101.5252876   7.7631080
  62.1528101 100.9582806   7.0809990  62.4769306 102.4047661   7.3869616
  36.8746305  79.3865442  25.8787584  35.9301782  79.3984461  25.7235169
  37.1761918  78.5807943  25.4591632   9.0020347  76.8294239  39.9746108
   9.6060896  77.5586700  39.8347831   8.6486030  76.9760323  40.8520031
  20.2467132  54.1004229  68.5480976  20.1728964  54.8278761  67.9303646
  20.4339266  53.3385658  67.9996872  22.2407770  64.3831444  87.8947067
  21.6152430  65.1018238  87.8028488  21.8913078  63.8513565  88.6097622
  36.0233927  96.5887547  12.7705824  36.3153672  96.6416454  11.8605363
  35.1417732  96.9614410  12.7613091 115.5844402  53.9328909  67.0782709
 114.9848366  53.2181787  66.8640423 116.3269234  53.8079214  66.4872265
   4.0678611  96.6876221  72.5638485   3.7298322  97.5759602  72.6770735
   3.6896536  96.1929703  73.2908392  58.4683752 105.0907612   3.8796389
  57.7218866 104.7709751   3.3729586  58.4791851 106.0345840   3.7205118
  66.5031719 104.4612026  15.2823508  67.0386982 105.0759315  14.7807932
  65.6090164 104.7891903  15.1867187   5.5639386  65.1315546  67.1549797
   5.3321397  64.4922256  67.8285980   5.2065015  65.9590578  67.4770164
  25.6899476   3.7386405  76.9025278  25.8264995   4.5974427  76.5024757
  26.1351657   3.1274819  76.3155890   5.0922668  80.3837299  60.4014969
   5.6197423  80.3517246  61.1996031   5.6121600  80.9071827  59.7916269
  42.8716707  63.3639812   8.7740737  42.8931475  63.5257721   9.7172570
  43.1774139  62.4619436   8.6787707 103.4350491  73.7143660  73.6460495
 103.8373089  72.9637957  74.0831518 103.3554554  73.4443712  72.7311707
  18.1554782  34.6612096  90.4508018  18.3359909  34.9801350  91.3350773
  18.7752652  35.1333237  89.8947430   9.0292042  65.3571129  94.2438412
   8.5505003  65.6650162  95.0134277   9.7599274  64.8531914  94.6020794
  84.2241573   5.6847781   0.6042404  83.7345600   5.3439146   1.3527963
  84.0389156   5.0680923  -0.1040071 109.7459221  86.0738754  57.2768545
 108.9477825  85.6879425  57.6377869 109.9632835  85.5183125  56.5282965
  92.0572853  56.4067507  89.0678596  92.2811890  55.5944443  88.6137009
  91.3732910  56.1538076  89.6878624  93.8816643  73.6788750  89.9207401
  94.7532463  73.9539051  89.6362305  93.3639526  74.4839811  89.9188519
   0.5826735  68.6295557  41.7517805   0.8472341  69.3449688  42.3300791
  -0.2470479  68.9212751  41.3740349   6.4653218  66.1262321  82.4555492
   6.7378521  66.9832516  82.7833843   7.2803199  65.7025623  82.1862602
  25.5078244  60.8153441  95.4741801  25.7662033  60.2527922  94.7441047
  25.9521984  60.4402506  96.2344904   8.5248101  45.0996685  75.0137949
   8.9160305  44.2421913  75.1808739   9.1447979  45.7235003  75.3915215
  87.0381069  94.1376686  16.4899933  87.9731369  94.1552258  16.6940200
  86.8004608  93.2115364  16.5350831  94.4708824  22.7153754   4.5136529
  94.6176910  23.2888532   3.7614557  93.6387348  23.0119777   4.8821497
  96.2898636  15.7563531  10.6430852  96.0270119  14.8811889  10.9280860
  95.4894924  16.2780058  10.7023346  23.0571604  58.2546234  95.2223301
  22.8095102  58.6799335  94.4013500  23.9029551  57.8472805  95.0354290
  56.8416834 101.3519287   7.4119866  57.1495199 102.2558022   7.4788964
  57.6281929 100.8210945   7.5378972  27.1807837  32.7070379  85.9308434
  27.8453493  33.2861114  86.3040161  27.6787090  31.9778037  85.5613518
  11.0945725  50.6743145  72.4415636  10.4188275  50.9122705  73.0763721
  11.6104221  49.9992943  72.8825569  64.0550518  95.1022434   4.5700815
  64.9238539  95.2005100   4.1805154  63.4506273  95.1924419   3.8333565
  60.8720112  10.9248567   5.1397473  61.1795044  10.4487514   4.3683818
  59.9309349  11.0277760   4.9982929  82.0580578  45.4705667  87.0012856
  82.7786160  45.9146833  86.5542984  81.8344593  46.0500956  87.7295589
  64.3019581  12.2369874   3.6855918  65.0912714  11.6955519   3.6935019
  64.0819550  12.3531985   4.6098894  15.5250657  42.6740026  77.3705673
  16.1195803  42.2479725  77.9880476  14.7696960  42.0880651  77.3222971
  20.7007837  55.3011942  90.9086037  20.6894875  55.9912920  91.5718269
  20.5045652  54.4996405  91.3936234   4.2315957  75.8400917  66.9496822
   5.1832694  75.7922459  67.0405674   4.0838996  75.9013700  66.0059357
  99.3918228  10.6003106   7.2778481 100.2190685  10.9979260   7.0062035
  99.2447281   9.8973924   6.6449958   9.1317344 106.6765118  17.3058414
   8.5219133 107.3213959  16.9473994   9.3475610 106.1123657  16.5632868
   3.9225531  51.7401743  79.0469170   3.3078775  51.7049170  78.3140039
   3.5114628  51.2103939  79.7299814 109.3591118   7.1969205  29.8835111
 108.5462475   7.6939124  29.9756503 110.0356007   7.7774119  30.2322507
  95.1376724  72.6726484  83.4739113  95.0777531  73.6070347  83.2750130
  94.2368603  72.4097013  83.6626720  79.0196753   7.7963156  22.7072835
  78.6337566   8.3763134  23.3637118  79.7249699   8.3123326  22.3167443
  57.0119619 109.8327541   2.2206576  56.1283159 109.6521282   2.5412470
  57.1178102 110.7778072   2.3297432  58.6624622  32.0620561  16.0154855
  58.7608624  32.0009661  16.9656527  59.1861868  32.8244066  15.7689774
  47.1694231 110.5208015   9.7220349  46.7066097 111.2737942  10.0895011
  46.7561769 110.3778744   8.8705486  34.3165851  83.1054592  94.7015285
  33.9174438  82.6668167  95.4528713  35.2119780  82.7681065  94.6751118
   3.9066252  29.5877862  76.6742277   3.7491298  29.2315817  75.7998466
   3.6858457  28.8705254  77.2683859  13.5299146  86.2419415  63.6193609
  13.6585045  85.7361698  62.8169346  12.6055598  86.1181736  63.8349533
  86.0856438  82.2027969   7.1771759  86.8209743  81.6484547   6.9159842
  85.4126740  82.0344353   6.5176356   8.8156688  82.1168041  91.1884212
   8.3347535  81.2892151  91.1817551   9.4775528  82.0147133  90.5045128
   8.3728850 106.4550495  57.6879358   8.7665296 105.7005501  57.2497511
   9.0799135 107.0982933  57.7387142  16.0424984  66.1825466  77.3049164
  16.6743875  66.3727808  77.9982853  15.9041631  65.2369833  77.3597717
  23.1728387  53.8262081  49.7001028  23.0270553  52.9149389  49.4460154
  24.1190910  53.8903522  49.8294258 116.8975163  44.8513651  87.5311279
 117.6231861  45.0299549  86.9330215 117.0791245  45.3956318  88.2973003
  38.3477163  79.3094683  37.4159503  39.2709303  79.1937637  37.6407194
  38.3611989  79.7083855  36.5459418 111.4487457  89.5697308  77.9150057
 112.1896362  89.9450302  77.4391317 110.7874680  90.2617931  77.9130077
  84.8798752   8.4275299   3.4478384  84.5218086   9.2202193   3.0482584
  85.6942463   8.2660329   2.9714486  36.8232441 109.2553902  17.4653697
  37.2819161 108.5744953  16.9732010  35.9257221 108.9317513  17.5424886
  46.3264322  99.9293232   7.8945392  45.8542681 100.3476620   7.1746165
  46.2571859 100.5506039   8.6194199  26.4640546  62.1309566  87.1458054
  26.9704771  62.7355385  86.6033554  26.3028383  61.3773775  86.5780449
 109.0115261  29.2117143  94.4007111 108.0955219  29.4890070  94.4172764
 109.0140629  28.3664799  94.8499393   6.6309887  81.4554119  55.2980042
   5.8849347  81.6147804  54.7198725   7.3624879  81.9045162  54.8743916
   5.5431437  40.8324957  77.7769184   5.4520309  40.8861685  76.8255758
   6.1237919  41.5590191  78.0032825  15.4690671  69.9493742  57.6246500
  15.0625360  70.3727245  56.8685150  14.7384083  69.5511961  58.0977488
  98.4229565  17.6719224   5.4149485  97.7624035  17.6752448   4.7222072
  97.9262161  17.8167129   6.2202519  23.8660598 105.5376148  91.2765980
  23.8860035 106.0035229  92.1125221  23.0086136 105.7468891  90.9061527
  21.6815448  75.1224709  88.5170555  21.4516020  74.5541430  89.2521477
  21.2474036  75.9530878  88.7115479  97.4878216  18.9797187   7.5082672
  97.5683594  19.8984551   7.7645302  98.0456352  18.5086274   8.1272614
 116.1601448  77.1187401  70.2464867 115.5892277  77.7172947  70.7281733
 116.1930275  77.4799538  69.3606663  41.8571472  57.6389360  67.0655012
  41.9348621  58.5925484  67.0940685  42.6271248  57.3504543  66.5754509
  84.1136360  29.1557169  32.8924298  84.1646671  29.1307974  31.9369149
  84.7774982  29.7949243  33.1511426  94.4181442  77.8939104  83.5487461
  93.8752747  77.6230145  84.2891121  93.7909985  78.1173468  82.8610039
  62.4773312  17.7866971  16.3431895  63.2919931  17.5078833  16.7613006
  62.4660492  18.7377346  16.4510369 115.0626373  46.5191317  86.2642288
 115.7819462  45.9722948  86.5801334 114.3097878  46.2530327  86.7920876
 108.2012177  75.2281904  79.5442104 107.6905155  75.7282305  80.1809025
 107.6127815  75.1201200  78.7970161   6.9548690  44.1966009  85.2117634
   6.8307590  44.9499226  85.7891178   7.5932670  43.6480761  85.6676197
   4.9533767  46.2315559  60.0978947   5.0718820  46.9319248  60.7395077
   5.1037323  45.4258394  60.5923128 102.6612854  57.9324293  90.4799557
 102.0497227  57.2241640  90.2785015 103.5169697  57.5912333  90.2199173
 116.6857243  53.3529186  63.0139732 116.4885426  52.4989557  63.3988094
 117.5944424  53.5232592  63.2618380  60.8494568  10.7484663  40.9651518
  60.5564404  11.5493488  40.5304575  61.7971563  10.7362235  40.8311749
 108.0406094  56.4160395   1.8687801 108.6916924  57.1127701   1.9517434
 107.4105072  56.7517328   1.2311999  94.1626549  18.7973046  14.1910374
  93.2844925  18.7894177  13.8102460  94.1949177  18.0103445  14.7349918
   2.6357606  65.3768349  89.0079594   2.2075187  66.2174749  89.1697311
   2.4006747  65.1578712  88.1062889  78.6098576  23.2559609  20.8278322
  77.7231121  23.0864286  21.1459064  78.8774300  22.4347162  20.4152894
  92.0920944  11.6293192   5.8913195  92.9246998  11.8060732   6.3292128
  91.4532566  12.1585846   6.3688117  21.5856528  50.5990458  83.1378555
  21.2158394  50.3242540  82.2988319  20.8234477  50.7698679  83.6911106
  82.8663158  12.7873456  14.4549966  83.1538391  11.9776702  14.8768854
  82.3544407  12.4956393  13.7005973  11.8914938  70.5089712  79.5864344
  12.5453818  71.1779070  79.3834877  11.2275958  70.9706116  80.0986481
  52.8589821  86.2173557  18.5750151  52.3857450  86.1543655  19.4046593
  52.2448778  86.6491604  17.9811704  89.9643517  39.9279761   7.6531005
  90.2828789  39.0792394   7.9603863  90.7013130  40.5236483   7.7883816
  94.3440247   7.8608900  14.0934968  94.8163795   7.2348464  13.5447025
  94.8000908   7.8338677  14.9346280  79.8560715  10.5963492   4.7259670
  79.1469479  11.2390006   4.7452864  79.6652985  10.0071597   5.4558247
  57.6357412   6.3783199  12.7273440  58.0706406   7.2279900  12.6555252
  58.3355713   5.7704771  12.9660952  23.7750983  54.9957943  69.3197536
  23.8947487  55.7856417  69.8470688  22.9313493  55.1229382  68.8859892
  75.2696419  15.2688658  72.9325390  74.5913029  15.9350121  72.8214598
  75.6143427  15.4223979  73.8122225 107.8356361 107.9926586  92.0309067
 108.5037899 108.5202694  92.4684429 107.0064640 108.3988571  92.2833347
  22.2141719  73.4162569  86.2874222  22.0100570  74.1658258  85.7282162
  22.4921775  73.8048792  87.1168327 101.0899162  36.5774965   3.6480606
 100.3486252  36.3652349   4.2152086 101.8588829  36.2951016   4.1432175
  28.9998460 107.9954815  87.7289677  28.0523467 107.8882980  87.6453686
  29.3685293 107.2940159  87.1920776  14.3935740  72.7692556  84.9397945
  13.9321911  71.9783354  84.6608543  14.3362844  72.7556038  85.8951759
   2.9953358  70.4996300  95.3638935   3.5897076  70.3237295  94.6345043
   2.7679694  71.4246655  95.2698612  11.0502636  39.5310521  83.2453442
  11.1889553  38.6024475  83.4315968  11.4322805  39.9855828  83.9961433
  53.3517218 102.3369884   8.4495765  53.9871264 102.6998425   7.8324568
  52.5681210 102.8734970   8.3297127 101.5194511  11.4262235  12.0819581
 101.1474419  11.2131047  11.2261415 100.8163166  11.2357950  12.7029037
  88.8049984  30.9458375   1.7751181  88.0371380  30.6788611   1.2698042
  88.9385414  31.8642259   1.5406772  61.2082481 109.4293690   1.7532945
  62.0235920 109.6312428   2.2123095  61.0830927 108.4901714   1.8892141
  70.9140491   2.8425449   3.7526810  70.6599379   3.3991656   3.0165887
  70.1899338   2.2235356   3.8460323  55.1539707  48.4484577  92.5063133
  54.8253012  48.1994486  91.6424847  55.7166433  47.7195644  92.7677441
  17.8943419  60.6672812  53.5532379  18.3955371  60.5709648  52.7434492
  17.8811419  61.6104507  53.7159967  81.2175274  22.4764943   2.2523926
  81.1260414  22.1570897   3.1500801  81.6691303  23.3157325   2.3416349
  19.9018025  68.4232950  55.4454899  19.8910689  68.3069134  54.4954491
  19.0241683  68.7409592  55.6578064   3.4607077  76.4920235  69.4452810
   3.3239701  75.7067490  69.9752569   3.8088810  76.1638403  68.6162424
  11.6011119  59.6375179  81.3543034  12.2226274  59.0670824  80.9020329
  11.6080105  59.3286324  82.2602749  60.3818417   1.2265506   1.7432554
  60.2424335   1.5168044   0.8418393  59.5931911   1.5045494   2.2090694
  21.8666482  36.4918113  72.9481268  22.7715635  36.5551138  73.2536650
  21.8128037  37.1192503  72.2272539  74.4643307   3.5481322  13.5266602
  74.2487764   3.6067784  12.5958920  74.8475695   4.3994570  13.7378621
  20.1033449  33.9264345  65.5319071  19.7131181  33.3544993  64.8709631
  20.5531359  34.6039057  65.0269747  24.1775608  96.0240078  87.0254040
  24.1567111  95.1093292  86.7440605  24.5375347  96.4971828  86.2752247
  35.4304910  90.8942223  78.4447050  35.7264996  91.3344383  79.2414618
  34.9598241  91.5708447  77.9579878  85.9202480  61.7874575   6.0499662
  86.7666531  61.9555521   5.6357622  86.0209274  62.1170664   6.9429690
  62.6918411  98.5033512  25.3292966  62.9052019  98.5290813  24.3965340
  62.2897959  99.3537426  25.5065775  34.7945786  12.8992391  74.3699455
  35.4469872  12.8013587  73.6763954  34.9754000  12.1777439  74.9724245
 105.7619095  33.1108570  56.9180822 104.8679638  33.4387255  57.0160389
 105.6560707  32.2315049  56.5550756 110.0396156  94.1423035  63.8610649
 110.2072144  94.4174194  64.7624254 109.2537308  94.6252823  63.6054277
  27.8466225  49.8454380  92.0168400  28.2433867  50.7165146  92.0227242
  27.1058130  49.9237347  91.4157486  28.0616903  13.3432031  84.3824100
  28.2463956  12.5034380  83.9618015  28.0457568  13.9734530  83.6621666
  28.2228160  81.2931156  71.4755344  28.2238555  82.1434498  71.9150400
  28.8340998  80.7600307  71.9838476   3.6841729  17.5842011   3.4539914
   2.7416733  17.4925125   3.3142796   3.9050254  16.8820310   4.0658835
  23.8167906  63.7452841  90.1354218  22.8663564  63.6545992  90.2038479
  24.0601373  63.1735754  89.4072914   8.0291963  23.2129765  81.8052483
   7.7955794  22.4029636  81.3518906   7.7577990  23.9091372  81.2069798
  19.7866893  75.2650309  19.9006164  19.9902487  74.7827864  20.7020140
  20.0611949  76.1632299  20.0853109  -0.2153600  74.3615961  85.2165031
   0.2152239  74.7949028  84.4795704   0.2525794  73.5322094  85.3133488
   3.3443376  48.1063604  56.9330311   3.4744388  48.4815311  57.8039789
   3.6796856  48.7723446  56.3328266  64.4398785   0.4128882   3.6829787
  64.0726089   1.0575911   3.0782458  64.5677805  -0.3709820   3.1487310
 108.4127235  18.2619369  38.2802105 109.0646935  18.8782549  37.9465675
 108.0046558  18.7195516  39.0152597  11.2718678  39.2212701  88.4538651
  12.0610356  39.0404177  88.9644909  11.5667868  39.2051291  87.5433731
  30.2484822  83.9298153  90.4549408  30.3252959  83.8621998  91.4066505
  29.3059659  83.9707756  90.2930355  62.5114727  18.3864737  13.3779597
  63.1328821  18.3156180  14.1025722  62.2945881  19.3179488  13.3386493
   4.3360764  65.5325890  80.4860020   3.7312341  65.4706717  81.2252998
   5.1879418  65.7045460  80.8872318  59.5568657 104.8826981  22.5362706
  60.1359797 104.8804569  21.7741299  59.4792509 103.9605236  22.7808118
  50.2205015  66.2491422   0.3418703  49.7865296  67.0371549   0.0148649
  49.5259774  65.5915635   0.3800458  84.6893215  31.9846010   9.4258755
  85.1023293  31.1763906   9.7299331  84.0062618  31.6921854   8.8224190
  77.5174236  37.0924735  10.9483147  77.8753424  37.9700685  11.0822892
  78.2417202  36.5934992  10.5706167  30.2772570 108.7991524   1.4331044
  30.8945966 108.0734634   1.3409500  29.4561934 108.3832264   1.6959569
  88.8014030  34.2849827  89.1647530  88.8396263  33.3546972  89.3868828
  87.9707527  34.3863273  88.7000179  75.9612417  10.7764256  15.4342926
  76.6406870  10.1848698  15.1108038  75.3783846  10.2149916  15.9454703
 104.6449852  15.1907098  10.7703400 104.5558929  14.3307805  11.1812115
 105.3974438  15.1000130  10.1856971  33.3347154  73.0629730  93.1207466
  32.7516866  73.8212633  93.1569386  34.0916038  73.3665085  92.6195335
  98.4102345   5.6790161   1.9529535  97.8164196   4.9444163   2.1078169
  98.6162853   5.6277829   1.0195988  26.7440319  57.3400211  72.0459843
  27.3871207  57.1020317  71.3781309  27.2094131  57.2329330  72.8755522
  90.1692963  75.0466251   9.9487072  90.8364677  74.8613119   9.2878181
  90.0046158  74.2012596  10.3663981  17.2289312  81.6872787   0.9554979
  17.5578260  82.1368408   0.1770668  17.5749969  82.1950054   1.6894518
  60.4959297 103.4436512   7.5021571  59.7290707 104.0160656   7.4798012
  60.3484631 102.8750992   8.2579547  27.0658159 104.9075794  93.8021564
  27.1724391 105.1067352  94.7323227  27.9114652 105.1279163  93.4115696
  13.7935162  72.5421381  79.5182133  14.2768240  72.8246880  80.2946186
  13.5694122  73.3556747  79.0663671   4.4379887  66.1821747  94.8415947
   4.8454100  65.4451942  95.2966785   4.2004463  66.7928171  95.5393982
  29.3868279  92.4914837   2.9593819  30.2792645  92.8009415   3.1143716
  28.8669538  92.9045963   3.6488029   8.0013275  28.7376165  51.9518280
   8.9314318  28.7407303  52.1779442   7.8574532  27.8848958  51.5414667
  57.1820379 101.3164764   0.1122255  57.9538334 101.0025506  -0.3589564
  57.4909115 102.0842748   0.5931730  82.4728394  12.3854935   4.8208079
  83.1387997  12.3447275   5.5071491  81.7918205  11.7789376   5.1115489
  21.3358355 109.7362232  30.7986283  21.1411715 108.8530254  30.4851174
  21.0767007 110.3091145  30.0769067  93.3904743  24.2786217  36.8973207
  93.8319302  23.9281011  37.6709366  93.0674076  25.1361656  37.1738744
 113.3271694  65.5821848  47.0391941 113.3979702  65.9162998  47.9333878
 113.3149147  64.6303272  47.1394300   5.3667569  63.8018718  96.2774270
   5.1555561  63.0091110  96.7705379   5.7034611  63.4809872  95.4408293
  49.4459772  16.0552168  56.5995836  48.9418936  16.1602998  57.4064875
  48.8187456  16.2375021  55.8998823  24.0992975  57.9682159  82.3227596
  24.6419978  58.4475708  81.6967201  24.7142267  57.4005842  82.7873993
  68.0035257  13.7531793  12.0313537  68.3277845  12.9275894  11.6715074
  67.7481604  13.5394299  12.9287565  62.6883841  91.5089417  16.9316101
  61.9172382  91.5673637  17.4956560  63.0798578  92.3815823  16.9699669
   9.6534646  62.9767704  43.8568640  10.0305629  62.8874445  42.9816198
  10.1651585  62.3776388  44.4004107  91.8081093  22.9999042   5.0123322
  91.4264107  23.5646701   5.6843299  91.1508656  22.9773593   4.3168044
 116.1113262  60.7731342  78.4331226 116.5845776  61.1414862  77.6870775
 116.6795349  60.9426355  79.1845512 107.4960327  69.2955303  85.1120186
 107.5896549  69.2966795  86.0646248 106.8011093  68.6600161  84.9404144
 115.4633617  12.7148247   6.5218794 115.2186775  13.4465194   5.9553230
 115.8582020  12.0749032   5.9295696  59.6841764  82.4824810   6.6682237
  59.6253300  81.5828514   6.3466233  58.8639641  82.8902912   6.3904035
   0.3753649  29.0969801  75.4030609   0.0160872  29.0401793  76.2884569
   0.1609026  29.9839330  75.1140022  79.0480089  94.3355560  26.7400789
  79.1391850  93.7754822  25.9692168  78.7428427  95.1735878  26.3925123
  61.6873884  91.3678265   3.0074689  61.1444330  90.6347370   3.2973057
  61.4676905  91.4774990   2.0823002   8.5233980  42.7465630  89.7627354
   9.0762275  43.4672642  90.0647354   8.9535236  41.9589663  90.0957680
 118.0085254   4.2425394   7.4902171 117.9542347   3.8381240   8.3560884
 118.5788287   3.6596727   6.9889665  63.2229280   1.7596447   1.6380829
  63.7677336   2.0341156   0.9004620  62.3385048   1.7064530   1.2758684
  19.8602700  76.7146730  69.4863081  19.1937435  77.3389626  69.7730780
  20.5272436  76.7444563  70.1722336  81.7770195  31.6493440  16.7160130
  82.4481201  31.5483785  16.0409868  81.9648361  32.4987650  17.1153176
 109.5256519  34.3156457  63.2767725 109.4245529  33.7177205  64.0173769
 108.8486290  34.0452385  62.6564884  91.5742683   3.6778739   1.8227991
  91.6248989   2.8240079   2.2524287  90.7743740   3.6352909   1.2987961
 100.0536537  20.3917837  26.7734528 100.5608654  19.8191035  27.3487830
  99.1819286  19.9970675  26.7505813 113.8109112  66.8881416  76.4316702
 114.6164417  66.5825272  76.0145807 113.5539150  66.1706114  77.0107508
  11.1381459  77.0049763  81.4785004  12.0293713  76.9096613  81.1425495
  11.2096047  77.6720810  82.1612167  30.2922606  75.7207251  61.5612173
  29.8563719  76.3508034  62.1350050  31.0165048  76.2115383  61.1728811
  22.1162510  44.6748495  72.0276117  22.6236057  43.8697147  71.9247580
  21.5956545  44.5305967  72.8178024   8.4116012  80.5994606  68.7132978
   7.4858230  80.7582092  68.8975954   8.5311812  80.8989143  67.8120470
  77.1904564   9.5853031   4.2275935  77.7309752  10.3293943   4.4929239
  76.6218519   9.4219172   4.9800718   8.8192201  70.8364058  58.3880711
   8.3410203  71.4514446  58.9442062   8.2260656  70.0916433  58.2894468
 114.8475075  57.2732353  77.0656681 115.4730034  57.4987316  77.7542496
 115.3856754  56.9075012  76.3636351  31.5247965  91.3890648  93.0485058
  31.1591434  91.1613846  92.1936989  31.0143161  90.8730602  93.6725140
  51.4407206 109.5499706  10.8848345  50.7961655 109.1931915  11.4959669
  52.2369957 109.6482182  11.4068770  16.4605534  43.0443478  68.8769341
  17.1009016  43.7204361  69.0984964  16.2550735  42.6258993  69.7129440
   5.4662102  37.7711797  75.4910040   5.3782874  38.5659289  76.0171938
   4.5989662  37.3671484  75.5206394   2.1734875  98.8424873  79.5912027
   2.5495240  99.4339371  78.9392757   1.8410912  99.4218826  80.2767944
   7.6566875  82.9498672  78.1768751   8.4350443  82.5246525  78.5368538
   7.9950696  83.7157249  77.7129936  10.5276370  82.6959801  93.5931587
  10.7162857  82.7294922  92.6553345  11.3751900  82.8420830  94.0133286
  23.5601044  90.8401108  79.1374159  22.8652239  90.6702805  79.7734451
  23.2512307  91.5987015  78.6420631  29.7089791  69.5881891  43.9733076
  28.7988949  69.8535872  44.1057396  30.0095034  70.1219320  43.2377529
  58.3371258   2.1992931  68.2703733  57.9609346   2.8720307  68.8379431
  59.0114450   2.6582000  67.7694464  15.0374341 109.0072918   3.3686647
  15.6429255 108.4845257   3.8943362  15.5967999 109.4565868   2.7350464
  43.4539086   0.5456112   0.3780888  42.5598106   0.8870075   0.3944434
  43.4087479  -0.2682354   0.8799288  17.3085070  90.5132675  72.4500322
  17.5338972  89.5831966  72.4302721  17.2493899  90.7650185  71.5284252
  31.9111156  52.6183891  92.0629978  31.0132790  52.9335690  92.1668339
  31.9355106  52.2516727  91.1791706  19.0893531  65.0512123  84.9091816
  18.4770739  65.0807428  84.1740131  19.1785610  65.9639454  85.1833916
   7.8870815  78.8766766  59.4842911   8.1030071  78.2111216  58.8311100
   7.4289471  78.3959484  60.1736689   0.7812545  21.6869569  13.1346655
   0.8333905  21.2418985  12.2888303   0.8535100  22.6171398  12.9207253
  22.3732805  87.9842758  95.3236294  22.0765376  88.8352871  95.6460571
  23.2294059  88.1611252  94.9337482  89.2553997  91.0842514   8.7821120
  89.5038986  91.8966675   9.2230874  89.2228508  91.3158321   7.8539181
  92.0737839  41.7303085   0.7300136  93.0085564  41.6624737   0.5354989
  92.0039368  42.4900961   1.3080116  99.9506950  44.1401577   8.1719047
  99.3455029  44.4777870   8.8321888 100.0112820  43.2034206   8.3592099
  19.6242416 101.6793060  77.4625158  20.3950882 101.1206055  77.3631096
  18.8819528 101.0855675  77.3497581 115.4261494  65.0022125  57.8703022
 115.6071949  64.2089128  58.3744144 114.5770073  65.3030252  58.1938601
  17.5045669  80.8067322  78.0437088  17.4758935  80.4933739  78.9477062
  17.4973905  80.0097466  77.5136137  24.2267013  37.0343590  87.8081226
  24.9348783  37.0226908  88.4520054  23.7313199  37.8278017  88.0112934
   7.2725892  79.8022795  80.2788925   7.2244161  78.8915110  80.5694294
   7.1535563  80.3152752  81.0782051  63.0937624 102.1888351   1.5574165
  62.8780460 103.1201172   1.5083486  63.1933069 102.0150375   2.4934271
 112.3893166  21.9401717   7.3594487 111.5683842  22.2888613   7.0120049
 112.1210098  21.3648248   8.0758411  77.7479601 106.9943619  22.1174312
  78.5093403 107.0520782  21.5401959  78.1012726 107.1394157  22.9951334
  15.8373678  59.6297741  90.5040932  14.8921311  59.7282076  90.6184196
  15.9577644  59.5564795  89.5573330  85.2328205  60.2515459   9.4048196
  85.6914520  60.9168196   8.8916892  85.1950264  59.4883442   8.8283402
 117.8483295  89.6208668  62.4538565 118.1147861  90.0660896  63.2582188
 118.3032417  88.7792206  62.4839973  50.0373781   1.1501167  87.5531006
  50.2128089   0.2220581  87.3976421  49.5143712   1.1640213  88.3546543
  54.9543762  28.6640930  21.5463471  54.0065289  28.5418773  21.6000342
  55.0952625  29.0720034  20.6919527 116.7735672  65.1812792  51.9998884
 117.6700401  65.1860619  51.6644001 116.8158436  65.6994200  52.8036165
  15.4450762 105.8076286  71.5599680  15.7953763 105.7853603  70.6694460
  15.4560459 104.8937798  71.8445730  13.0005217  82.8146744  86.0614777
  13.3820462  82.6645470  85.1965332  13.5403180  82.2928238  86.6552162
   8.0792075  99.8240757  87.7201557   7.7821338 100.5811024  88.2250214
   7.6083064  99.8904419  86.8894482  36.0145855 108.7292385   6.7873883
  35.2767587 109.1074753   7.2656947  35.6394601 108.4456539   5.9536648
 106.7373276  44.3616724   5.3317511 106.2377739  44.2804193   4.5193008
 107.3168087  43.5998154   5.3338230  90.2518082  14.5484090  19.7571862
  90.9413719  13.8959551  19.8798430  90.3848267  15.1742148  20.4691601
  31.3606668  94.0304661  73.8130760  30.5185437  94.4792271  73.7377548
  31.1550713  93.1081486  73.6604214 102.0848179  21.8107867   8.3499908
 102.8458118  21.8571401   7.7712202 102.1417141  22.6029015   8.8843584
  83.1587124  16.9560862   3.7162828  82.2343063  17.0585799   3.9425343
  83.6125946  17.5919163   4.2694047 111.3219357  41.7212200  94.8422623
 112.2137547  41.8819809  95.1505375 110.8108711  41.5966892  95.6419754
  11.9404519  70.7486010  53.9221191  11.5523434  71.0034657  54.7591686
  12.0304036  69.7973728  53.9795589  32.2142911  85.0246143  63.8422489
  31.4672947  85.2919197  64.3777609  32.8508854  84.6853924  64.4714594
  26.4859819  92.3556519  43.9242268  26.1523938  92.2543621  43.0327702
  25.7158279  92.2462940  44.4820261  15.4004037  73.4341621  58.2599688
  15.7263458  74.1754770  57.7496290  15.7538903  73.5742140  59.1384125
  14.2445576  78.0074215  35.6732798  14.6217644  78.5876179  36.3345814
  14.9932730  77.5247717  35.3229856  20.4790568  92.3634243  89.4368172
  21.0716796  91.6660213  89.1563511  20.2897906  92.1627140  90.3534031
  96.6172218   5.5616653  23.2403159  96.6302013   4.7344646  22.7588558
  96.5136528   6.2309182  22.5638485  24.4481134  85.5341625  86.1262321
  24.5826530  85.6764317  85.1892757  23.7435317  84.8878384  86.1716080
  71.2222862   5.4658985  50.0858355  71.3870335   4.7539920  50.7041216
  70.9645033   6.2058067  50.6356716  22.1564889  87.2050667  65.8484221
  22.3331809  87.7388000  66.6231108  22.5315309  87.7043438  65.1229572
 101.2502861  76.4436960  87.2716713 101.8747520  77.1318197  87.0419979
 100.3918362  76.8514633  87.1575260  10.0206792  64.1846561  86.0727024
  10.4318666  63.3274603  86.1839390   9.1725814  64.1018677  86.5087223
  84.8218346   7.5020432  23.2829523  85.0610352   7.0198536  22.4914312
  84.0565872   8.0171877  23.0275130  17.0139694  56.2815046  54.2563581
  16.5168178  55.8391380  54.9443865  17.8611696  56.4731646  54.6585369
  26.4981842  49.6068192  68.3672667  26.2801313  49.6252775  67.4354172
  27.1840763  48.9430857  68.4396505  -0.1084531   3.6107895  80.4512215
   0.6514250   4.1908425  80.4027557   0.0383555   3.0891407  81.2402439
   8.0257034  73.4100389  82.1545029   7.8716201  73.6334753  83.0724144
   7.2010851  73.0229712  81.8605423  17.2461200  85.9232712  57.0974874
  17.3154688  85.2370739  57.7612305  17.9338610  86.5484047  57.3265123
  28.0571580  86.9479465  59.6686172  28.4553146  87.0019054  60.5374050
  27.8227282  87.8513336  59.4560671  -0.0006307  86.2464809  70.8976555
   0.9065138  86.5306187  71.0098171  -0.2920259  86.0211658  71.7811441
  22.0701694  81.2917995  92.0208645  22.5969815  80.6374645  91.5620136
  22.5364566  82.1159077  91.8806458  18.9310634 100.0177097  86.0624123
  19.5742762  99.3632698  86.3348389  18.2453799  99.9714661  86.7286968
 106.4351273  38.3455610   7.3155040 107.1029282  39.0134001   7.4712986
 105.9787655  38.2632661   8.1528747   8.7535751  90.3609943  81.2379265
   8.9163888  91.2924290  81.0890675   8.4959388  90.0228310  80.3803062
  31.1215043  93.8056755  89.1040897  31.5421867  93.5023975  89.9086285
  30.8111024  94.6865940  89.3134975  83.4741688  78.4466791  84.5445633
  82.5418186  78.2667255  84.4238853  83.5500336  78.7132597  85.4607582
   0.4183714  63.4608364  69.2849493   0.3907846  64.1802359  69.9157667
  -0.4301069  63.4968472  68.8433361   7.6759756  95.2118778  82.6590919
   8.5727400  94.9389935  82.8529453   7.7614343  95.7995796  81.9084072
 110.7950974  61.5120983  66.7545128 110.1112938  61.5919638  67.4195480
 111.3483334  62.2820473  66.8861675  42.8141308  91.8967342  89.6163368
  42.0260334  91.9192123  89.0735435  43.2191181  91.0529423  89.4157600
  13.0784535  63.3823109  56.7949867  12.2097206  63.4385490  56.3970232
  12.9578614  62.8111982  57.5536156  10.9448040  92.6874638  71.6783333
  11.3139176  93.5545444  71.5105057  10.0302553  92.8562450  71.9049358
 114.3403339  23.0122447   1.6755860 113.5681343  22.8911948   2.2281159
 115.0810146  22.8590751   2.2622451  42.1855211  80.0673676  52.4127483
  41.4191723  80.1606464  51.8468523  42.3449039  80.9498501  52.7475023
  89.8170280  27.8705740  23.7989235  90.7477093  28.0186057  23.9667058
  89.4640923  28.7423682  23.6210418 116.5285492  17.8177917  16.8023634
 115.9925365  18.6086881  16.7439985 116.8371201  17.8039026  17.7083552
   8.4741056  85.1585865  85.3446960   8.0926901  85.8397293  84.7908115
   7.8479558  85.0539303  86.0610867   2.0523101  71.6472578  90.9708786
   1.2888192  72.1422052  91.2680912   2.7845600  72.0176888  91.4636421
  69.9907160 104.9954605   3.2362908  69.5795012 104.6091080   4.0095094
  70.1917171 104.2479706   2.6731881  18.1007361  86.5170956  75.2261591
  18.7674749  87.0945549  75.5979395  17.3626304  86.5821552  75.8321285
 106.6737270  35.3420353   7.3458922 106.3775826  35.3626680   8.2558948
 106.0955143  35.9550476   6.8918908  73.0187750  16.1776936  42.9711151
  73.8773012  16.3235366  42.5737572  72.8932905  15.2296877  42.9290152
  99.4088364   9.0953797   5.0431174  98.9742184   9.5343286   4.3119130
  98.9048004   8.2922500   5.1741242 110.1242352  45.2970409   4.4037020
 109.6356773  46.0871840   4.6343961 110.1888084  45.3255272   3.4491077
   9.3793476  99.2078495  77.2983122   9.8781997  99.8109722  77.8493357
   8.4801781  99.2786407  77.6188087  34.5593476  76.6739607  81.5983295
  35.3475571  76.9511604  82.0653629  34.1239071  76.0705853  82.2004604
  10.4064274  87.5350571  68.7264490   9.8486412  88.2416725  69.0517187
  11.2779975  87.9262161  68.6664820  63.4055090  97.2885513  15.7917750
  63.1252480  97.8897285  16.4818990  64.3583727  97.2544956  15.8761990
  13.3795083  70.3645992  84.1908455  13.7968183  69.5456457  84.4580555
  13.3586884  70.3219986  83.2348251  38.8063002  97.1444130  84.4300461
  39.2750645  96.3414764  84.2024612  38.9666128  97.7326870  83.6921597
 109.6562290  56.2164450  90.1795387 109.6375656  55.3951502  89.6882534
 110.3366661  56.7361307  89.7515583 103.2902813  35.4139280   5.5742812
 104.0304947  35.9922910   5.3904057 103.3749390  34.7060943   4.9355030
  32.1795154  33.5749936  92.6881123  32.7295375  33.5046911  93.4683514
  32.2888780  34.4808483  92.3988056 114.8307133  32.8650022  21.8944263
 115.0684452  32.6592374  20.9903383 114.9793053  32.0492935  22.3727298
   1.0713939 106.2307262  88.3938503   1.6213638 106.9614601  88.6763096
   0.1871303 106.4779186  88.6644173 115.1733685  94.3720150  70.7173443
 114.8907852  93.4982681  70.9874439 115.8878040  94.2126751  70.1005602
  90.6649399  11.2179947  16.6331732  89.9738693  10.9749234  17.2492731
  90.5303478  12.1530640  16.4790130  97.7024746   7.3080677   3.8906091
  98.0334282   6.7004597   3.2291603  96.8482208   6.9528103   4.1361329
  58.2738018   8.3552241  67.7091742  58.8051510   8.2849193  66.9161081
  58.7832594   8.9208812  68.2894468   5.8191907 109.1728401  72.5445890
   5.5482131 109.3814564  71.6505623   6.6789222 109.5835590  72.6362801
 113.2762718  81.7842770  95.2768230 112.6484013  82.2922802  94.7630596
 112.9252815  81.7996502  96.1672115 113.4588528  92.8375149  53.4175110
 113.9541626  93.3683014  52.7936792 113.6879921  93.1983566  54.2739677
  29.1782975  22.1850491  74.2395163  28.5954428  21.8917155  74.9398518
  29.5840192  21.3817763  73.9133692  92.7709961  29.8108363   2.2216877
  93.7106800  29.9224567   2.0776238  92.3683739  30.5422688   1.7535719
  16.4196050  76.9359255  72.9977560  15.8690202  77.0083427  72.2181082
  15.8423126  77.1777773  73.7219572 101.6352749  70.8017111   1.7055938
 102.0005417  70.4278517   2.5074899 102.3708916  70.8206177   1.0934311
   4.5353323  20.3162336   0.4196437   4.9878222  20.7048512   1.1682832
   5.1499271  19.6660173   0.0794627  30.1091123  74.3613768  83.3927631
  29.6662092  74.6452951  84.1924191  29.4224572  74.3610334  82.7258778
   7.1790826  76.9067001  90.3837872   7.2151047  76.3234854  91.1419392
   6.4877725  76.5402794  89.8323727  10.8169806  74.3201828  69.3227482
  11.6967559  74.6320438  69.5348072  10.8197558  73.3994007  69.5842600
  16.1629534  68.8782597  92.2155094  17.0789373  69.0093040  91.9704914
  16.0641575  69.3575144  93.0381775 116.0263157 104.0386963  59.0315819
 116.8401337 104.5050907  58.8407707 115.3855228 104.4196033  58.4311295
  50.1171780 101.4350891  57.4515676  50.4391193 100.9876251  56.6690302
  50.5975819 102.2628212  57.4688721  96.3545609  30.9768248  25.4688501
  95.6549358  31.1018276  26.1100411  95.9170055  31.0461307  24.6203423
  55.3500700  90.7150555  32.9377794  54.8180056  90.0575066  32.4897027
  55.7404327  91.2293720  32.2311497   6.3440341  71.2229776  86.8831635
   6.4710194  72.1643734  86.7653656   7.1054280  70.8240414  86.4620209
  83.4054279  56.2687874  52.7342844  83.0079079  56.2278891  53.6040783
  84.3280125  56.4614677  52.9014111 110.9095001  83.1427002  60.4873753
 111.0425663  83.9291286  59.9581766 111.7911339  82.8798962  60.7517338
  41.1712265  84.3583488  82.8946972  41.7114735  83.6753368  83.2920074
  41.1346626  85.0496292  83.5557747  16.7409825  69.8950577  81.0995865
  16.0863400  69.8248529  80.4047871  17.5282860  69.4972229  80.7279587
  16.3845396  81.3585567  90.7736015  17.3401439  81.3778019  90.8253956
  16.1651146  80.4273891  90.7416153  84.0063572  69.5220375  70.8234978
  83.5166931  70.3357887  70.7040167  83.6656284  69.1550493  71.6392517
  12.3107970 110.6829071  96.4473152  11.6302359 110.2361107  95.9438801
  11.8340826 111.1459541  97.1362019  30.3337193  91.6348743  73.5104799
  30.2352619  91.5371609  72.5633860  30.5533934  90.7562637  73.8203573
  82.6273632  40.4067612   3.5020989  81.7987251  39.9850154   3.7295252
  82.5473976  40.6042528   2.5689143  81.6522598  27.2770786   6.4726216
  81.0998154  26.6302848   6.9115925  82.4964046  26.8384719   6.3664520
  30.0206017 100.9916401  94.6981716  29.9429750 100.1431656  95.1344109
  29.5484114 100.8807659  93.8729572  82.5925350   0.4240096  78.2471085
  82.8487682  -0.0469493  77.4541569  81.9433212  -0.1430684  78.6632442
 112.4238682  96.9274330  74.3457127 112.9167747  96.4410973  75.0065804
 112.9637432  97.6961803  74.1618729  94.0226936  56.9048834  61.0996532
  93.2847118  56.6442966  60.5485535  93.7488937  56.6796923  61.9887829
  31.3081384  89.3626118  87.9549789  31.0945630  88.7144566  87.2837830
  31.2413955  90.2046299  87.5046635  31.1727905  78.4199715  86.1879063
  30.3202128  78.1118202  86.4951324  30.9765983  78.9117527  85.3904819
   7.9019463  58.6624670  81.0805893   8.5677618  58.0179787  80.8406734
   8.0690944  59.4063187  80.5018139  17.7572811  92.4556923  76.4441013
  17.1395600  92.4997425  75.7142305  18.5937202  92.7280903  76.0667372
  92.9006672  48.5440969  10.1535130  92.3358822  49.0432549   9.5635194
  93.7339592  48.4766674   9.6873558  36.7181802 100.0113583  61.8497610
  36.0746121 100.4629040  62.3957968  36.2085581  99.6604633  61.1194229
 101.8253231  18.2103944  12.8038645 101.3164139  18.4126079  13.5889447
 102.7318859  18.1739223  13.1088984  25.2563715 101.1155510  59.8918247
  24.4455981 101.6178894  59.8109913  25.0513315 100.4306412  60.5282974
   4.0280166  23.7742567  11.9458938   4.1697690  23.6241269  11.0112286
   4.5936069  24.5168805  12.1576750 103.4744835  95.5153179  73.1728172
 102.8149509  94.8273087  73.2616520 103.6840248  95.5270767  72.2389078
  62.5944090  68.2803488  81.1364746  62.6435232  67.6663876  80.4037666
  61.6609621  68.4725094  81.2257862  24.3634939  84.9857616  82.3134327
  24.6644330  85.8684731  82.0978069  23.4149647  85.0725746  82.4082375
  27.8690267  61.6828012   5.0747234  27.1340108  62.2727919   4.9077222
  28.5958457  62.0592213   4.5784631   2.2530424 111.8066498  71.5805340
   2.3561966 111.2477028  72.3507071   2.3312962 111.2078933  70.8378363
  20.6542802  78.4730434  79.3142748  20.1835513  77.8989983  78.7100267
  21.5458250  78.5063839  78.9674759 117.6210594  72.2306919  79.1242361
 116.8019009  72.4670458  78.6890888 117.6106262  72.7290249  79.9414158
  98.9198017   0.9171122  10.5711567  98.2515526   1.3593830  11.0946786
  99.7255325   1.4007410  10.7531464  41.0076380  26.8619227  67.5705338
  41.0086441  27.4663782  68.3127356  41.1053896  27.4251747  66.8027925
  48.7978745  87.3448563  49.9060059  49.1095686  86.4409256  49.8613501
  49.5475769  87.8707600  49.6274281 112.6529408  59.2875719  27.6085734
 111.9244957  58.6927414  27.7868342 113.2667065  58.7662792  27.0910954
  40.3823519  79.0282726  81.7590237  39.5357680  78.5831642  81.7965794
  40.7283258  78.9603853  82.6489258  36.9976664  82.1661854  90.1623344
  37.7949858  82.1781349  89.6328354  36.3235402  82.5300694  89.5884228
  38.2334828  83.4582806  81.8487167  38.5894322  82.8298569  81.2205410
  38.9049101  83.5246944  82.5276947  45.5999327  95.6626606  77.0056581
  44.7727108  95.7191944  76.5274000  46.0483599  96.4845467  76.8065548
  37.9943132  75.3065825  44.5575857  38.4498358  75.6070423  43.7711668
  38.2915902  74.4045401  44.6766710  83.2496548  60.9261465  25.7428646
  84.0849686  60.4588652  25.7544065  82.7272701  60.4667139  25.0853944
  38.9911604   2.1297087  82.1068668  39.6105218   2.6910943  82.5732040
  39.3585372   2.0470262  81.2268543 102.5030994  86.5799713  84.3040943
 101.8887806  86.4641285  83.5792351 102.0640850  87.1921635  84.8946190
  80.6287670  20.6651711  22.4744558  80.0444984  20.0313091  22.8904843
  80.6338692  21.4137077  23.0710268  65.7373857   0.8794720  64.5707846
  66.2564993   1.4474326  65.1401472  66.3151503   0.1410761  64.3779325
 104.3698120  44.3842220  13.1618083 104.8582649  44.1515732  13.9514434
 103.9242363  45.2007294  13.3876634  84.9926662  61.4861345   2.1618578
  85.7749271  61.9544220   2.4534144  84.3543530  62.1759224   1.9802254
 101.6118050  22.9995418  16.0307992 102.2392845  23.4218907  15.4441762
 100.8720589  23.6059260  16.0669267  66.0646582  99.2663670  81.3388729
  66.8752337  99.4884300  80.8807468  65.9786177  98.3195019  81.2281132
  21.3600183  83.7372684  54.2452383  21.1828852  83.2318783  55.0386095
  22.0365000  83.2370949  53.7886906 105.0415134  20.6974292   7.6060474
 104.8507786  19.8758447   8.0586553 104.5009327  20.6671143   6.8166858
 117.4962902  80.4488754  96.2373352 117.1471405  80.3038216  97.1167088
 116.9911957  79.8581362  95.6786442 114.7251606  81.4511490  92.6863670
 114.5830154  81.1208820  93.5734653 113.8877869  81.8440247  92.4400043
 115.2872562  74.5465422  70.1075220 115.8718491  74.5137596  69.3502808
 115.5329609  75.3505564  70.5651522   7.8918046  24.7418880  18.1072772
   7.0754158  24.4193578  17.7255499   8.4382403  23.9613271  18.1987345
  42.9863739  98.8249588  89.7660923  43.5853815  99.3850613  89.2724323
  42.2952414  98.6044121  89.1416550  84.1637230  19.8920393  28.5286641
  84.2147255  19.2167115  29.2050982  84.7685528  20.5727386  28.8237190
  34.0905213  91.0139561  96.0176754  34.4261789  91.6169071  96.6810131
  34.8725319  90.5995750  95.6530094  55.5607653  94.6083927  82.6502991
  56.2810230  94.6058083  83.2807446  55.1687813  93.7388611  82.7309132
  20.9161305  88.0568314  89.7387981  21.4405179  88.4814644  90.4177189
  20.5282331  87.2983074  90.1751423  24.6051908  77.3964405  96.5495300
  24.7047162  78.3033895  96.8389606  25.4611301  77.1647549  96.1890888
  95.6826973  45.1668453  11.5803254  96.1231518  44.5609379  12.1762323
  94.8319435  44.7615862  11.4123547  39.0292096  93.7696648  84.9429131
  39.9552393  93.8697147  85.1635742  38.9733839  94.0254879  84.0222168
  32.0291495  73.4539890  81.8412399  31.2161517  73.8590431  82.1432209
  32.5910950  73.4383011  82.6159668   5.6083894  73.9922190  73.7425137
   5.8703148  73.3477020  73.0850744   4.6780479  73.8208580  73.8885689
  22.4882436  45.6451225  -0.0590619  22.4748659  45.1406336   0.7542910
  22.2036123  46.5220356   0.1983004  48.0723763 110.9160519  69.5563173
  47.6901579 111.7536831  69.8180532  47.3211670 110.3768730  69.3089056
  16.4226115 109.2344475  84.9713039  16.0134053 109.0190125  84.1332245
  15.7093978 109.5895863  85.5018044  29.6567345  46.9850969  11.3882375
  30.2501583  46.3451099  10.9951758  30.0129461  47.1358728  12.2638011
  63.1555128   1.5572001  93.7478256  63.1085443   0.6058706  93.8426876
  63.9623117   1.7092863  93.2557106  27.7422404  86.1038971  71.0876799
  27.8688693  87.0284653  71.3006783  28.4004855  85.9201908  70.4174566
   5.3527719 107.6583385  95.9927750   4.7123629 106.9870853  96.2284184
   4.8307765 108.4479809  95.8506298  70.8743143  11.2884784   5.7353169
  70.6468964  12.2109890   5.8514559  70.0353670  10.8516288   5.5884773
  39.2614055  81.1146736  80.2854919  39.3218684  80.7019997  79.4239426
  39.8344946  80.5890083  80.8436012  46.2323666 102.8239059  71.8481445
  47.1821117 102.7073765  71.8734598  46.0501242 103.1116104  70.9535789
   8.6399710  90.6176853  60.6114912   7.8407764  90.0975418  60.5279922
   9.2349297  90.2491283  59.9584818   9.2832291  11.2233880   0.4860849
   8.3769047  11.0071138   0.2669305   9.8078501  10.6336930  -0.0554591
  56.0170555 109.5888901  20.2634263  56.4345980 109.8584557  21.0814857
  55.1282072 109.9393559  20.3213644  31.7241693 108.2864571  66.9018936
  32.0358014 108.2377052  65.9981585  32.4772859 108.0208015  67.4295998
 115.0751209  31.0802674   0.9187959 115.5678940  30.8792639   0.1231835
 114.1601849  31.0904622   0.6376929  32.0214272  95.5550766  83.0026531
  31.2434793  95.1725864  83.4085178  32.2405863  94.9535942  82.2910213
  77.5330591  32.8119421   4.3442640  78.1603193  33.4442759   4.6948698
  76.6800880  33.1337380   4.6360230  93.3204079   6.8073487  63.2044649
  92.4115658   6.6386408  63.4530258  93.2764244   7.5864172  62.6500750
  98.6288834  20.0016618  12.1258724  97.8510189  20.5300283  12.3047161
  98.3933163  19.1215801  12.4194694  16.3906550 104.8193550  52.7111435
  16.3625312 103.9364719  53.0798531  16.3547075 105.3981972  53.4726477
  27.1858835   9.9796855  70.9988832  26.7400980  10.0035596  71.8456030
  26.8165183  10.7169700  70.5128670  12.7949250  82.6243496  65.1795578
  12.1159613  83.2984734  65.1513052  13.5599220  83.0700016  65.5434322
  88.6638641   9.7301441  62.6609278  88.3156490  10.5496812  62.3097324
  88.0153847   9.4520503  63.3077431 109.0439796   8.3323133  82.2649765
 109.8570824   8.6506653  82.6570892 109.0789223   8.6389512  81.3589001
   7.6920903  12.8829145   7.6373655   8.0371433  13.7569678   7.4551535
   7.0743018  13.0144370   8.3565807  11.7043400  69.9683905  95.6063938
  11.3187957  70.2634335  96.4313412  10.9525836  69.7752476  95.0462246
   9.7518301  81.1995697  79.0059900   8.9001131  80.7665157  79.0632582
  10.2968264  80.5910873  78.5070181  39.0180206  92.0489311  95.1922417
  38.9255619  91.9306755  94.2468929  39.9380684  92.2824574  95.3155613
  38.9928913  54.2169571   9.1320169  38.4399772  53.4490871   8.9874703
  39.8864388  53.8939714   9.0158904  97.8554535  32.0935869   2.2120474
  97.1092987  31.5061402   2.0920554  98.5561562  31.7000556   1.6920701
  25.7177520 109.1163254  73.7551641  25.3838682 108.5041618  74.4109154
  25.2878332 109.9462986  73.9614487  52.7253628 101.5070057  73.4446239
  52.8145170 101.3999367  74.3916273  52.4787855 100.6381702  73.1275177
  33.2415080  94.0403080  75.8624887  32.6451612  94.1776657  75.1264572
  32.7115488  93.5882282  76.5189886  26.2629557 105.0909996  89.9304962
  25.6200171 104.9335384  90.6219196  25.9699392 105.8997631  89.5106316
  14.2288196 109.5743275  65.8017015  14.8086369 109.0892696  66.3888645
  13.3499885 109.2691135  66.0269451  13.2927895  98.1833076  90.3657818
  13.7118328  97.3230553  90.3409863  12.8131258  98.2399750  89.5393753
  93.6270046  16.3610077  10.3534269  92.9233265  16.0641921  10.9304607
  93.4263992  15.9625649   9.5065320  48.2110786 102.1312904  90.8999252
  48.4354162 101.2692642  91.2503719  49.0356302 102.4700928  90.5512810
  16.9929886  94.4290829  81.2993050  16.5657640  93.7668037  81.8425274
  16.2740386  94.9669838  80.9676361 107.6004219  87.4364471   3.8285252
 108.4470081  87.7819633   3.5454404 107.6659393  86.4927292   3.6824661
  11.2612116  79.6070385  77.4501896  11.2131596  78.6618519  77.5935078
  12.1951139  79.7853184  77.3393917  82.1296883  71.1792088  81.8009186
  81.1864185  71.1129427  81.6523266  82.2089958  71.4799404  82.7061844
  87.0292759  63.2748652   3.0945688  86.7454338  64.1358137   2.7872729
  87.5442123  63.4587669   3.8802263  41.0644197  88.7772369  62.0107937
  40.9719992  89.6999931  61.7737341  41.0851049  88.7767029  62.9677725
  15.9379864  70.2122498  72.8674698  15.7669437  69.3918419  72.4049711
  16.7316067  70.0405025  73.3743238 115.2752686  34.4256687   4.7098783
 114.9115467  33.5827971   4.4387642 114.8968029  35.0576067   4.0986088
  38.9744329 110.9909630  69.1760445  38.6517930 110.1837540  68.7753534
  38.1853533 111.5043163  69.3494225  30.9659719  91.0360336  48.9609480
  31.4516497  90.7488060  48.1877422  31.6067243  91.0052109  49.6713829
   1.7019480  27.7031803   1.3170108   1.9002521  27.8200793   0.3879029
   0.7464946  27.7367473   1.3640611  96.9990158  65.5269909  12.2467744
  97.0660686  65.0543928  11.4170837  96.0798836  65.4387712  12.4990666
  91.5002060   8.9547098  84.4943714  92.2114086   9.5951182  84.5118809
  91.8528271   8.1925631  84.9537468  89.7304249  24.9825454  19.1657472
  90.5332947  24.4755149  19.0451598  89.0602112  24.3272758  19.3598509
 106.9781971  39.3046355   4.3699634 106.9830227  39.7053385   3.5006851
 106.8733215  40.0409412   4.9725276   6.8777728  94.6674061  65.4661226
   6.5120226  95.4104614  65.9460449   7.0580500  95.0124073  64.5916510
  19.2248058 102.5455761  67.9614687  20.0815487 102.9383278  68.1287146
  19.2446959 101.7155933  68.4378767  41.0761690 105.0981998  63.8695621
  40.1251364 105.0328827  63.9561987  41.2134457 105.8567619  63.3021355
 102.1187687  64.9901104  85.4171276 102.6698017  65.7723427  85.3903484
 102.0336914  64.7888613  86.3490582 117.0686531  49.7754478  86.1089325
 117.4445915  49.2993546  85.3685093 116.1356258  49.5635366  86.0810947
  15.1527727  48.0505180   9.3216580  15.9982920  48.1554222   8.8853943
  15.3483951  47.5308561  10.1013470 118.0340549  88.9872551  79.5901680
 118.2195364  88.0637646  79.7604370 117.1183124  89.0002632  79.3118143
  97.5141907  39.8045254  26.9319820  98.4576893  39.9349880  26.8369961
  97.1290112  40.6397009  26.6667509   4.7899184  64.8082018  73.7379408
   4.7863153  64.6176291  74.6759701   4.1845939  64.1694117  73.3614302
  35.6459260  85.4608154  65.1007700  35.6796384  85.4939842  64.1447401
  34.9277973  84.8582745  65.2943468  65.4618979   1.3870983  78.3238983
  65.4790974   0.6943125  77.6636076  64.6211720   1.2744209  78.7674284
 113.8624191   3.1133100   1.7455958 114.3869019   3.0928227   0.9451424
 113.9157963   2.2217378   2.0898069 114.7531509  21.2220049  29.9193120
 113.9668560  20.9132266  30.3694558 115.4780102  20.8395481  30.4138136
  54.5358896  83.8947678  78.7176418  55.2558947  84.0085506  79.3380213
  54.4259214  84.7573471  78.3175135  19.7860622  42.9678488  92.4666977
  20.5034471  43.4110832  92.9196167  19.6264482  42.1791887  92.9851246
  14.4736540  78.6433744  92.8271294  14.5349014  78.3878040  91.9067097
  15.3705764  78.8698864  93.0729961  53.3354759  89.8495579  85.0109482
  53.1297016  90.7302666  85.3243732  53.9550543  89.5051003  85.6541538
  17.2259665  82.0244789  53.4796810  16.8896186  81.5075302  52.7476549
  18.0905235  82.3157310  53.1899500   4.9473247  76.6720819  95.2737236
   5.5089056  75.9170246  95.0983620   4.3202397  76.3580275  95.9251499
  78.2376337   4.6282575  73.5795498  78.6836195   4.2087859  72.8437710
  77.9880285   3.9036071  74.1529751  71.8058395  11.2488866  15.5424464
  71.9483757  10.3710020  15.1885617  71.6203308  11.7894506  14.7745860
  43.6348438  89.2375183  89.5341110  44.1373062  88.6813259  90.1294327
  42.7744961  88.8207436  89.4857788  41.3541365 108.7987518  57.4212742
  42.2484779 108.5861874  57.6881075  41.4384031 109.0935802  56.5145206
  30.1925874  84.3317032  84.4478416  29.6530294  83.9017963  85.1113796
  30.8960199  84.7492790  84.9448776  80.7547188   4.0138677  82.1962833
  81.4685345   3.4019098  82.0168209  80.3070641   3.6432874  82.9568863
 116.5661716  49.6459675   6.9383019 117.2888470  49.0203094   6.8881136
 116.1111832  49.4217396   7.7500504  66.5941191   3.7395251  94.7291470
  67.4917841   4.0067825  94.5316505  66.2299585   4.4720876  95.2261066
  72.9496717   8.1236029  87.7954865  72.3080301   7.4383312  87.6085949
  72.4237061   8.9077139  87.9528522  50.2864218  96.6854572  83.4646988
  51.0971308  96.2807369  83.1561852  50.4272127  96.8194771  84.4019604
   5.4044729  94.7771072  83.9519119   6.2923956  94.9003124  83.6162853
   4.9207824  95.5400753  83.6354351  72.8787041  18.7972605   9.3958616
  72.5505447  19.4109035  10.0531161  73.5199404  18.2637370   9.8653311
  14.5973754  37.1542597  11.9184017  14.0627146  37.1100140  11.1256778
  14.9376082  38.0488992  11.9282007  54.9791718  20.4440856  83.2239532
  55.8953142  20.1938629  83.1043625  54.5250463  20.0547791  82.4766636
 105.3127956  86.4787865  86.1955833 105.7801533  86.2147903  86.9881153
 104.6113491  85.8337975  86.1050987 117.5054455  75.4209566  50.7813740
 117.2254467  74.7243595  50.1875830 118.3637905  75.6864643  50.4512501
  37.5171518  98.9610100  76.5512562  37.8855205  99.5567322  77.2036743
  36.5743089  99.1228008  76.5844727  13.2093120  13.9259017  29.1534734
  12.6696301  13.7292016  28.3877826  12.5977552  13.9041758  29.8895144
  10.5328059  35.7195234   7.3270249  10.1711619  35.4469013   8.1703055
   9.7754639  35.7584214   6.7429441  94.9494076  72.3059416  21.6932726
  95.7884216  71.9407034  21.4124084  94.8127460  71.9458389  22.5695610
  92.2790718  26.8236947  63.6956072  93.1158447  26.7359519  64.1520405
  91.8121815  26.0117793  63.8931894  36.7365575  79.6752501  81.2642956
  37.1185255  78.8771200  81.6294384  37.4409246  80.0614643  80.7437801
  97.8877831  13.1230223   3.2544103  98.7129021  12.8379858   3.6470374
  97.5424671  12.3391700   2.8271315  29.6406913 110.7343197  87.2057915
  28.9772058 110.8493900  86.5255165  29.6170187 109.7989559  87.4076748
 112.8107357  15.9280419   2.6372844 111.8617725  16.0467172   2.6775357
 112.9283714  14.9922466   2.4739370   7.0030153  58.3077049   9.8492038
   6.8386686  59.2153788  10.1048434   7.9148424  58.3022261   9.5580471
  58.5203743   8.6752999  83.2767773  57.8811646   8.8142109  82.5779629
  59.0429544   9.4772059  83.2862473   2.4386783  10.4144657  50.5764675
   2.7976894  10.7960737  49.7753954   3.2065949  10.1228845  51.0679102
  20.7425690  50.5029345  12.2530735  20.4046297  50.0852251  11.4608943
  20.3681326  49.9927568  12.9712272 117.1942234  66.4164305  54.5435953
 117.0161438  66.2393713  55.4672670 117.1406555  67.3691082  54.4676828
  86.0864449  57.5308180   0.2711698  85.2034760  57.2655630   0.0137793
  85.9890175  57.8482819   1.1689207  64.0011978   8.5576802  87.9540920
  64.6762466   9.1358376  87.5987339  64.4734907   7.7637124  88.2046604
 107.2679234  20.7297325  23.5887742 107.7166843  20.0188994  23.1309938
 107.2410011  20.4466438  24.5027590  51.7723846 103.7395668  54.9634600
  51.4855671 103.1724358  54.2476845  50.9708309 103.9383793  55.4474211
  89.0722656  20.7063580   9.9202490  88.5159779  21.0238934   9.2089480
  89.2977428  21.4927197  10.4172623  13.1718886  46.5537882  20.4896975
  12.3058617  46.5302753  20.0826669  13.7827229  46.4601803  19.7587049
  47.6152563   3.0323875  72.0871782  47.6029778   3.9336488  71.7649841
  46.8213892   2.6380479  71.7259169  59.2731571   6.7147678  73.6100292
  59.1801262   7.0679051  74.4948292  59.2688465   7.4857503  73.0427551
  58.3292818 106.0726070  66.2574673  57.7413559 105.4037666  66.6084862
  58.6456680 105.7043362  65.4325342  79.1664743   0.2403309  72.7823162
  79.9840593   0.7100483  72.6175213  79.4270802  -0.5179340  73.3051443
  22.7507567 105.6519318  81.9377804  22.6141167 104.9236679  82.5437546
  22.5172567 106.4307976  82.4428368  54.3695498 108.4381771  84.8988819
  53.8335705 107.7706623  84.4706535  54.3811798 109.1688824  84.2806911
  62.1765089 107.4484348  89.1200829  62.2227812 108.4030533  89.0672588
  62.2019053 107.2589397  90.0579929   2.2473083  30.3145528  21.0988164
   2.5058582  31.0853958  20.5936575   2.8190947  29.6163130  20.7798290
  14.1286254  74.9772358  41.4259958  14.5215476  75.8494854  41.3939810
  13.5447252  74.9496078  40.6680155   5.8178097  49.2790318   6.5677452
   5.7393855  49.7399378   5.7324946   5.5384851  48.3840942   6.3746083
  33.1442475 107.3484421  91.1602116  32.7194333 108.2004642  91.2592793
  32.9979229 106.9089985  91.9978905  29.3980312  55.5611610  12.8789890
  29.0774274  55.0474787  13.6203241  30.3422165  55.4041529  12.8692710
 104.8374367  28.0917668   9.5496655 105.0141335  27.5485921  10.3177619
 103.9651585  28.4530115   9.7073084  46.1924219 106.3908005  80.7029629
  45.9796715 105.6490898  80.1365376  45.4952955 106.3989735  81.3588428
  15.8787799  42.6288652   8.9740461  16.3532805  43.3961678   8.6541551
  15.9213686  42.7012634   9.9275541  99.8155403  20.0728679  78.4688139
  99.2078876  19.7383106  79.1283989 100.3757191  20.6840110  78.9472914
  50.6638193  93.8001919  77.9528761  49.8688507  93.5888481  78.4423542
  51.1357450  92.9696178  77.8923321  81.4396667  86.3897419  66.3142872
  81.4257336  85.8108711  67.0764875  80.6014061  86.2333965  65.8794308
  26.4870763  98.0939770  62.8596306  27.3729134  98.4481716  62.9375648
  26.3085961  98.0999947  61.9192362  38.9376259  88.8763332  95.0162315
  38.0504870  88.6579895  95.3017807  38.8264251  89.6431541  94.4542217
  19.1619217  73.1756353  50.8936596  18.3452690  73.0729294  50.4050255
  18.9836419  72.7757454  51.7448568  86.9427872  24.8540688  71.2726927
  85.9937096  24.7299099  71.2648773  87.0599174  25.7990766  71.3700151
  41.7823458  93.7695122  51.5543652  42.2413206  93.4188461  52.3176575
  42.4636364  93.8669300  50.8890963  27.6150036  45.9164047   7.7613068
  27.7310252  46.7491055   8.2188916  26.7043900  45.6748915   7.9306763
  38.8132858  94.8400211  89.5892525  38.5014987  95.7105732  89.8365688
  38.1380248  94.5019150  89.0010834  56.0851049 103.7851524  95.3899860
  56.3696957 104.0927696  96.2505722  56.7350531 104.1382408  94.7824287
  18.1623602  34.4622993   9.8439932  18.6026454  34.9138975   9.1239655
  18.5193181  34.8670721  10.6345439  65.4216051 107.0709801  38.5986853
  66.0318804 107.7446079  38.8987136  64.6277952 107.5530338  38.3668971
  45.5410862  98.4716034  94.6062469  44.8833561  97.8811741  94.9736881
  45.7544708  99.0685272  95.3234577  88.9636040   1.4665468  62.0886087
  89.4897842   1.8278578  62.8019238  89.5639896   1.4274682  61.3441277
  55.7760000 106.8119621  91.6235924  55.8938456 106.4112568  92.4848557
  56.0045147 107.7322483  91.7543030  21.5327048  95.7348347  38.9929271
  21.1297703  94.8693371  39.0620995  20.9833980  96.2989521  39.5372272
  64.1907310  89.0435123  70.2638769  64.3784952  88.1609821  69.9443054
  63.7912035  89.4888496  69.5166969  83.6454296  60.3375196   5.8160192
  83.2458210  60.8044291   6.5498728  84.5720482  60.5738878   5.8577943
  72.1498203 102.7826118  85.8145523  72.0565748 103.5207939  85.2123642
  72.8792810 103.0283356  86.3835335 114.1422462  16.7245066  83.2460690
 113.3077717  17.1540475  83.0579567 114.2751598  16.1267793  82.5103474
  56.0579967 104.8298168  62.6462650  56.3964939 104.7893810  63.5407019
  56.1131239 105.7559967  62.4109554  62.4212217  84.8373890  95.2334881
  62.7057934  85.6280994  94.7751999  63.1918144  84.5559597  95.7266617
  21.8147182  44.3521833   5.8927900  21.6998887  44.0747976   6.8016922
  22.5657797  44.9451256   5.9163958  66.9745827   4.0392095  81.0799789
  66.9772577   4.6064967  81.8509579  67.4100304   4.5551783  80.4014587
  85.9650898  94.3731785  53.3496571  85.6485653  94.2228699  52.4588966
  85.6736279  95.2601147  53.5609388 117.9051590  55.8529091  21.4908671
 117.9955673  56.6593552  20.9832287 118.7727642  55.7092810  21.8688393
   8.1935501  28.8392472  27.9730439   7.8155106  29.0213704  27.1127248
   8.6713094  28.0181360  27.8557658  39.3806982 111.4193726  50.8626318
  38.6420941 111.6249561  51.4357233  40.1280785 111.3378048  51.4550877
 108.5554600  42.3751068   4.4327170 109.1600323  43.1105089   4.3332189
 108.5195541  41.9753027   3.5637531  58.8659000  90.8165359  62.4224186
  59.5959949  91.3227081  62.7787495  58.1975746  90.8456230  63.1070566
 114.7767448  38.5471797   4.1899458 115.6352615  38.7060523   3.7975875
 114.7725868  39.0839171   4.9824899  43.2864904  96.5596581  80.6514072
  43.4021473  95.8765697  81.3119030  42.7903414  97.2446346  81.0995960
  28.7847662   4.1767272  20.9215951  28.3116937   4.9911699  20.7509589
  28.7216353   4.0570959  21.8691897  74.7040749  80.9754944  90.9558868
  75.6474924  81.0562706  91.0961246  74.3286991  80.9930038  91.8362427
  90.2072275   0.0995872  69.2812109  90.3957212  -0.0283196  68.3515120
  89.2549169   0.0267647  69.3447447  56.2499952  21.0003448  66.4156485
  56.5386295  21.5704203  67.1283436  57.0344162  20.5110335  66.1676788
  26.9930434  24.2444730  76.7528009  27.6960850  24.8540759  76.5284109
  26.2305689  24.5721769  76.2758589   0.1548727  53.9597416  14.0080988
   0.3161937  54.8882151  14.1758549   0.8415066  53.7048674  13.3918154
  20.0884986  44.8604918  14.7794187  20.9812427  44.6370220  14.5161676
  19.6760261  45.1826954  13.9779937  91.6461658  13.7982655  61.0874081
  91.4574718  14.0017259  62.0035028  90.9533119  14.2399168  60.5963469
  21.9027567  90.2403545  88.5164547  21.5939331  89.3680382  88.7612343
  21.9242382  90.2270699  87.5595951  82.4016190  33.2291937   6.0169160
  81.7769051  33.6065340   5.3975719  83.0783939  33.8992834   6.1126989
  14.7032273 108.2357597  81.8681908  14.9640191 108.9620686  81.3018990
  14.2303872 107.6382160  81.2888813   1.4589921  14.3563271  10.6596458
   1.3322796  14.7203064  11.5358281   1.1550184  13.4514022  10.7299459
  78.4491920  32.8285599   7.3319024  78.2628775  32.0738053   6.7734551
  79.3190145  32.6522851   7.6904702  68.6860561  12.2522986  67.8383017
  68.2664537  11.9787955  67.0226049  69.5474672  11.8355203  67.8159904
  56.5519714   9.2771304  77.5286055  55.7247448   8.9664918  77.1606016
  56.7813635  10.0374031  76.9941950  29.3237376  49.9430656  21.5232110
  28.4892678  50.3967428  21.6417980  29.2655087  49.1802502  22.0984960
  11.3005090  25.3655934  21.4190936  11.8205631  26.0450411  21.8481946
  10.5477786  25.2394819  21.9967818  93.3254147   3.8026816  81.4648438
  93.6444569   2.9479375  81.1752510  92.4112701   3.6488682  81.7034149
  89.6085167  56.6501522   1.8177207  90.2904415  57.3214483   1.8417919
  88.9903164  56.9121552   2.4999325  56.0911560  98.3472443  82.0981598
  55.6683207  99.1593933  81.8191147  55.5879688  97.6554298  81.6687107
  55.6991673   4.8816830  82.6376915  55.3426027   4.1959640  83.2023811
  56.4335585   5.2429295  83.1340790 103.9492893  19.9841428   2.5700784
 103.4197235  20.2594995   1.8217687 104.6654320  19.4797885   2.1840619
  48.6456013 105.4161644  83.8860512  48.0348253 104.7186375  83.6480522
  49.5070505 104.9997520  83.8590336 113.4568787  47.9462719  55.4830837
 114.3368816  48.1884098  55.1946688 113.0699635  47.5049400  54.7269344
  30.4453659 106.6091061  70.6219864  30.6622839 107.1572304  71.3761330
  29.4955206 106.5007973  70.6699133 102.7429295  24.8785782  65.6236887
 102.4200726  25.1730084  66.4753389 103.6819553  24.7479558  65.7556295
 113.7353992  35.1784801  83.0793667 113.0632496  35.8464336  83.2145786
 113.2607937  34.4314861  82.7147007  99.3151474  47.9436874  13.6982143
  98.4080791  47.7430534  13.9288580  99.2537975  48.7133217  13.1324124
  71.9942045   0.1532563  78.2256794  72.1468496   0.9553096  78.7253237
  71.3173914   0.3910109  77.5919437  86.3005447   8.5162252  91.2730598
  86.8666267   8.8002843  91.9907665  86.4377594   7.5704116  91.2197495
 100.0674343  60.2451754   7.7051294 100.0050640  59.6009159   8.4103048
 100.9814453  60.5290365   7.7201939  59.7177076  85.1200867  89.4568253
  59.8593950  84.4532013  90.1286983  60.1507759  84.7710323  88.6778164
 105.3578949  13.2461977  73.5495329 104.8854733  12.7202654  72.9042053
 104.8349476  14.0429974  73.6382437  25.4121923  89.3804264  72.0493174
  24.8753023  89.8685741  72.6735735  25.6830311  88.5968399  72.5277281
  91.8773460  28.1065083  69.5989561  91.1998844  27.9354644  70.2531862
  92.2209549  27.2408581  69.3780231  72.6053619  15.4150033  69.3691254
  72.3888254  14.5910513  69.8055315  72.4072075  16.0894346  70.0188255
  23.4059334  79.9270344  11.6062844  22.8038478  80.6488895  11.4256024
  24.1700864  80.1099682  11.0596228  25.5943036 105.9798431  81.4088154
  25.3694582 106.3653660  80.5620193  24.7723556 105.6076622  81.7283535
   4.6312299 102.2554302  84.9067688   5.4133761 102.8020191  84.8311424
   4.3657735 102.3425293  85.8222866  19.6191692  10.5171978  53.9111137
  18.8590443  10.8327532  54.3998528  19.9063408   9.7400194  54.3904448
  23.8571501 110.4260159  85.9138870  24.1104412 111.1624241  85.3573132
  24.5496821 109.7781658  85.7837868  46.2842512  76.8521786  92.8420448
  46.7954636  76.0436773  92.8071213  46.9294596  77.5359297  93.0221176
  35.8931947  33.8378048   8.6102897  36.0057950  34.1416359   9.5109785
  36.5465641  34.3260813   8.1093603  93.7331963  55.9911776  11.1909795
  93.4232044  56.5110922  11.9324791  94.6709251  55.8829498  11.3497102
  79.7443628   9.1975892  46.2093401  80.3386784   8.5076702  45.9143257
  79.5659351   9.7126460  45.4225016  11.2545049  49.4214153   5.6893355
  10.4331350  48.9318085   5.7325971  11.5185201  49.3656063   4.7709599
   3.1552410   2.5657016  86.0504627   4.0212333   2.1596612  86.0881424
   3.2290137   3.2234997  85.3590202  39.6732759 104.4932652  85.9115410
  38.8621664 104.2453480  85.4678345  39.3903327 104.8055458  86.7709827
  29.0589595  56.5070343   7.1728575  28.3015466  57.0912457   7.1374953
  28.9077950  55.9655190   7.9475492  26.8039727  78.9006805  53.3338213
  27.1335435  78.9224625  52.4354076  27.2014308  78.1181669  53.7158346
  27.0616031  95.1734924  61.9625139  27.7066755  95.5105019  61.3407898
  26.2355447  95.1823902  61.4790058  40.4978561 108.1972694  83.6041927
  39.9293566 108.2356930  84.3733215  40.8718538 109.0759468  83.5386658
  76.8933630   3.1684977  87.3685741  77.5465631   2.4692866  87.3428345
  76.1619473   2.8321600  86.8507576  47.7592278  98.4462547  78.0100632
  48.1767464  97.6228523  77.7572346  46.8885851  98.4046841  77.6144838
  26.7649698  33.5412478  14.4491923  27.7186489  33.6035132  14.3958032
  26.5907836  33.3092713  15.3613758  35.5124474 107.8532600  75.2355719
  35.9835887 108.1454468  76.0158825  34.7183752 108.3875561  75.2211523
 107.7123547  58.4436655  20.1507330 108.2344818  58.4291506  19.3486106
 108.3166122  58.7559223  20.8242321  31.4369392 110.7260036  73.7246370
  31.2865496 111.0863972  72.8507233  31.5814137 111.4931965  74.2785025
 116.4501667  30.3421569  10.4400277 115.8014297  31.0450768  10.4042852
 116.3063431  29.8423982   9.6364194  45.8660221 104.3759918  61.1531639
  45.3535700 104.0382004  61.8876839  46.6392183 104.7667885  61.5601969
  75.1201153 100.3563976  89.5169258  74.3491125 100.6043720  89.0067387
  74.8518658  99.5677185  89.9883556 115.2215004  46.2648821  25.4892635
 115.1915169  46.4252996  26.4324474 116.1467648  46.3533354  25.2605653
  63.2888651  72.2925949  53.6927271  63.2882500  71.8975973  54.5646238
  64.0748453  72.8387070  53.6777401 111.5696812  32.2542787   4.6267074
 112.4829197  32.2362709   4.3405172 111.3728142  33.1840062   4.7410724
 111.4776325  43.7679768   0.3773009 112.0111275  43.7818766   1.1719225
 110.7125950  44.3012571   0.5930869  81.6211987   1.5514719  95.0787544
  81.4793968   1.9815570  94.2354584  80.7539749   1.2395976  95.3373909
 106.5027237   0.5389973  86.9252777 106.4573193   0.3103177  87.8536510
 107.0481777  -0.1448197  86.5365696  68.9232254  14.0050948  95.4287815
  69.4750500  13.2540131  95.2106094  69.4328880  14.4979870  96.0718441
  74.1525936   6.0869986  73.9491177  75.0851727   5.9777302  74.1350985
  74.1280317   6.5889060  73.1344318  69.4353628  21.1177254  83.8721561
  68.7296295  21.7451358  83.7155342  69.6156931  20.7402349  83.0112267
 107.1332359   9.1919440  49.5567560 106.8700314   8.5778493  50.2422094
 107.3781490   8.6352599  48.8176012 111.3286018  66.3437605  15.3386867
 112.1638680  66.1722755  14.9037671 111.5462399  66.3782883  16.2701774
  77.6820374  14.8629189  49.1870975  78.4567928  14.7025836  49.7258663
  78.0271959  14.9922645  48.3037138  66.7413092  93.2408237  86.8784714
  67.4065399  93.9186478  86.9979095  67.2371197  92.4230194  86.8386078
  58.0972052  87.3143673  76.2895632  58.7360144  87.0500374  75.6275272
  58.6275053  87.6181221  77.0262718 101.3639069  87.1454525  63.5935307
 101.8663025  86.3316250  63.5547352 101.3375378  87.4540520  62.6878262
  74.9012518  99.7322559  62.3642159  75.0898600 100.5541325  62.8171778
  75.7583714  99.4107342  62.0845699 116.1124134   9.4635469  69.9012566
 115.4470825  10.1219320  70.1014757 116.2323570   8.9867753  70.7225561
  41.8772459 100.4034328  95.9322453  41.2794638 101.1220455  95.7260990
  41.7562342  99.7786331  95.2172565  94.0458679  25.6988525  94.9795055
  94.1468334  24.8900437  95.4813671  93.4418678  25.4688120  94.2734623
  71.1107349  94.1263485  72.8063059  70.7634497  94.9696541  73.0969191
  70.3982782  93.7353706  72.3005581  26.5644264  90.6059361  68.1379747
  26.1785364  89.8377228  68.5588980  27.5047851  90.4273605  68.1295061
  55.9489918  95.2441883  85.2249622  55.2505970  95.2034378  84.5716476
  55.4902220  95.2711678  86.0646248  61.4839935 106.6294765  91.6672707
  61.4973927 107.0415115  92.5311470  60.6044817 106.2592888  91.5920925
  98.6939812   0.6627420  80.3660202  98.5521698   1.5757386  80.6161308
  99.5374680   0.6666106  79.9135303 115.8330631  63.6434650   5.9816247
 115.7152176  62.8868771   6.5560091 115.0484562  64.1739368   6.1202544
  62.3090124  85.4943180  76.0602951  62.4550724  85.5366230  77.0053387
  63.0358887  84.9669552  75.7289696  86.8048668  58.5800028  20.1730299
  86.6936111  57.6294661  20.1912212  87.2057438  58.7579918  19.3222356
  47.6934528  15.4543304  93.0908585  47.7194166  16.3950360  93.2658768
  47.7404976  15.0482881  93.9563942 117.0190811  13.4407473  17.6415229
 117.6539803  13.9820337  17.1723235 116.1708736  13.8337016  17.4357164
  43.0109119 101.6947556  81.5329742  42.4720144 101.5012264  82.3000240
  43.8415670 102.0028114  81.8953896  52.9933357 103.6381340  88.8320827
  53.2736826 103.8813114  89.7144127  53.7592554 103.2132435  88.4459877
  70.3247833  27.3525381  76.5380383  71.0886717  27.6719689  77.0183182
  69.5860481  27.8257084  76.9209433  87.8143311  17.8125978  53.8201189
  87.1430874  17.3001349  53.3695126  88.3906269  18.1202781  53.1205082
  70.2653122  97.9421425  88.2884502  71.0738516  98.1582832  87.8239250
  69.9698782  98.7753677  88.6554527 103.5676861  19.6374357  86.5289879
 104.3008995  19.5596159  85.9185886 103.9754009  19.6321166  87.3950005
  29.4553947 104.2230606  79.8011541  29.2610788 104.9011517  80.4481983
  29.1805816 104.6026421  78.9665127  39.1893315 102.5506115  66.0606289
  39.4861817 103.3521557  66.4914846  38.2369757 102.5662899  66.1555099
   7.9510969  24.8938680  14.9046504   8.6309665  25.4379654  15.3021026
   8.3547908  24.0301299  14.8197055  23.9278984  94.0662766  67.1640444
  24.3870044  94.7268105  67.6828337  24.3578076  94.0917778  66.3091993
  15.5782127  16.4270437  67.4733925  15.2995098  16.9273484  66.7064142
  16.5285623  16.3582516  67.3820925  47.0041227  91.0981560  78.5441828
  47.5930452  90.3456211  78.5997772  46.9964743  91.3281822  77.6150656
  17.8551459  61.8613195  28.0255318  17.6499951  61.7245722  27.1006298
  17.2756433  61.2582874  28.4911060   1.3002807  15.0454092  17.7813089
   0.8943805  15.0540280  16.9144738   2.0429096  15.6443739  17.7040040
  63.8835859  79.3159103  68.9021778  63.7089968  80.0542068  69.4858503
  64.8358727  79.2199707  68.9156055  41.2476444 109.1482830  60.3474092
  42.0726681 109.6335316  60.3571653  40.6672430 109.6736908  59.7966719
  59.0662813  76.6110897  64.1428232  59.5671320  75.8619213  63.8201380
  59.6845865  77.3413563  64.1175604  51.1194897  58.1011057  16.1754000
  50.7562685  57.8288364  15.3326833  50.7698679  57.4681902  16.8026268
  66.6907549 103.3530045  69.8330927  65.9905767 102.9361534  69.3308735
  66.5980244 104.2867184  69.6438837  18.7075984  19.9577940   6.8841046
  19.2152596  20.4327822   6.2261558  19.3609476  19.6402740   7.5074399
  54.2640781 104.8742104  79.4435740  53.9072084 105.1241493  78.5912800
  53.7659168 104.0958118  79.6928883   3.7778693  18.0439150  96.0017586
   2.9698238  17.8412604  96.4731693   3.4981525  18.1874454  95.0976658
  57.5563622  91.8099308  55.0333023  58.0812979  91.9401455  55.8230591
  57.0826292  90.9935570  55.1924896  99.6606636  74.3287849  12.5718200
  99.4666100  74.8179150  11.7722392  98.9192486  73.7319374  12.6733720
  82.9544735  12.9670465  73.9437437  83.0535603  13.9170563  73.8813448
  82.0115948  12.8192496  73.8704109  43.6044455 100.0967407  72.0896006
  44.3984318  99.8112679  72.5416231  43.8604116 100.9032822  71.6421604
  47.8250790  86.3739967  53.3090258  47.2732401  86.0264778  52.6083565
  48.6189032  85.8401680  53.2757902 105.7873821  71.1603069  13.7081599
 105.0305367  71.5441322  13.2653189 105.6463718  70.2154684  13.6479378
  29.0723109  94.5927334  37.2964358  28.6055207  94.8613834  38.0877423
  28.5020065  93.9387703  36.8923116 104.9694252  44.5557117   3.1308600
 105.0832844  45.5046034   3.1844145 104.0418243  44.4369268   2.9266798
  95.3845406   6.3250244  75.7977867  95.1704216   7.0663226  75.2313375
  94.5469761   6.0689288  76.1839676  33.7579942 103.8140106  81.5953922
  33.6559796 103.2660389  82.3735619  34.2717528 103.2783604  80.9909439
 105.1236629   5.4814506  66.4098454 105.5615997   5.3727472  67.2540188
 104.2627525   5.8368462  66.6306400  71.6389608  97.6831341  53.8297081
  71.2710953  97.8932762  54.6880484  70.8912611  97.3750496  53.3175898
  38.5341549  96.6743469  73.4446144  39.0703058  96.6512680  74.2372274
  37.6540804  96.4462090  73.7440395 113.6481476  10.2612233   3.4735772
 112.9213619  10.6122565   3.9881539 113.6102772  10.7418728   2.6466706
   5.4599261  70.5601406  11.0867035   4.9330354  71.3231421  11.3242912
   4.8661163  69.8168182  11.1920214  80.7861042 110.9638214  48.0244970
  81.4373779 111.6488361  48.1755924  81.1061287 110.4948616  47.2538519
  48.8752365  99.0360355  80.4451752  48.2667923  99.2322540  79.7327614
  49.4264889  98.3325672  80.1024246   5.7391214  60.8263540   9.8651993
   6.1235142  61.6936445   9.7375840   4.9922311  60.9782505  10.4442632
  96.5234756   9.2853272  64.0201950  96.1171913   9.9694014  63.4880209
  97.1341419   8.8500881  63.4253168 103.4776306  50.7900286   8.5316741
 103.5203457  49.8504400   8.3539546 103.3712673  51.1922503   7.6696199
  48.6420059  82.0834446   5.0294036  48.9809370  81.6706276   5.8237231
  49.1405296  82.8967857   4.9507609  16.3507378  52.4624538   3.9269471
  16.4323282  52.2593260   4.8587811  15.5796289  53.0268478   3.8714632
 111.4542007   9.7131902  88.0427265 110.9867191  10.3908706  88.5310364
 112.0532322   9.3274975  88.6819744  71.7355156   8.9923191  64.3015862
  71.6542053   9.4939476  63.4904194  71.0010719   9.2870170  64.8400784
  56.9625378  61.2623405  86.5080833  57.5781727  61.3158178  87.2390842
  56.4416647  60.4802227  86.6903496 114.3823242  16.7833126  74.6165609
 114.7332954  16.2810552  73.8811779 113.9981556  16.1244512  75.1949596
  63.4118366   5.0162041  57.4894714  62.5901937   4.5252404  57.4800491
  63.1457329   5.9259361  57.6229143 102.5537682  63.2604361  16.7337644
 103.3472061  63.5773325  17.1653461 102.0717525  64.0551853  16.5051651
  50.0375462  91.6865826  69.8403311  50.0721550  90.8450603  69.3855047
  49.9950123  91.4557171  70.7682991 101.8723392   8.0934030  77.7404070
 101.1527443   8.0380207  77.1116447 101.5351677   7.6673019  78.5284376
  60.9999800  97.4321079  84.5893192  61.1665106  97.5270939  85.5271244
  60.0686312  97.2187614  84.5318508 112.0705509   3.8846785  47.2595739
 111.3484764   3.3925450  46.8688726 112.5049019   3.2557696  47.8358078
  36.7705870  99.2225170  68.3036327  36.8986797  99.8620224  69.0042496
  35.8336163  99.0279675  68.3252954  13.0607367  42.4366760   2.9574829
  12.3296010  41.8204546   3.0015662  13.2598436  42.6378965   3.8718674
 112.0608521   1.4958741  95.3166008 112.4944973   1.1220445  96.0836983
 112.5492764   1.1463360  94.5712852  34.5921445 104.2538738  64.0959692
  33.7067008 104.6172142  64.1103315  35.1652551 105.0163937  64.1755629
  51.0832548  89.1509819  90.0515461  51.2561131  89.4212723  89.1497231
  51.2153816  89.9452591  90.5691433  42.3458815  88.0207157  58.4295273
  43.2096004  88.3219528  58.1476068  42.3197556  87.0978928  58.1766558
 111.5694237  24.4398808   8.6732692 111.4387131  24.1337132   9.5707136
 112.2501945  23.8663793   8.3213049  65.9448576  96.2990856  87.6538372
  66.6936064  96.7929363  87.3195934  66.3108873  95.7482243  88.3457947
  35.6349921  92.7933216  85.4277325  34.9155235  93.3744526  85.6744671
  35.8478642  93.0440235  84.5288086  41.5347481  99.6321774  75.8090401
  41.4683056 100.1442814  75.0030804  42.2464180 100.0457573  76.2976122
  71.3278151  77.6752949  67.5607014  70.7420874  76.9719172  67.8407288
  71.0679913  77.8581238  66.6577625  50.4469633  87.8230858  85.3731060
  49.7189093  88.0556011  84.7968197  50.0277042  87.4780941  86.1614132
  28.8972926  96.3995552  74.2653799  29.1828203  97.2968578  74.0934849
  28.8041353  96.3560009  75.2170420  55.2918673  92.9951096  79.1355038
  56.1744308  93.3580780  79.2100811  55.3780842  92.0914555  79.4391632
  88.1213665   7.4541432  83.8996696  88.2407475   8.3173048  83.5035229
  87.3528576   7.0923150  83.4584045 113.0013180  84.2535305  11.7132330
 112.9581451  84.6549797  12.5811028 112.3363018  84.7151470  11.2024522
  89.2721462   1.9954249  89.3760777  90.0908375   1.9247644  89.8669815
  89.0764332   1.0981262  89.1062927  38.8583708  17.7040875  75.0095272
  38.3622384  17.4378061  75.7835960  39.4367933  18.3992505  75.3232241
  59.3589401 109.7051430  59.9403954  60.1823997 110.1931381  59.9385595
  58.7416410 110.2787018  60.3944921   0.0376307  15.8370316  83.5250187
   0.5105673  15.5514014  82.7433681  -0.4694284  16.5951312  83.2345009
   0.5808929  83.6479473   3.1578863   0.8351550  83.4965897   2.2475722
   0.7758877  84.5725727   3.3104548  97.3430538   8.7735945  85.4998779
  97.2251034   8.7247568  84.5512295  98.0976105   9.3505794  85.6180286
  16.0911238  98.3006573  18.1005406  16.4901519  98.4540558  17.2441089
  16.3387036  99.0652084  18.6205328  48.5790634   7.6986033  57.4182081
  49.4693851   8.0483186  57.3826694  48.3619308   7.5032020  56.5066671
  68.8292122 108.8884926  59.2072678  68.3434820 109.6485329  59.5276403
  69.6908045 109.2351627  58.9755201   2.3985575 108.5893917  66.1940241
   2.0671418 109.4862461  66.2391853   1.6379574 108.0653477  65.9428263
 107.0865822  89.0993023  89.7390842 107.3739243  88.7877464  88.8808250
 106.8630981  90.0192070  89.5974541  49.3484211  92.9974937  72.8988934
  50.2218723  93.3299351  73.1057835  49.4073534  92.0551395  73.0561495
  37.8908920  38.3783412  12.2604096  38.1682467  38.0429029  13.1129289
  37.5616145  39.2580175  12.4447370  91.7431927  39.2974472  18.8911605
  91.1983013  39.4280457  19.6672201  91.8982887  38.3533001  18.8635242
  68.0599880   7.1331978  90.2177715  68.0095339   8.0775213  90.3658867
  67.2848606   6.9312000  89.6937370  19.7371089  67.7200222  13.0803347
  19.8585105  68.6293554  12.8071797  19.9912965  67.7111673  14.0031254
  60.0543737 104.7192478  93.9120579  60.1545477 103.8187790  93.6032677
  60.4822350 104.7278309  94.7682667  50.9968853  97.4265957  68.4173727
  50.2452421  97.6794529  67.8813457  51.6884804  98.0377674  68.1635952
 103.5490608  51.8818712  93.0211544 103.1041050  52.5942516  92.5620651
 103.0096054  51.1106539  92.8466702  80.6145763 103.6181641  77.2272539
  81.3180351 102.9968357  77.4151993  81.0213184 104.4785881  77.3295307
  29.0071082 106.7240429  59.9160337  28.7851334 107.5642204  60.3173399
  29.2766285 106.1718273  60.6499624  61.3389254 110.0794601  86.6543102
  61.8894911 109.9620533  87.4284649  61.0094643 110.9751225  86.7283058
  37.1401858  49.9411535   5.6264919  36.2437487  50.2767324   5.6221843
  37.2099948  49.4340706   4.8176503  23.2806659  59.4857311  10.5386472
  22.7565575  60.0458050   9.9660546  23.7827563  60.0971222  11.0774803
  23.3435011  41.8096113   9.3177605  22.7797246  41.2918949   8.7429935
  22.8911734  42.6487255   9.4044876  99.5713902   4.3685582  89.5300579
 100.0381279   4.7782651  88.8016891 100.2626991   4.0043667  90.0829506
  44.7182572   0.5157802  33.6993432  44.7219235  -0.3893807  34.0106177
  44.2414564   0.9991596  34.3740606  85.1517010  20.1229215  91.7873096
  84.8702049  20.0023293  90.8804131  85.3577900  21.0554218  91.8521404
  50.0057173  99.5093155  82.9895210  49.5613527  99.1423512  82.2252464
  50.5473948  98.7921524  83.3189011  74.4969845  71.2452126  47.6390982
  74.0090513  70.5092621  47.2696018  74.6864843  71.8080091  46.8883753
   5.2469862  68.1138992   7.4661165   4.9300972  67.3724699   7.9819602
   5.4660016  68.7816620   8.1160074  41.0381317  51.8471098   1.2039808
  40.1426601  51.5117741   1.1602490  41.5331984  51.1521864   1.6378279
  13.3969057  73.0811024   7.6405382  12.8598547  72.7775860   6.9086337
  13.4523511  74.0290594   7.5199771  98.5216808  19.1836226  96.8354416
  98.6475754  19.9849153  96.3271999  99.1011620  18.5439670  96.4216042
  78.1794596   5.4654253  68.9110851  77.7817678   5.8376479  69.6981812
  78.8279629   4.8437241  69.2414808  93.1218910  44.9194860  96.5409756
  93.8556862  44.6119070  96.0088348  92.9201508  45.7876062  96.1918354
  90.7750702  28.4024096  74.2349529  91.4531708  28.9560342  73.8477707
  91.2365150  27.6052523  74.4954062  87.8314686  55.3436422  89.5459270
  88.7733555  55.4197121  89.6985245  87.4307919  55.7579994  90.3101349
 110.2336216  25.0975466  56.6302109 110.5817509  24.7581911  57.4547577
 110.0474739  26.0190916  56.8100405  48.4408188 106.3334560  76.4632511
  47.5059128 106.4925957  76.3333893  48.8708067 106.8869686  75.8113527
   9.3194109  20.8058119  89.0198994   9.5070577  20.8358288  89.9580479
   9.2198312  19.8739159  88.8252544  19.3088412  51.2397671  18.5210347
  20.1370144  51.2522888  18.0412388  19.4490051  51.8363142  19.2563701
  40.4550076  66.0092640   1.8718490  40.9349155  65.6618595   2.6236656
  41.1029434  66.0410643   1.1680020   0.4723981  25.1280499  46.8096399
  -0.3659195  25.1996589  46.3532114   0.5126968  24.2151713  47.0946980
 108.8879108  20.8772230  83.9764023 109.6529293  20.7773328  83.4098244
 108.3375931  20.1213956  83.7712193  95.4026699   1.3014105  70.7950544
  95.9266949   0.6006609  71.1831045  95.2259445   1.8988360  71.5217495
  49.3726110  97.6100540  46.3977957  49.3718624  98.5285282  46.1282539
  49.9642086  97.5815964  47.1497488  72.3058081 101.6712952  67.0570183
  71.5018559 102.1903801  67.0783091  72.1040058 100.8956146  67.5803041
   0.5781352  17.4716222  48.5773802   1.4419829  17.1204817  48.3612728
   0.4019057  17.1474028  49.4605875 116.0435200  41.4603615  69.1631889
 115.9788418  41.7362881  70.0774717 115.7498932  42.2211981  68.6620426
  99.1321373  42.5065899  89.7527218  98.6693859  42.1956587  88.9746380
  98.4594917  42.5433111  90.4327393  33.1767058  53.1152201   3.6610901
  32.4692559  52.4711418   3.6912411  32.8055739  53.8978910   4.0684214
  12.6132083  57.9506063   9.0652555  11.8085325  57.6199007   8.6660522
  12.3187721  58.4132195   9.8498130  39.8534513 102.3416519  59.4275618
  39.2818761 102.4174595  60.1916170  40.6168509 102.8763866  59.6455336
  52.0638323   8.1618309  54.4313240  52.2937870   8.7631220  53.7229443
  52.3711491   7.3071229  54.1292286 104.6312332  19.2657948  67.0266533
 105.5832291  19.2286551  66.9341183 104.3471527  18.3551931  66.9470787
  72.6538944 101.0707760  88.7859535  71.9772911 100.6558895  89.3210220
  72.2049379 101.7966461  88.3526039  37.6493859  98.2953739  57.8006840
  38.1152725  97.6258373  58.3015871  38.0747771  98.2922840  56.9432068
  27.2624516  85.7520580   4.9775425  27.6616931  84.8823071   4.9968088
  27.9899335  86.3454437   4.7907540  62.3344994 100.0078964  79.4641972
  62.0656824 100.9222889  79.3754959  62.6998520  99.9502182  80.3470421
  10.7750893   8.0100960  82.0627880  10.9408438   7.1194148  82.3717308
  10.7406688   8.5378277  82.8606224   9.7000515  81.5539169  15.5600858
   9.1867167  81.5525913  16.3679957   9.0542233  81.4233780  14.8657525
  30.2354479  65.3333616   3.4058774  30.9066367  65.5644369   2.7637380
  30.0228572  64.4203901   3.2121640 103.1228733  28.7180185  69.9755096
 102.7915382  28.8491297  69.0871096 102.3913765  28.9623809  70.5424547
  63.4125614 105.6555653  95.3752708  62.8365326 106.3233852  95.0031853
  64.2831230 106.0530949  95.3571701   4.0548873  87.9634666   0.7722995
   3.9165750  87.0816326   0.4266567   3.8665965  87.8863716   1.7076254
  30.3953242  87.8516293  79.0054035  29.5153451  87.5326347  78.8051176
  30.5684972  88.5131550  78.3356047  45.1345205  59.0161657  15.0554407
  45.2641964  59.9643373  15.0751185  44.2894697  58.8810492  15.4842281
  70.6811285  19.2275047  91.6013718  69.9321175  18.7305236  91.9303417
  71.3839912  18.5817432  91.5292072 104.2299366  17.6981509  89.2597008
 104.8034668  17.4759245  88.5262775 104.0863895  18.6406803  89.1744614
  82.8301048  40.9797955  75.3048754  82.7341270  41.4755011  74.4916773
  83.7673187  40.7940865  75.3629780  22.4416709  83.8515759  32.7081180
  21.9331598  84.3304825  33.3625627  21.8731594  83.1275082  32.4459267
  54.9942112  94.8052883  94.2448902  55.1868534  94.7458839  95.1806164
  55.8354616  95.0166798  93.8401127  92.2658634   7.4237370  93.1875038
  91.5183830   7.9330283  93.5007477  92.8941822   8.0804539  92.8872108
  28.6035156  83.4410095  86.2161636  27.8553605  83.7077332  86.7503548
  28.6956310  82.5031948  86.3842392   5.4883939  72.7538729  14.5304835
   5.1038933  73.2876873  15.2257752   6.2400484  73.2623529  14.2260289
  35.1731157  11.1885142  89.0593815  35.7792163  11.9247198  89.1422939
  34.9703646  10.9423769  89.9619007  52.6017618 107.9685307  69.8337984
  51.8925190 107.7069855  69.2465973  52.4177551 107.5071049  70.6520033
  53.8963413  74.2364645  94.5561886  54.4338846  74.4452524  93.7921906
  54.2907286  74.7368956  95.2705193 100.6351185  35.5060768  53.4329891
 100.2876949  35.7454157  54.2922020 100.9670258  36.3278770  53.0714560
  73.3565474 102.3597717  76.3438034  72.5123835 102.7171326  76.6193342
  73.9078093 103.1294250  76.2024593  25.2185178  70.8133459  15.8127904
  25.3703189  70.6997156  14.8745608  24.8199129  71.6803789  15.8876443
  30.0867844  50.0609779  17.6419628  30.4383826  50.5540133  18.3832633
  29.5349169  49.3886852  18.0415833  85.4528141  18.4616196  59.6853113
  86.1778831  18.0061257  59.2574978  85.3410721  19.2647755  59.1767025
  69.7906590  20.4660058  24.8635221  69.2149496  21.0509562  25.3560925
  70.3416061  21.0526705  24.3453360 101.6520405  12.4717331  77.7592897
 101.2826633  12.5123608  78.6414099 102.1366215  11.6464758  77.7403116
  29.7894621  83.7519264  81.6891575  29.8378086  83.7347794  82.6449776
  30.2167583  84.5721436  81.4423943  88.9139557  10.5371118  55.2924633
  89.7099781  11.0609853  55.2022505  88.6822033  10.2971292  54.3952799
  55.8679247 104.6237469  85.6882000  55.7469130 104.1203403  86.4932919
  56.4760542 105.3218079  85.9313297  95.1318169   0.2135711  87.9232597
  94.3863010   0.3953981  88.4954357  95.5676937   1.0596855  87.8216267
 101.6713619  12.2425890  90.2807045 101.8062115  11.5470028  89.6371174
 102.1320820  12.9984570  89.9165249  96.8333721  45.3020573  90.7330608
  96.4246464  45.7386827  89.9857140  97.7736092  45.4009342  90.5833721
  57.6183271   1.1502431  61.1646891  56.7493343   1.0654872  60.7723856
  58.0817795   0.3577697  60.8937073 100.2740765  77.5830317  15.9110808
 100.8097744  76.9413662  15.4446781  99.3807411  77.4107695  15.6135750
   4.2657217  69.9752283   4.5582363   4.9704233  69.3531895   4.3774131
   3.4691104  69.4446516   4.5467615 117.8371906   3.9371613  87.2381878
 118.5642529   4.5551890  87.1629906 117.0607662   4.4901875  87.3251343
  37.3347974 108.9833260  68.1768656  37.1259809 108.0973816  67.8806782
  36.5657306 109.5021725  67.9411507  29.0941525  73.5154629  27.8738427
  28.6742377  72.6862955  28.1027079  29.9971724  73.4180450  28.1759977
  28.8093352  58.6466885  19.4198179  28.4174919  58.7142801  18.5491157
  28.1863904  59.0874243  19.9976814 101.1655045  29.0014124  71.6510201
 101.0438824  28.5612559  72.4922705 101.2866592  29.9232960  71.8783617
 104.4644547  36.3445807  20.4685926 104.4262314  36.3378906  21.4250064
 104.5952702  35.4274702  20.2276993  14.5119917  65.1491451  10.1397824
  14.8143589  64.2810154  10.4065359  13.7365758  64.9788427   9.6050328
  60.9234238 100.3423405  63.8262177  61.4961386  99.5788765  63.7530708
  60.0441504  99.9980545  63.6694527  47.4175835 104.0284252  55.7925940
  46.5561676 104.2183781  56.1642265  47.2290611 103.5927105  54.9614239
  89.5822716  37.1808720  71.9076586  90.1439762  37.5064731  72.6110125
  89.8787212  37.6500416  71.1277676  55.9888697   3.7587246  80.0683308
  56.7635012   3.5904431  79.5318031  55.9079075   2.9823020  80.6222630
 111.9160175   9.5704740  77.8903008 111.2931919   9.1902930  77.2707939
 111.5614128  10.4381180  78.0844164  81.4260387  90.8402729  70.1228666
  82.2690296  90.3896809  70.1735020  81.4801598  91.3602161  69.3210173
 101.5133667   1.4513865  95.4590607 101.1963177   0.5930342  95.1780987
 100.9544468   2.0761713  94.9970245  17.9062533  48.1297398  35.2324915
  17.6229012  48.9867258  35.5511069  18.6336625  47.8893709  35.8063650
 105.0271797  23.7644458  71.8637514 105.1467800  24.7100759  71.7759371
 105.8723545  23.4443974  72.1791697  67.7119887 109.1765444  78.4392643
  68.2426607 109.6423054  77.7929831  66.8122351 109.4381539  78.2437229
  12.0462358   9.3722767  93.7697220  11.9135654   8.5258591  94.1965771
  11.1799896   9.6134096  93.4415340  68.4476185  93.8827896  54.8193359
  69.3231487  93.5096169  54.9214268  68.5367775  94.5100212  54.1017914
 108.6460114  24.1297674  90.2511215 108.7830734  23.9376330  91.1787701
 109.4126606  24.6435404  89.9971199  36.1096931  86.5633583   8.7177271
  35.7792997  86.9110012   7.8893483  36.5135646  87.3162270   9.1493618
 107.0842552  55.6581306  22.2347641 107.5540257  56.4454126  22.5099635
 107.5363159  54.9415112  22.6801014  53.2791805  86.2107468  51.1584330
  54.1532373  85.8991051  50.9236288  53.0831480  86.8859673  50.5089092
   7.2277337  15.5036497   9.7503465   6.5009660  14.9471974  10.0303507
   7.0470232  16.3536406  10.1517093  32.7279401  24.3795633  14.8205364
  33.4180546  25.0381446  14.7415113  32.9377818  23.7309361  14.1486132
  20.3351998  11.3908970  64.5473528  20.2231598  10.7679737  63.8292694
  19.4613874  11.7561948  64.6860695  53.3915234   6.1356211  76.2991095
  53.5486841   6.0676622  75.3573465  54.2238474   5.8844233  76.6995668
  47.9904413 110.9049129  62.8072786  48.5488701 111.6702652  62.9437923
  48.5507011 110.2782345  62.3494482 104.3423748 108.5922909  78.3680344
 105.2036953 108.1945896  78.4952927 103.7761211 108.1432152  78.9956617
  84.0669441  23.6139536  76.7815733  84.3097973  23.7286401  75.8628225
  83.4677219  22.8675199  76.7795420  31.5570879  63.9326096  16.5311444
  31.6296792  62.9784775  16.5553987  31.8505859  64.2172241  17.3966420
  39.5774150  31.3225651  29.2054176  39.9886560  32.1337104  28.9068246
  39.3406940  31.4953756  30.1166439  90.6042099  26.0787559  59.6670675
  90.0170994  25.7953405  60.3679323  90.4664612  27.0240736  59.6068287
  78.8276291  97.9206944  86.6372013  79.3553352  98.7044239  86.7906094
  78.5360432  97.6538467  87.5089836 109.0914631  24.9905324  70.0977707
 108.8323498  24.0694761  70.0704098 108.9618969  25.3025007  69.2021608
 116.0566998  47.4269390   3.4750634 116.2012196  47.6053238   4.4043249
 116.9307041  47.4598026   3.0861202  91.7137337  12.8795016  91.6471386
  91.7189312  12.3673868  90.8384705  90.9815216  12.5241780  92.1509552
 117.3321247  35.6830072  22.2144318 116.4521408  35.5308104  22.5589442
 117.1878719  36.0934734  21.3618255  56.3721466   8.5324067  49.7496700
  56.6889334   8.8315833  50.6019449  57.1137953   8.6636245  49.1589403
  10.0470734 105.2864742  12.2240639   9.4607127 104.6873093  12.6860297
   9.4613618 105.8775616  11.7509985  99.8965931  89.8711586   5.3193003
 100.8050251  89.8394489   5.0193524  99.5014095  89.0718174   4.9712831
  21.9106126   0.3153112  89.8463249  21.3517857   1.0840533  89.9602509
  21.3009906  -0.3980972  89.6575356 104.0787888  29.4082880  80.9832859
 103.3797550  29.4818425  81.6330433 103.6837864  28.9203167  80.2607346
  25.6241369  77.2983456   7.6630783  24.7922349  77.4721146   8.1035054
  25.3933644  77.2204161   6.7373878  88.6209202  91.1949730  49.6792793
  89.3822384  91.0607719  49.1148138  87.9107952  91.4133453  49.0757370
   6.4166588  22.5708866  65.5579185   5.9806561  23.3349729  65.1806831
   6.2555099  21.8680763  64.9283791  27.5401497  19.4000959  43.9151573
  28.0882359  20.1449561  43.6681414  27.0659184  19.6986055  44.6911907
  74.1455460 105.3465080  76.8932629  74.1779375 105.2788067  77.8475189
  73.9028883 106.2571812  76.7258596 114.0600395  36.9626760  54.2493105
 113.9612103  36.2062025  53.6711979 114.1570282  37.7069974  53.6553288
  17.1431375  66.0928869  19.0871859  16.5206313  66.6460609  18.6152589
  17.3211789  65.3677940  18.4882081  99.2379665 111.1801720  83.8390350
  99.4989967 110.2784157  84.0259647  98.9520550 111.1623192  82.9257107
 112.1228313  58.7635422  67.1433926 112.7909374  59.2813540  66.6942358
 111.6473579  59.3987274  67.6788378   5.1096809   9.0996301  73.4495306
   4.6516740   8.3166355  73.7551117   5.6273079   9.3836802  74.2029285
 104.8700142  39.3164945  66.4597607 105.2612305  39.8321915  65.7546091
 104.7941780  39.9294257  67.1910572  64.5299244  98.9738369  10.1646996
  63.9317513  99.6967316  10.3540051  64.6310186  98.5210896  11.0019755
   3.8433993  62.4418020  72.3368835   4.0663263  62.0495224  73.1810713
   4.6525809  62.3911238  71.8280745 111.3918400   1.7780773  81.0716915
 110.5628490   1.8546806  80.5993176 112.0624256   1.8631276  80.3939629
  81.6054821   3.9088482   5.3705323  81.5327930   4.6562675   5.9640914
  82.2499657   3.3354044   5.7853031  15.6171119  55.3221703  61.9511652
  15.5437636  54.3795967  62.1008635  14.7610831  55.6713915  62.1991348
 113.4792709  46.1195707  77.5730181 113.3531857  45.7178974  78.4326649
 114.4217014  46.2779284  77.5185490   4.0009123  23.1309915  58.1374741
   4.1133904  24.0801620  58.1890059   4.4462770  22.8806210  57.3280334
  25.7471657  20.7499766  60.5904102  25.5472302  20.0019193  60.0276804
  25.8715367  20.3692245  61.4597750  52.1841478   8.5935831  75.6574774
  52.5279188   9.4139338  76.0111427  52.8419161   7.9382235  75.8900166
  10.2293801  15.4374039  77.7621269  10.8413577  14.9258959  77.2329092
   9.7739446  14.7872746  78.2970476   0.7910620  40.5223417  33.0584669
   1.2410246  39.6822906  32.9685545   0.2642619  40.4281378  33.8520908
 112.5992393  64.4593477  34.5155334 112.6595116  65.2610636  35.0350046
 113.2454777  63.8714075  34.9066091 117.4805972  22.3482323  81.2933922
 117.8079359  22.7978325  80.5143261 117.6872486  22.9405761  82.0163345
 107.9228592  36.8943262  89.4770336 107.2922421  37.4355769  89.9520206
 108.7777519  37.2283721  89.7487164  26.5715718  27.3275161  73.6512804
  27.3886323  27.7010918  73.9815664  26.5644693  26.4315653  73.9881086
   1.5092918  19.5624781  82.2283649   2.1359953  18.8845360  82.4810886
   1.6425820  19.6729195  81.2869453  47.4176788  56.6172838   0.1076343
  47.9994011  56.7276239   0.8597370  48.0051088  56.4257574  -0.6234449
  83.9576435  98.8123703  49.8193598  84.8083687  99.2382908  49.9246550
  83.5307503  98.9165401  50.6697416   3.3757859  69.1436195  77.5700808
   2.7296612  69.2837238  76.8778944   3.7596783  70.0079155  77.7178860
  77.1302462  82.0678520   4.9816114  77.8580427  81.5321827   4.6660209
  76.3562346  81.5193272   4.8541266  28.0808282  23.1624675  61.6285229
  27.4103308  23.7747598  61.3255978  28.2733989  22.6204109  60.8634567
   1.7359816  46.8746996  55.2269268   0.8362853  46.8275166  55.5502939
   2.2295081  47.2653580  55.9480667 107.1527767  24.5314837  54.4290733
 106.8819904  25.4326344  54.2534924 108.0585289  24.6077132  54.7291422
  88.1776714  20.3959656  25.9278774  87.9104233  19.4817019  25.8333707
  87.3550129  20.8792615  26.0046148  42.5811291  49.2350578  66.6758585
  42.9942417  49.1258430  67.5323868  42.5377846  50.1829529  66.5499640
  16.4564717  37.2772312  59.3528557  15.5832624  37.6513028  59.4703627
  16.3877392  36.3917613  59.7098541  66.8834972  30.7166910  72.7230120
  67.1312141  30.8302402  73.6406040  67.2298479  29.8563695  72.4861240
 102.8935337  28.0470204  34.6168327 103.1516552  28.9673543  34.6677732
 103.0454922  27.8058720  33.7030578  63.6876249  85.5065250   4.0001890
  63.8304138  85.4863930   3.0539134  63.1545305  84.7317696   4.1785046
 113.9966011  98.8179874  88.4321022 114.6579266  99.0836906  89.0710640
 113.6790466  97.9739189  88.7529564   2.1068428  15.2207160  58.5121202
   2.8435379  15.4888749  57.9629374   2.3922911  14.3988204  58.9111710
  52.2909975  72.8464699  14.1245294  52.6945496  73.0539942  13.2817316
  51.4933729  73.3752584  14.1448355  55.3576708  31.4670706  57.4339867
  54.6119976  31.2607002  57.9975557  56.1116934  31.4636970  58.0236197
  50.0075865  83.4128380   9.1565746  50.6263876  84.0128422   9.5728755
  49.3178988  83.2895184   9.8087692  88.2116890  17.3581743  79.4895649
  87.6476002  18.1103635  79.6691084  87.6116848  16.6745913  79.1913509
  39.9808288  48.4206724  66.4601421  40.8144569  48.7206078  66.8225431
  39.8241496  48.9962626  65.7115555  22.3243403  36.2577868  78.9938879
  22.5182223  35.4920602  78.4532356  22.3822308  35.9365177  79.8937035
 115.0425625  41.8966246  59.0213156 115.0591469  41.6818333  58.0886698
 114.7184944  42.7967024  59.0540838  28.2942271   9.8579985  48.8728094
  28.7867975   9.7968739  48.0543518  27.5953674  10.4846966  48.6855268
  99.8145962  33.4433055  48.9868450 100.2142048  32.5829959  48.8587427
  99.1589069  33.5086012  48.2925558  90.9479427  43.8547468  61.4243317
  90.4630756  43.9698410  60.6070900  90.6179428  43.0316734  61.7847300
  21.2111139  21.5930176  91.3158512  21.3662863  21.3437819  92.2269154
  21.1255479  20.7606220  90.8510685 113.9637280  38.9890122  60.7896423
 113.3629608  39.3915677  61.4167500 113.6959171  39.3417549  59.9410677
   1.7319763  39.5159554  61.2271643   1.8295243  39.5180559  62.1793795
   0.8788520  39.9216819  61.0729027 112.2047615  14.7315812  16.4375281
 111.8548870  14.4384849  15.5961514 111.9511795  15.6528175  16.4945459
  45.6607866  22.1156359  62.3374987  45.6444454  22.4688172  63.2270050
  44.7431755  22.1100616  62.0651150  80.6265545  33.2955813  61.4245224
  79.8291731  33.1548643  60.9140253  80.8620930  34.2076015  61.2543154
  92.4587727  31.8324995  70.0199175  92.3310280  31.2871933  70.7961607
  91.5731239  32.0726418  69.7475243 118.0161476  40.7500029  47.0593548
 117.3754215  40.0644255  47.2482443 117.7121162  41.5066576  47.5606251
  31.3740206  12.8447390  88.6299896  31.4122796  13.3729267  87.8326225
  30.6317449  13.2012105  89.1180325  64.3067408 106.7991924  85.0902939
  64.1112947 107.7279568  84.9660492  63.9287663 106.5869713  85.9437084
 101.1372471  47.4177361  61.8230677 100.6029797  48.1614065  62.1018982
 101.8145180  47.8041649  61.2679005   8.7125260  18.8299870  73.5229015
   8.3441550  18.0162168  73.8668680   8.0023241  19.4667983  73.6023808
   9.4158429  44.1591358  64.7490788   8.5486877  43.7539673  64.7597265
  10.0235498  43.4225893  64.6825695 103.7566090  24.6982884  78.7562609
 103.6278248  25.5695701  78.3814049 104.2170334  24.2096734  78.0739832
  84.5385551  49.8540878   1.8805385  83.7319279  50.0688267   2.3490201
  84.5168877  48.9013720   1.7905620   7.6007146  13.0329347  51.6136408
   8.5013080  12.7411520  51.4721298   7.5755930  13.2947516  52.5339985
 107.5955200   5.4270840  61.9412994 108.2067013   6.1591399  61.8589497
 107.3360825   5.4341567  62.8626394  19.9612916  30.6562090  51.1773348
  19.7186887  30.3130007  50.3173447  20.6320047  31.3135982  50.9923601
  16.3756001   2.9809591  81.1439991  17.1738660   2.4596439  81.0589504
  16.3407707   3.2161421  82.0711994  19.7435951  27.0376754  75.0067997
  18.9331198  26.9517541  74.5048285  19.9714351  26.1401653  75.2492809
  35.0229692  42.9831457  91.7916679  34.6200967  42.2338057  91.3530159
  34.8889232  43.7142324  91.1885166   5.3412545  31.2521076  48.6942625
   5.1335305  32.0779538  48.2571602   4.5438159  31.0277486  49.1738319
  98.3647919  38.1146049  90.6836510  98.2405567  37.4768782  91.3865757
  97.9506874  38.9137673  91.0093498  17.8455436  44.3670797  50.3594875
  17.0352757  44.8656750  50.2541351  17.9084325  44.2084885  51.3013601
  33.4519744  11.8121326  58.0861855  32.6098561  12.1604443  57.7933598
  33.2221818  11.1110306  58.6960077 111.9223118  14.8967981  89.2142582
 112.6230145  14.3416047  88.8721848 111.1321735  14.5839083  88.7737846
   9.1808808  29.6236134  81.4406013   9.2969656  29.8932600  82.3516750
  10.0474632  29.3222642  81.1677361 102.0812988  22.3620200  39.3701982
 102.0110226  23.1983566  38.9099455 101.1748981  22.0824790  39.4987440
 116.3191795  23.3389306  75.8170033 116.9298077  22.6792645  76.1459303
 116.7501831  24.1746616  75.9959364   8.2711649  49.0132952  86.5236282
   8.3091092  48.6333227  87.4013615   9.1169643  49.4478464  86.4139843
  11.8016541  36.7876148  83.9945984  11.4186788  36.0375762  83.5396194
  12.6470709  36.9215083  83.5661411 117.7918625  14.7308826  66.1588287
 117.9339504  13.7851679  66.1996317 118.5697842  15.0711179  65.7168961
 116.8141651  41.0168648  54.2720127 116.3698673  40.4531860  53.6386871
 116.5972424  41.9067860  53.9941263   4.9660107  19.2360175  80.2520847
   4.1453409  18.7700200  80.0921440   4.7699264  20.1475883  80.0356960
  37.3082900  26.7659521  63.7726593  37.8941202  27.0638299  63.0767393
  37.8945732  26.4597631  64.4645739   6.6259539  76.0858774  77.5781965
   6.4620638  75.8423233  78.4892654   7.2232354  76.8318272  77.6334143
  33.2178736  37.7342796  77.4711895  32.7733517  38.5742664  77.3569345
  33.9802742  37.7864027  76.8947697  18.2731724  39.4671679  59.8569632
  18.8992357  39.8258638  59.2279863  18.1824839  38.5476875  59.6068287
  19.6992445  38.7807608  68.4416294  19.2065310  39.0369320  69.2212725
  19.8177683  39.5961952  67.9545403  16.0863817   4.2554554  61.5471554
  15.1791584   4.5192671  61.7007208  16.0940409   3.3135751  61.7175484
  74.6082544  86.1314869   0.5354708  74.9010420  85.4922295   1.1849825
  74.0347385  85.6346130  -0.0479939   4.2909989  19.3993151  48.7992096
   4.3699691  19.4398165  47.8461313   4.0415564  20.2868152  49.0568018
 106.8900394  40.7723665  77.1035242 107.3767281  41.5900183  77.2074795
 106.5237141  40.5997562  77.9708433  99.5117378  26.8636799  82.1949387
 100.2849293  26.4273000  82.5526714  98.7811756  26.5113211  82.7032280
  25.9845066  26.0885906  49.2469072  26.4262390  26.8878222  49.5338440
  26.5548587  25.7307720  48.5665417  35.4790640  21.2173223  86.5990639
  35.7065773  22.0932698  86.2873173  35.5005670  21.2896085  87.5532818
 107.4005890  25.4303741  82.6516628 107.7869701  24.6750569  83.0948830
 107.0632648  25.0780630  81.8280697 108.8870049  21.9709897  68.0220890
 108.5409737  21.1648655  67.6391268 108.4959221  22.0085979  68.8949442
   0.9931700  59.4120455  79.0708447   1.8332396  59.3553305  79.5261431
   0.8093302  60.3502274  79.0233755  63.8034439  94.5406532   7.3483759
  63.7489843  95.0129795   6.5176105  64.3739748  93.7947845   7.1628773
 103.2495117  34.2548537  60.8218670 102.2949505  34.2654490  60.8920622
 103.4228516  34.3976808  59.8913908  15.6617761  30.7769156  76.5504551
  15.4296398  30.9554911  77.4617434  14.8402596  30.8782411  76.0697508
  16.2358046  54.0409899  80.0436306  15.7149088  53.5416317  80.6725502
  17.1413720  53.7977028  80.2359486  39.7352648  40.1620770  50.1997471
  39.2569518  40.0596046  49.3769789  39.0522933  40.2590179  50.8633614
  33.3932233  49.4432068  62.9283619  34.0392208  48.9462996  63.4303665
  32.5490284  49.1693020  63.2868958  45.4422474 102.4680901   0.9671850
  46.3453293 102.1512032   0.9832896  44.9239588 101.7309093   1.2899464
 104.8592949  60.9237289  77.7326488 104.7413063  61.6815710  78.3053541
 105.3267097  60.2861500  78.2723284  24.7035837  25.2429128  54.4449806
  24.8276138  25.0749564  53.5108280  25.3343129  25.9330988  54.6500540
  15.7714343   1.7800368  48.9851284  16.4476538   1.5532497  49.6235037
  14.9566054   1.4669773  49.3779087  85.5170345  64.0906811  57.1552896
  85.6030083  63.5790062  57.9596710  84.8623371  63.6191177  56.6402864
  76.9206381  97.7606392   2.7800271  76.0491610  97.3925114   2.6342872
  77.2607660  97.9263115   1.9007683  13.7149632  66.1836624  71.4816713
  13.5566163  65.3086185  71.1274815  12.8654873  66.4602757  71.8253422
   1.1327944  44.9188471  36.6444993   0.5318451  45.4514742  36.1235356
   0.8169797  44.0222549  36.5322113 106.2131214  31.9705892  92.2692299
 106.1512852  31.4723206  91.4542866 106.8595505  32.6520371  92.0848465
  59.7554350  17.3930836  66.6723204  60.4410124  17.4901533  67.3332262
  59.1542673  16.7474961  67.0438623  99.7820568  19.5496047  82.8378296
 100.4001045  19.9609208  83.4420395  99.5635319  18.7141168  83.2506752
  24.0355277  18.9525819  45.6234121  23.6930370  19.5537019  44.9619102
  24.6428657  19.4838524  46.1383152  88.4078503  66.7658091  82.5970078
  88.5032940  66.9463587  83.5321617  87.4885845  66.5200567  82.4931240
  41.0651255  15.8431613  63.3983946  41.1616325  16.2464345  62.5356722
  40.1327562  15.6364846  63.4632301  90.0220966   5.7741988  12.3285556
  90.2286530   6.4766943  11.7120624  89.0865421   5.6141531  12.2046018
  10.9347689  47.0357418  54.9769258  10.2003896  46.4380407  54.8366737
  10.6400979  47.8680897  54.6073294   9.0770227  24.0686464  63.0973768
   9.1069412  23.2707453  62.5694609   8.7675184  24.7438455  62.4936008
  58.4984493  96.4065170   4.1733080  58.1989288  95.5159950   4.3563277
  58.9172983  96.6901016   4.9859434 114.3432426  28.5752702  70.0137568
 114.5756626  27.7985191  70.5225420 114.4121647  28.2935429  69.1015530
  74.3427038  79.9355745  10.2913034  74.9781084  80.4617500  10.7767189
  73.6191940  80.5367947  10.1143718   5.3912389  20.1861620  57.9474688
   4.8103279  20.5382919  57.2730970   5.3724611  20.8408880  58.6454773
  24.8990798   7.3304385  46.0900068  24.3182373   6.5698040  46.0730028
  24.3181729   8.0785352  45.9517002   3.6566439  40.5733442  73.3937073
   4.4387481  40.3222466  73.8851309   3.6634839  40.0031090  72.6249313
 100.9305859  31.4808559  61.3253212 100.8275127  31.9123268  62.1735191
 100.5829144  30.5994320  61.4611530  28.0140853  58.6126757  89.3484783
  27.4707556  59.3993378  89.3952560  27.9802370  58.2453299  90.2317333
 106.6711617  44.9816036  50.6864929 106.0834503  45.5549002  51.1785841
 107.5477219  45.3133345  50.8810139  30.7965016  28.6561298  61.2901068
  29.9780965  28.1684780  61.1971664  30.5645657  29.4129324  61.8283319
  91.4185524  64.2887688  65.1561832  91.0141563  64.5327282  65.9887600
  90.7012177  63.9207077  64.6402454 113.5595131  51.0574913  74.3047142
 112.6667404  51.3013601  74.5490742 113.8702106  50.5227423  75.0352955
  23.5542655  17.9740655  36.6481209  23.9857769  18.2352269  37.4616456
  24.0913963  17.2567606  36.3116741   7.6344287  69.0533590  62.3107624
   7.3285288  69.8004293  61.7964268   8.0300862  69.4446802  63.0895805
  81.0185623  26.1132026  62.1047831  80.5714512  26.9456291  62.2577286
  80.7134151  25.5440736  62.8113270   7.1374809  38.8009114  95.9470657
   7.9260647  39.0771146  95.4800651   7.3447287  37.9236645  96.2691140
 112.3439693  49.4924927  67.3161221 111.4788437  49.1260862  67.4992418
 112.3298645  49.6826887  66.3781118  13.0414653  49.7005653  44.1407204
  13.8116086  49.1735411  43.9277506  12.5933528  49.2040396  44.8254728
 112.3104191  39.2405438  58.5676384 112.6428318  38.6438775  57.8970194
 111.5253258  39.6253085  58.1780100  24.4267130  72.2584629  48.5705423
  23.6980247  71.8309164  48.1205940  24.1394830  73.1644249  48.6843824
 109.0275002  96.8248367  88.1676865 108.8699913  95.9441185  88.5079288
 109.8061562  96.7337227  87.6184845  19.7885060   5.5271006  75.7344484
  20.6636858   5.6162637  75.3571653  19.2485070   6.1388505  75.2340555
  50.5441952  65.5521393   6.4511269  49.8932171  65.5532265   7.1528822
  50.2138805  64.9137402   5.8190089  14.4529629  66.4711380  54.4490290
  14.1939735  66.3577080  55.3635168  15.4075754  66.4016771  54.4600677
  26.7871284  41.6907310  62.1429300  27.1121097  40.8156204  61.9312572
  26.1879206  41.5527487  62.8765106  21.6181159  84.6889877  10.2648759
  21.2027550  85.5490971  10.3274155  22.5272751  84.8783493  10.0329244
  34.1013932  45.5465937  75.2630091  33.3293104  45.1282740  74.8820543
  34.1098309  46.4251041  74.8830366   6.6157323  48.9325666  48.0947018
   5.9317678  48.9927483  48.7616348   6.3895011  49.6103430  47.4577761
  98.9255333  39.2646813  73.6184931  98.5328674  39.7372770  74.3524551
  99.2080975  39.9517512  73.0149031  24.5125699  59.5935822  75.6056738
  24.5671511  60.0052118  76.4681196  24.7902179  60.2772570  74.9959755
  44.9799681  24.6324420  68.1352329  44.6905994  25.1943398  68.8540983
  44.3018818  24.7304106  67.4667835  94.4659042   9.5809114  85.5179024
  95.3876495   9.5474875  85.7738495  94.2554379   8.6826587  85.2627945
  14.9999535  54.2878485  73.7675095  14.2982519  53.9917135  74.3472958
  14.7389102  53.9807558  72.8993034   0.2801787  42.1994352  95.1913071
   1.1766135  41.9689655  95.4352665   0.0834357  41.6364241  94.4426155
  16.1137986  16.9432819  74.3118000  15.6363726  17.4080122  74.9990559
  16.9510150  16.7137241  74.7150421   5.4786092  37.3015666  68.5783863
   5.9415156  36.7075062  69.1691828   6.1366343  37.9493141  68.3260775
   4.3670228  38.6883521  60.6708765   3.4911615  38.9835238  60.9198236
   4.6030903  39.2406893  59.9256039  12.5823975  34.8898911  61.3885403
  13.1618965  34.4649482  60.7562160  12.9841685  34.7119188  62.2389174
   9.1811877  69.2525434  70.1078176  10.0731349  69.1789913  69.7683287
   9.0855998  68.5023022  70.6945324  36.5619159  56.4288235  93.5332966
  37.2964382  56.7390156  94.0629101  36.0136652  55.9400177  94.1470718
  80.3261662  11.0976946  94.1988277  80.6945801  11.9675612  94.3532276
  80.5594540  10.8961773  93.2926273   5.0381607  15.5796540   5.5552870
   4.5960060  14.7809887   5.8431506   5.9673500  15.3498828   5.5486012
 103.5949421  32.2233081  84.0504360 102.6674938  32.1656942  84.2801285
 103.9231777  32.9620838  84.5629692  42.0103550  32.3662066  39.2582202
  41.7463398  33.2399035  39.5466328  42.3472404  31.9446301  40.0487947
  22.5184202  76.9625902  58.4466314  21.6413689  76.7095757  58.7347269
  22.4538779  77.9030085  58.2802629  23.0657053  61.6005421  32.3307824
  22.9429936  62.0373964  31.4879680  22.6295853  62.1722221  32.9626155
 116.9302750  36.9934177  70.3518581 116.6637230  37.7980399  69.9071503
 117.2702026  37.2880673  71.1967611  16.6305459  55.2287722  48.6905050
  16.5653646  56.1387968  48.4009600  17.5115871  54.9578428  48.4324408
  14.0759408  28.3721066  69.0448380  14.5316911  27.6038647  69.3888283
  14.5437694  29.1170478  69.4222403 113.7463665  65.5602121  53.6100388
 114.5055008  65.0624132  53.3065033 113.0651665  64.9009943  53.7427950
  68.7055635  91.8994999   8.7415332  69.0927172  91.5369701   9.5383525
  69.4377947  92.3171520   8.2880634 101.5368176   3.1540033  39.5336699
 100.9148407   3.8477173  39.7530603 101.1924648   2.3760438  39.9723411
   8.5758787  32.0604706  61.1076546   8.6327970  31.6560745  60.2419424
   9.4411051  31.9233489  61.4934158 101.6110325  73.0858707  63.9347649
 100.9172153  72.4380016  64.0577269 101.1568356  73.8655090  63.6152411
  65.5495262  84.9453163  16.4383733  64.6818638  84.9815273  16.8409717
  65.4046917  84.5155525  15.5954301  39.8292422  46.0635042  54.3689632
  39.0857172  46.5773916  54.0538073  40.5968380  46.5874720  54.1398525
  21.8641877  45.8087254  58.3490801  22.2128892  46.6819620  58.1699324
  22.3040748  45.2407503  57.7165127  31.1102819  37.9688287  80.6985569
  30.2826071  38.0910516  80.2335262  30.8695149  37.4977851  81.4962864
  39.0224195  15.9185159  92.5688648  38.8885570  15.0670767  92.9852295
  38.1694460  16.3492537  92.6248360   5.1110095  35.1635885  63.8403225
   5.9345984  35.1597095  63.3525562   4.9045607  34.2378330  63.9691210
   8.2804036   7.3066139  87.9986095   9.0916872   6.8003798  87.9564381
   7.8069967   6.9386649  88.7447548 115.4214287  21.6656876  63.5859251
 115.0425243  22.3276711  64.1642284 114.9488449  21.7702842  62.7601194
 105.4992867  17.3120165  84.4659901 105.0690651  18.0009532  83.9595222
 105.9041405  16.7477775  83.8072300  68.6620378   1.0747373   3.9052349
  67.9934168   1.1257084   3.2221690  68.7246895   0.1417810   4.1099289
  37.8836513   4.0096918  59.7307825  37.9740739   4.6423838  60.4433537
  38.7246847   3.5532278  59.7076178 103.4672165  48.9501429  49.1698694
 102.9930115  49.4683695  49.8201036 103.4699631  49.4964600  48.3838892
  41.7737484  38.9701056  22.0459247  42.1496534  39.6276832  22.6311755
  42.5188160  38.4299994  21.7824960 112.3526859  64.2628479  70.2858543
 112.2407246  65.0048685  70.8800793 113.0679226  64.5256996  69.7065687
  17.9491627  16.0739815  59.8597574  17.7108479  15.1971292  59.5588112
  17.5248396  16.6644263  59.2372179  19.9998713  51.3114023  52.7566671
  19.0542412  51.2652779  52.8976965  20.0999928  51.8680859  51.9844580
   2.5808465  21.1422133  92.7980423   2.0271918  21.4753342  92.0918274
   3.1206217  21.8906212  93.0525303 117.2929878  11.9760537  95.2297592
 117.0080287  12.8830564  95.1185036 117.6224085  11.9369161  96.1276340
  10.3314078  78.2876301  45.5566883   9.5157325  78.7005091  45.2730703
  10.7862675  78.0717516  44.7426081  22.9439354  62.3966074  10.3437495
  23.3829665  62.3600769  11.1935437  22.0539021  62.0920372  10.5206931
 103.1035995  65.4987812  79.4661617 102.3053074  65.7615423  79.9243307
 103.1974125  66.1398649  78.7615728  31.0411119  45.0240040  71.3451958
  31.4775801  44.2091942  71.0965633  31.1588907  45.0790834  72.2935247
 109.6064281  48.6670828  67.6769829 108.7734127  49.1268635  67.5724697
 109.3967724  47.7492857  67.5040054  72.0905876  89.2603397  10.6934202
  71.8337297  88.3677387  10.4620755  72.1064234  89.2645741  11.6504800
  46.2375307  76.0539246   2.2633904  46.1291981  76.9142532   1.8580207
  46.7997360  75.5723238   1.6565821 113.2938290  43.2275295  51.5313959
 113.4003258  42.2984266  51.7355013 113.9093208  43.6727667  52.1137762
 117.1921444  14.0536976  56.3122892 118.0393028  14.0044069  55.8694267
 116.5541744  14.1220701  55.6019783  17.2678900  65.0762796  92.8101063
  18.0327010  65.6278038  92.6454449  17.5687790  64.1872406  92.6222038
  41.0519552  39.4652724  85.2879143  40.5188990  40.2400923  85.4660702
  41.1998367  39.0732431  86.1485386 106.7891788  44.9466896  71.5908289
 106.7523479  44.2795801  70.9053850 107.6286697  44.7971630  72.0257235
 104.4826984  37.1786952  60.9669733 104.1851330  36.3268471  60.6475401
 105.0096416  37.5324488  60.2504444  12.8943539  99.7168446  66.7102146
  13.5225344  99.9450016  67.3954582  13.3691478  99.1097832  66.1425209
   6.7183459  62.2204256  71.1538553   6.8227875  61.4095449  71.6516495
   7.1030611  62.8957176  71.7126036  36.5396667  65.1247787  95.7464123
  36.5125680  65.8143377  95.0830841  36.0701537  65.4935694  96.4945984
 113.9251900  43.9535379  44.8475075 113.4140682  43.2293892  44.4861269
 113.4576702  44.7402096  44.5667744  36.2427855  20.6938386  84.0556717
  35.8861065  20.9278440  84.9125576  37.1531105  20.9880757  84.0866852
  69.8356152  13.5391700  60.4537106  70.4365540  13.5188138  59.7089386
  69.4060469  12.6839137  60.4383039  20.0579357  50.3903151  60.0911856
  19.5047581  50.7233000  60.7978344  20.1027012  51.1106157  59.4623804
 114.7208309  63.2035351  40.3787231 115.5092335  63.0934191  39.8471928
 114.7501183  64.1166639  40.6643248  32.1948528   9.1276765  58.6606693
  32.3205376   8.9612645  59.5948792  31.5896297   8.4434152  58.3748007
  55.0312519  28.6635947  69.1757107  55.5750322  28.0101633  69.6156693
  55.6578064  29.2571068  68.7616968  24.0625381   6.6258347  54.9354362
  23.6853004   7.2269064  54.2930698  24.5417523   7.1918774  55.5405664
   8.1113547   6.2711734  34.7543669   8.6622292   5.8894861  34.0709305
   7.2541952   6.3747025  34.3410993  20.9611320  11.2419522  57.2703981
  20.6570983  11.1663175  56.3659191  21.4267159  12.0778537  57.2974682
 117.9008770  27.0266175  88.1370735 116.9510174  27.1429896  88.1585217
 118.0251122  26.1254120  87.8393745  32.8406405  49.0746450  83.5921478
  31.9341111  49.0451384  83.2862663  33.3531332  49.2590618  82.8050232
  51.3660479 108.1122303   8.0228233  52.2426224 108.3382130   8.3339244
  50.7751513 108.6002064   8.5963690 103.5998917  84.6284771  72.9112339
 104.3807220  85.1805973  72.9524088 103.5954189  84.2862320  72.0173168
  73.0966473  31.0618377  81.7350101  73.0319929  31.8110943  82.3271751
  74.0184546  30.8065581  81.7714977 114.9107456  13.7499368  76.7424774
 115.8575249  13.8905120  76.7334747 114.5651817  14.4794083  77.2569609
  24.5665765  34.2981958  65.0161839  23.7491870  34.1941738  64.5290661
  24.8220587  35.2080059  64.8638439  66.8679333  68.5974693  17.1275604
  66.6247702  68.2915735  16.2537587  67.8141975  68.4609938  17.1743786
  99.4326210  71.2439823  64.3086481  99.2652035  70.3534079  64.0003014
  99.0401173  71.2730932  65.1811934  76.8026543  22.9379773  85.6396294
  76.6066599  23.2699609  84.7634983  76.8446875  23.7209821  86.1885929
   2.1146584  24.6431541  65.8453321   1.4434648  25.2373123  66.1810493
   2.9427528  25.0405240  66.1147547 102.5843716  15.3565621  48.1735849
 102.5266361  15.7481110  47.3020411 102.0004177  14.5991015  48.1350279
  28.4615541  32.1690273  64.9424934  28.3194542  32.7511096  65.6889629
  27.6025128  32.0995498  64.5260143  15.4666305  70.5768776  78.6289978
  15.8343279  70.5859423  77.7452850  14.9342406  71.3710260  78.6750555
  14.1194272  43.3893347  66.8852615  14.5920277  43.5058117  66.0610580
  14.6982932  42.8443718  67.4183273 108.3050251  46.4518309  88.1566811
 108.9425564  46.1373663  88.7977028 107.4560547  46.3198185  88.5786343
  41.0789394  25.5292487  84.8014355  41.4162445  25.1256323  84.0017128
  40.2905369  25.9940219  84.5210075   0.4645159  62.1791315  50.8396244
   0.9767222  61.5143728  50.3792191   1.1057018  62.6483393  51.3734341
 106.0418701   8.2222861  56.1981344 105.9966278   8.3519310  57.1454382
 105.5856228   8.9793116  55.8307314 110.5393600  37.5936437  90.4304981
 110.7820320  37.2955966  91.3071442 111.1533833  38.3028412  90.2401257
  14.5853019  12.5626993  65.2688122  15.0690997  12.2765982  64.4940138
  14.5197546  11.7782748  65.8134365  18.4886515  44.7201586  69.3490362
  18.6988938  44.9816513  70.2454996  19.3401504  44.5928860  68.9307261
  25.0610852  31.8764806  58.6120129  24.1982579  32.0266199  58.9983034
  25.3394771  31.0327864  58.9682579 103.8519001  34.7198462  96.0234833
 103.8571072  33.8963962  95.5354977 104.6135998  34.6613121  96.6002083
 108.0729580  23.0315971  58.7388611 108.9005566  23.1983399  58.2877493
 107.4487877  22.8522134  58.0356741  30.4524589  35.1053786  50.2797651
  29.7518468  34.8235893  50.8679581  30.9589219  35.7338285  50.7943296
  35.6276727  23.5593033  52.0231438  35.5277491  23.4088230  51.0831404
  34.7566938  23.3972144  52.3855686 117.7796555  44.2639828  70.0968456
 117.9870319  44.5793247  69.2171955 118.2715034  43.4470940  70.1805830
   7.8259504  31.0114765  84.4227409   7.4152201  31.7465496  83.9675522
   7.5892478  30.2444458  83.9013386  44.0107775  44.3098450  86.6723728
  43.6463737  44.1223574  85.8073330  44.2930984  45.2229977  86.6205502
  40.6655502  40.9817410  88.3402824  41.3008785  41.6880751  88.2233238
  41.0859394  40.3809071  88.9555168  51.8892670  64.4301414  10.8558714
  52.1940565  63.7794685  11.4882946  52.1735144  65.2688217  11.2192559
  97.4443245  15.9377718  28.7042761  98.2625484  15.7770610  28.2342482
  97.7029228  15.9897625  29.6244168   7.2650176  78.8666010  55.6280756
   7.1110970  79.8041630  55.7443571   6.6022569  78.5918522  54.9944448
  97.1374416  15.8202934  61.9735765  96.6958141  15.1387358  61.4669418
  97.3716545  16.4857876  61.3266659  30.1497769  47.6511574  78.2935762
  29.3033648  47.3000240  78.0169487  30.4258394  47.0762682  79.0073872
  93.8294029  14.0968192  75.8404255  94.6285343  13.9318264  76.3408232
  93.5473728  13.2304502  75.5470085  30.7183504  54.4932175  58.5552073
  29.7647858  54.4117117  58.5726547  31.0048127  53.8220119  57.9358053
   3.2371899  33.2532167  93.7920952   2.5929227  32.5803304  93.5721493
   3.8351631  33.2656693  93.0447674   0.5374038  32.5887203  88.9581108
  -0.2056062  32.9399705  89.4488144   0.3750782  31.6461611  88.9198017
  97.4752331  24.7721481  77.7303457  98.1286144  24.8869061  77.0403004
  96.8485451  24.1474605  77.3653030  46.5183258  27.4200535  85.9816647
  46.1164618  27.1693826  86.8134689  47.4546528  27.4711037  86.1737919
  14.1664350  40.1872635  64.9901295  14.3723845  40.9761047  64.4885826
  14.7191989  39.5073700  64.6048689   3.8007769  79.5026684  81.6982460
   3.0484995  79.5386076  82.2890282   3.7808335  80.3394508  81.2338829
   3.4998187  38.7558579  71.2463236   4.4121331  38.7644196  70.9567690
   3.4123728  37.9395199  71.7384386  10.5410850  38.5338330  61.4749908
   9.6744239  38.9061904  61.3122654  10.9548450  39.1467476  62.0827484
 117.3711967  61.4628792  36.2057066 117.4750805  60.7156563  35.6165576
 117.4880791  62.2289562  35.6438327  51.6095877  73.5713625   3.7568542
  51.1167765  72.8894949   4.2133883  51.8878126  74.1703749   4.4496807
   0.5050792  37.9553461  55.4621983   0.8361423  38.7146449  54.9825191
   0.2319839  38.3076239  56.3092852  33.1654263  36.1502194  83.2804775
  33.7810135  35.4913998  83.6017799  32.7874923  35.7605720  82.4920750
  37.5055623   8.4640568  84.3835831  37.8688502   9.0570569  85.0413036
  37.9026484   7.6156783  84.5805740  49.3153858  94.8214531  14.2765665
  49.9102592  95.5082226  14.5777392  48.6043882  94.8224449  14.9174333
  20.4993534  41.6995192  47.5128365  19.8440468  41.2627459  46.9687510
  21.2904310  41.1714315  47.4053526  53.5070419  26.9264555  55.1826906
  53.3395100  26.9531369  54.2406464  54.4492865  27.0747924  55.2626944
  40.8816481  27.8195333  51.9303083  41.0174751  27.2802401  52.7093744
  40.0289154  28.2313824  52.0697927  57.6040363  35.9249449  60.2917099
  57.4353647  35.0180674  60.5473566  57.0885468  36.0489678  59.4947672
   4.2067719  38.2516432  53.9773560   4.5488173  37.3968863  54.2393208
   4.3036154  38.7977195  54.7575140  72.9888535  95.2366352  10.4258490
  72.6304626  94.3497753  10.4614186  72.8955984  95.4960728   9.5092076
   3.9656851  32.8045249  73.2869816   3.5417885  33.0526519  74.1085529
   3.4166637  33.1946564  72.6068306  24.5654011  46.8600368  88.4231091
  25.2135992  47.1099710  87.7646255  23.8940310  46.3874483  87.9310131
  25.7281947  21.3251352  54.2315388  26.0078788  20.8802915  55.0316143
  24.8275256  21.0306954  54.0961313  23.3327341  19.1463065  81.4699364
  24.1305780  19.2667198  80.9549809  22.6215720  19.2520726  80.8380413
  35.2765179  39.2631173  60.6403828  35.2240372  38.3556557  60.9403706
  36.0970592  39.5901966  61.0091162 103.4032536  28.6306262  57.9286861
 103.6649704  29.1544771  58.6858654 104.0870953  27.9655361  57.8496742
  11.6209495  20.8957958  34.5132828  11.2799454  21.3469076  33.7409830
  12.5634658  21.0612702  34.4906330  10.3042626  35.2189279  70.0875473
  10.0433600  35.9138942  70.6918478  10.3769648  35.6547022  69.2384005
  11.0610390  30.7864070  63.9249754  11.8737400  31.1695766  64.2550230
  10.3839183  31.4200974  64.1619921 102.4051094  52.8817320  66.6966105
 101.5899181  53.3451748  66.5044689 102.9205990  53.5056686  67.2076893
   1.0155000  38.0845881  65.7920122   0.1751266  38.0464435  66.2486839
   1.6658524  37.9093695  66.4721346  40.0698233  33.7634039  92.1933937
  40.3745031  34.6649957  92.0907497  40.8665276  33.2584047  92.3560810
  15.7218325 103.9856529   2.1886042  16.0626698 103.4018326   2.8662598
  14.8077571 104.1292191   2.4337286  31.0801744  24.5245504  73.7742424
  30.4090977  25.1017165  74.1386127  30.8942294  23.6681175  74.1591787
  97.8499985  47.8950167  71.6021919  97.7724361  48.8415194  71.7219687
  97.8716660  47.7747107  70.6528330  94.1362762  23.5276985  87.0000839
  93.3103371  23.0679917  86.8493176  94.6682358  23.3228469  86.2311363
   2.2019778  35.0657225  33.2665181   1.9415364  34.4147325  33.9181447
   1.5800044  34.9480224  32.5485158  39.6950626  23.5413122  86.4246082
  40.1112700  24.1242576  85.7896423  39.3453860  24.1280890  87.0951653
  54.7189713  81.9520569  34.5413923  54.6996307  82.8080368  34.1134238
  54.4937181  81.3322544  33.8476062  95.2651691  36.4662194  72.8803730
  94.4035149  36.1861038  72.5716066  95.8120441  35.6841350  72.8062487
 112.7528191  52.1418953   9.6428126 112.9955482  52.9935455  10.0061285
 113.1428146  51.5057659  10.2423763 103.6579800  45.8518839  55.8692741
 104.2306995  46.3278627  56.4706612 104.2568779  45.4112482  55.2664518
  13.8198423  49.0708065  82.8554726  13.4819639  48.3314514  83.3608723
  13.8402104  49.7973490  83.4783363 115.5247116  35.2311516  74.5752096
 116.0613251  34.6729302  74.0124798 114.6830273  35.2886152  74.1229916
 113.7406921  51.7317104  67.4244642 113.0981541  51.0241699  67.3719645
 113.9839458  51.7661810  68.3495998 115.5227947  76.0625696  52.7834129
 116.1339474  75.4376125  52.3933554 115.1843071  76.5621471  52.0403910
  30.5108690  43.5122204  53.4333563  30.3230953  43.0124187  54.2278194
  31.1095786  42.9551935  52.9358625  36.8412614  70.5392933  17.1024644
  36.9796634  71.4541721  17.3475575  35.8900571  70.4471540  17.0481491
  86.8165302  12.0009363  15.7246590  86.4239788  11.2288618  15.3171790
  86.4408207  12.7407610  15.2474427 103.4819317 104.2598820  89.6436501
 102.8233528 104.9522400  89.6997356 104.3175602 104.7258854  89.6154690
  17.9471767  38.1865668  78.0109310  17.8957188  39.1412950  77.9653692
  17.4826479  37.9598451  78.8165665   2.8632373  36.5051126  72.3413849
   2.3609689  36.4142323  73.1511354   2.9021341  35.6184387  71.9828701
  32.3283648  13.4957504  54.6777439  32.4336028  13.7053406  53.7497187
  33.0473304  12.8939128  54.8703909   4.0375385  38.8144851  92.1410370
   3.4664667  39.5600939  92.3259068   4.8192033  38.9745831  92.6698017
  21.8051577  23.7119889  94.6245098  20.9334683  23.9877343  94.3410492
  22.3081684  23.6370635  93.8135815  24.3010187  62.4627066  81.5012932
  24.9005437  63.0332756  81.0204029  24.5505524  61.5768766  81.2380886
  24.1442013  71.5084982  28.8024187  23.5168934  70.9657526  28.3247781
  23.8256288  72.4033308  28.6839962  90.6161213  98.7598896   3.9714941
  91.0082722  99.5403481   3.5799211  90.6598473  98.0979538   3.2814488
  43.6046600  95.2047157   4.1707513  44.0609550  96.0187721   4.3836823
  43.6440897  95.1507473   3.2158875  47.7304363  45.9718466  61.1498451
  47.6866102  45.1092863  61.5625143  48.6123180  46.2873077  61.3473225
  97.9633331   4.7121993   9.0206057  97.7412319   5.4780763   9.5500737
  97.1904755   4.5658040   8.4751725   7.7116615  41.1808348  47.7852631
   8.0877179  42.0158625  47.5067997   7.6949096  41.2325191  48.7409210
  22.6875329  40.4827547  45.6135702  21.8768907  40.6344175  45.1276779
  23.1395626  41.3262796  45.5945492  24.1834831  56.6557693  66.2143183
  23.5067320  56.7786312  66.8800068  23.9273548  55.8546066  65.7574034
  20.0200748  78.8606691  62.7046871  20.7881904  79.4302082  62.7477598
  19.9501276  78.4860563  63.5827541  21.5521860  43.6444139  64.3003750
  20.6756520  43.7185860  64.6777582  21.4047217  43.6213875  63.3548832
  28.8838768  60.3847742  58.3450556  29.8144722  60.4349566  58.5634708
  28.8084364  59.6042109  57.7961826  30.7559466  38.9576721  45.5463886
  29.9966455  39.3581581  45.9698296  30.6887770  38.0279279  45.7638597
   4.1507795  42.0205545  68.8076448   4.7520489  42.7586126  68.7077379
   4.5159709  41.5102625  69.5304632  98.7064266  13.5884392  38.7095284
  99.6425438  13.7573385  38.8163090  98.3557606  14.4027364  38.3487248
   7.5001407  28.2077408  69.0817070   8.2284373  27.5868917  69.1007566
   6.7515093  27.7088499  69.4086504  33.0934572  37.6234293  38.8801551
  33.6527824  37.1045041  38.3021379  33.0646539  37.1247005  39.6966553
  34.2731690  58.7751913  35.8887863  34.4575834  59.4461823  35.2315235
  34.6352744  57.9705524  35.5177522  47.3240566  41.0794401  65.0508976
  48.1866646  41.3818169  65.3349924  46.9357967  41.8381786  64.6152353
 100.6653881  90.5059147  64.3084145 100.0667477  90.5430412  65.0543976
 101.3603020  89.9101448  64.5883942  31.2167954  18.8256097  73.7132835
  31.9807029  19.3638325  73.5059357  30.5881119  19.0246654  73.0194759
 115.8887005  35.5679035  81.3122845 115.4643726  35.1786470  80.5476570
 115.3404140  35.3034782  82.0510006  41.5607405  33.8248682  69.9342871
  41.1277008  34.3240142  69.2417860  41.5014458  32.9140615  69.6459293
 100.8764076  27.3390579  57.7843046 101.5826607  27.9829597  57.8374958
 100.8961678  26.8914628  58.6301804  34.5953798  10.7957423  91.7415619
  35.1841950  10.8508885  92.4942207  34.0643692  10.0172281  91.9094181
 108.9694977  24.7799540  12.1149826 108.5135841  24.0674567  11.6669631
 108.2841873  25.2290773  12.6098299  37.5492859  58.5046291  68.6583424
  38.1918406  59.1608953  68.3887672  37.9754019  57.6657772  68.4823227
  52.9800320  72.2261095   1.8329322  52.5228500  72.5273275   2.6180989
  52.3601103  71.6339588   1.4071502  33.8508892  52.0854759  62.3951054
  33.8159442  52.5777054  63.2152987  33.6408281  51.1860561  62.6464081
  32.1927404  40.7241964  92.2459316  31.8813348  41.6268158  92.3132610
  31.4032459  40.1909256  92.3384094  25.0219011  79.1210461  57.0584822
  25.1553154  78.1807947  56.9386578  24.5114040  79.3897772  56.2946701
  36.5605140  45.6704760  78.7291479  35.7153010  46.1121559  78.8114071
  37.0490503  46.2031651  78.1016111   2.6664528  52.1230221  73.7299252
   2.1877939  51.2941122  73.7248898   2.0862435  52.7373791  73.2803154
  16.5329671  37.8345108  66.4047432  16.6656005  38.6237097  65.8795738
  17.3677683  37.3690772  66.3526917  54.8925066  66.3243055   5.8187580
  54.0640259  66.2010479   6.2820727  54.9252653  67.2625589   5.6321168
  24.5172644  65.1057720  73.9091921  24.4509411  65.6024313  74.7247696
  25.3022623  64.5691061  74.0187359  82.0146847   0.8636972   9.4730330
  81.1855602   1.0772173   9.9010515  82.4854660   1.6962098   9.4340521
  18.9817572  31.3144279  53.6688900  19.1200864  32.2533107  53.5440111
  19.1252208  30.9338593  52.8023911  22.2903967  49.3334150  86.6402531
  21.3909388  49.6537495  86.7080212  22.6382709  49.4065046  87.5290012
  28.8625932  59.7515583  72.9220343  29.0158081  58.9133835  73.3581829
  27.9100895  59.8457146  72.9119396  33.9490652  13.7972963  91.6523647
  34.5804501  14.1905200  91.0499001  33.9146662  12.8758633  91.3954449
  76.0058832  88.5353851   2.1428829  75.5686188  87.8317928   1.6633204
  75.8924055  89.3085384   1.5900756  93.0848694   8.5863292  11.6067779
  92.1326542   8.5136241  11.6718745  93.3954811   8.4761536  12.5054491
 114.6982861  51.5661716  70.0452375 115.2023125  50.7555103  70.1160812
 114.7642517  51.9657850  70.9125233   5.9820980  64.3097782  76.4727354
   6.8339467  64.3510389  76.9073391   5.3489083  64.4797659  77.1701622
  48.3151484  45.7839823  68.1036615  47.4906588  46.2634754  68.1845093
  48.2200241  45.0416613  68.7004328   8.7072420  21.7520761  61.3134575
   7.8687787  21.4724827  61.6809368   8.4699845  22.3146105  60.5762386
  25.5691338  24.9209738  44.6317959  25.0021195  25.6164932  44.9649334
  25.7795167  24.3937159  45.4024887  58.2130003  81.8758965   0.3638877
  58.6106539  82.3791981   1.0743815  58.7000990  81.0519886   0.3522204
  50.7730961  42.3706961  63.7752771  50.3856087  42.1014786  64.6081114
  50.4650927  41.7185879  63.1458998  25.5319285  33.7945390  41.6658640
  26.4840937  33.7363267  41.5869713  25.3614950  33.6783385  42.6005745
  49.2872763  54.6500540  31.7263293  49.7683430  54.7248697  30.9021878
  49.1354656  55.5552292  31.9980693  21.1588717  77.6465130  44.2334652
  20.9382701  77.2951698  45.0960922  20.3151488  77.8832769  43.8483572
  37.2591352  57.6755905  37.5331759  37.0764327  56.7865038  37.2292328
  37.6054907  58.1256819  36.7626667  12.9894519  43.5843325  44.6342421
  13.1045103  42.9736423  43.9061975  13.3179474  43.1106377  45.3983974
  23.7891221  67.2325325  47.0246220  24.4013524  66.6188908  46.6186047
  22.9757166  66.7358303  47.1134472  41.1252642  27.6513267  41.1333752
  40.5874538  28.3544803  40.7692814  40.8290720  26.8630672  40.6782436
  19.4699109  40.5590248  66.6023111  19.1451323  41.4548731  66.6928959
  18.7073553  40.0554657  66.3174152  46.8707514  23.8334584  58.8336182
  47.3869562  24.6393657  58.8502407  47.4790621  23.1533766  59.1228962
   5.1491761  55.8207035  56.9111729   4.9068767  56.6855049  57.2422934
   4.7541636  55.7783699  56.0403109  47.6490831  68.8675642  45.3632450
  47.9768848  67.9976702  45.1350737  47.4972486  69.2949915  44.5203447
  18.0056095  66.0336542  79.2994213  18.8928187  65.7549858  79.0726280
  17.7219677  65.4095936  79.9674988 108.7872505  11.4179182  65.2247620
 108.2678223  10.9987056  65.9108257 109.6753693  11.4467871  65.5806446
  21.7347836  48.1641674  47.4262571  22.2831774  48.7309980  47.9686594
  21.3584137  47.5349760  48.0416393  23.1996465  61.3644075  69.0659094
  23.8713217  60.6856585  69.1320944  23.6745358  62.1440411  68.7780190
  23.1104040  60.3337002  83.5686684  23.3564353  59.6005869  83.0045414
  23.9103198  60.8532715  83.6487198  20.6670022  62.8977966  60.8638525
  20.7937956  62.4201155  60.0441122  19.7282970  63.0831671  60.8903122
  11.0119879  45.6737137  79.4359159  10.8808756  46.5637112  79.1088963
  10.2698231  45.5217695  80.0210094  13.4407783  48.1588888  59.9487448
  12.9940879  47.8893757  59.1462088  14.3095338  47.7622604  59.8840618
   2.3563851  53.6378574  65.1129580   2.3378889  54.4109488  64.5488453
   3.1935230  53.6972332  65.5732870  44.9669790  80.0653076   1.2369408
  45.6015968  80.6949425   0.8948056  45.1359892  79.2627048   0.7434906
  99.2293167  24.4739223  40.7169437  98.7311459  24.1956687  41.4854670
  99.3343163  23.6765003  40.1979780  98.5173893  99.3238449  14.5082605
  99.1951656  99.7567463  15.0273442  97.7105618  99.4628239  15.0041819
  12.7685797  28.9348221  72.5882864  13.6692309  29.2284656  72.7255154
  12.3297441  29.6863294  72.1896791   6.2452501  66.8390417  33.5159826
   6.8085474  67.5710201  33.2647157   6.7694438  66.3365173  34.1396189
  35.6752491  51.2429476  43.6932039  35.9546399  50.3935051  44.0347052
  36.1825657  51.3565874  42.8894949   9.5699608  42.0362616  56.1885405
  10.1691556  41.3029766  56.0489368   9.2097396  41.8880939  57.0629072
  52.9543829 105.2371979   1.9896355  53.5349369 105.7055950   2.5894636
  52.0994616 105.6497383   2.1127363 114.4954586  47.8643274  95.4604530
 114.9503040  47.0622253  95.7173252 114.9750233  48.1763411  94.6930599
 110.8010674  40.2576065  66.6332674 111.0883331  41.1631155  66.5159512
 110.7839489  39.8950982  65.7475328  54.3934441 109.6743774   2.9871580
  53.6086655 109.3186378   2.5702637  54.1076469 109.9172878   3.8678095
  38.8198781  70.4257774  44.6567202  38.5101318  70.2858973  43.7618923
  39.6484995  69.9486113  44.7006893  14.4484627  18.4494627  85.4759407
  14.5416021  19.2732799  84.9975204  13.6943507  18.0211711  85.0708294
  82.6117802  36.6641450  67.5098848  82.8008270  36.4267182  68.4176970
  81.6746044  36.8587828  67.5034094  22.7355742  63.0258894  54.1881561
  22.5176191  63.8975477  54.5182180  22.1373153  62.4384308  54.6499062
 114.3356419  71.8854427  51.0291052 114.2608261  71.4077806  51.8552256
 114.0954304  72.7852678  51.2501144  72.4434280  73.0458212  72.2371197
  71.8073750  73.6963987  72.5344610  73.2705879  73.3216143  72.6320553
  23.1665421  40.1772833  60.5426931  23.1531596  41.0082817  60.0678301
  23.1687427  40.4291391  61.4661646 116.0240746  76.0347176  77.5813389
 115.2020741  76.4817524  77.3795700 115.7550526  75.2074909  77.9807854
 109.2859364  66.1079884  86.6802025 109.3524265  66.2398481  85.7344627
 109.9824238  65.4839897  86.8845749  48.9624166  35.2008152  67.5183964
  49.6523571  34.5784831  67.7484274  48.7652969  35.0115895  66.6010284
  24.2455769  27.3870730  95.6071472  24.1013765  27.3574138  94.6613312
  25.1244593  27.0272493  95.7268333  26.4763713  40.1711321  85.3713608
  26.5457201  40.6436920  84.5418358  25.5350161  40.1070499  85.5325317
  42.0830631  48.7373829  71.2300920  41.2703180  49.0893078  70.8670187
  41.9711256  48.8056374  72.1782732   3.7639669  43.3437777  91.1937141
   4.4191301  42.9305792  90.6313419   3.2023898  43.8299179  90.5899525
  52.2140360  92.6560688   1.4332771  52.5204897  93.5527611   1.5683983
  52.0186090  92.3345566   2.3134302   0.4138461  37.1080899  92.0221901
   0.8147283  36.4892817  91.4117813   0.6210800  36.7581058  92.8886795
  15.1733053  56.2594223  52.2556496  15.1038384  57.0260191  51.6866732
  15.6986618  56.5587282  52.9977083  24.6027684  48.7737322  70.6126690
  24.2426801  47.9068422  70.4254198  25.1155615  48.9932156  69.8347855
  19.4766605  82.9457664  52.3361015  20.2340794  83.3906555  52.7163887
  18.8533938  83.6486149  52.1523380  15.8543313  46.0208941  79.6810627
  15.2410555  45.9755754  78.9475298  15.3050792  45.9229755  80.4588604
 118.4890758  57.1796513  65.1870060 117.9770236  57.5947905  64.4929647
 117.8359643  56.7685747  65.7533026   6.2497598  64.6047592  56.4072943
   5.9787828  63.7310791  56.6892385   5.6089169  65.1942301  56.8048811
  32.2505999  32.5695086  77.3896360  31.5861750  32.2347999  77.9919147
  32.9944849  32.7879477  77.9510164 117.8516068  93.3703899  66.1204147
 117.2283027  93.0431747  65.4718399 118.6660221  93.4886360  65.6315613
  10.7529116  15.1626706  72.5553942  11.6724205  15.4164743  72.4759007
  10.4686487  15.5487299  73.3838797  55.0729656 101.6652870  44.1132355
  54.7518158 101.0343361  43.4690332  55.4899836 102.3501492  43.5904551
  24.0582037  34.4810128  60.5716181  24.7848630  33.9627695  60.9174824
  24.3490553  35.3888535  60.6579876  14.3418467  31.9815946  72.3952961
  13.9884138  31.7259717  73.2473373  13.7191856  32.6275539  72.0617342
  24.7251439  34.3327761  48.2382202  24.0192151  34.6521831  48.8002491
  24.4463658  34.5598316  47.3511124  21.8898535  40.7858753  65.2474737
  21.6861129  41.6402149  64.8669100  21.1004710  40.5453253  65.7324886
 114.9799442  61.1147404  81.6291142 115.5213356  61.3701248  80.8821869
 114.1819954  60.7605886  81.2366009 111.9562721  42.9378366  66.6047859
 112.0581913  42.8717470  67.5542498 111.5511894  43.7939835  66.4664030
  29.9084139  43.0101633  58.0325747  29.2666864  43.4975386  58.5491848
  30.3816271  42.4816608  58.6752129   8.6349243  59.3698835  94.4033527
   8.5726351  58.4274673  94.5588970   8.1935370  59.7663069  95.1545238
  17.5552309  63.9448786  75.7670546  16.8988013  63.7139273  76.4243174
  17.3130548  63.4318304  74.9960995  11.5850449  44.9866629  88.5731983
  12.1621394  45.5178165  88.0245018  10.7317269  45.0372076  88.1424713
  24.5418859  38.2457256  68.5805130  25.3947020  38.1181788  68.1649780
  24.2621541  39.1143250  68.2915163  16.8384409  32.5901866  74.2488146
  16.5697134  32.5162578  75.1645422  16.0674834  32.9375291  73.8002539
  17.1522391  61.8646574  85.5215549  17.5695372  62.6273155  85.9221077
  16.3651776  62.2141647  85.1036835  20.4390144  31.1154413  47.8271294
  20.3724670  30.1734734  47.9836559  20.3344154  31.2088752  46.8802643
   5.2194673  73.9750385  52.5060701   5.6929427  73.5907984  51.7682266
   5.9034735  74.2118073  53.1324148  15.1842916  49.3387461  78.8164139
  15.6185412  49.4039059  79.6669531  15.8557665  48.9887953  78.2308483
  10.6829739  41.5607023  49.4853497  10.1133871  41.6924524  50.2432680
  10.7443583  42.4250698  49.0787363  73.5177517   2.2586741   3.3142960
  73.6846495   3.1933504   3.1928197  72.5699329   2.1981235   3.4334585
  40.5164289  27.7368617  60.2267885  41.4592457  27.6315379  60.0993729
  40.1837969  27.9808974  59.3630552  37.1402192  97.1382046   6.2279749
  37.5119472  96.2596607   6.1491674  36.3902116  97.0293713   6.8126768
  18.5988939  57.9368353  78.4383821  17.7007914  57.6338768  78.5720301
  18.5236895  58.8890409  78.3760929  22.1501923  63.9825296  51.5272093
  21.3202715  64.4046545  51.3052225  22.7781630  64.3456078  50.9026623
   6.8485290  41.5719604  32.6888609   7.6491737  41.8920612  33.1044769
   6.1452919  41.8573475  33.2721663 116.5030384   1.5220915   2.8365454
 116.5923309   1.9955906   2.0094676 117.3318291   1.0533909   2.9348856
 117.7784346  65.1778793  64.4174433 117.4445711  64.2825842  64.4741392
 117.8421950  65.3506899  63.4781313  21.2981558  52.1636915  75.9798288
  21.2024426  52.7567673  75.2346230  21.3717508  51.2943125  75.5861235
  27.4122167  65.1137400  50.7275915  28.1903791  64.9749327  51.2674284
  27.2281933  64.2548132  50.3473139  30.1731014  50.3381634  68.4239101
  30.0830865  50.6521273  69.3236637  29.6428609  49.5418119  68.3939362
  36.9369006  26.2261295  74.7275829  36.5633798  25.3665948  74.5328617
  36.8526244  26.3144040  75.6769705  34.4657040  61.1043262  60.3293848
  34.7123218  60.6037235  59.5516872  35.2923226  61.4559746  60.6599569
 106.4876175  62.5757265  82.6864815 106.8261909  62.7669573  81.8118286
 105.8048534  63.2315636  82.8277016  33.1278372  61.2169886  70.5610800
  33.8551712  60.7428074  70.1581240  32.9565334  60.7451296  71.3760900
  11.5423834  51.7123508  87.1068001  11.4079559  52.5192451  86.6097260
  11.2446427  51.9236994  87.9916191  36.1416721  44.0417051  82.7267075
  36.1922216  43.3251953  83.3593941  35.5547094  43.7172174  82.0437622
  37.1407175  73.4311867  59.5831776  37.9871750  73.8232708  59.7976780
  37.0219111  73.6129570  58.6509371  17.4077141  18.1815505  54.7516155
  16.8578458  17.9312575  54.0091658  17.0847905  19.0452743  55.0083876
  15.4307103  24.5638514  64.2948198  15.2478051  24.9327064  65.1589537
  15.4421782  23.6171913  64.4360209  24.5552635  38.6629295  80.6154537
  24.8693871  38.3610177  81.4677525  23.6632967  38.3210778  80.5541134
  43.0128384  25.2092743  66.0644054  42.2635412  25.3416181  66.6451502
  42.9054976  25.8703184  65.3804970  76.5710306 110.6802559   6.6297376
  76.8096113 110.1228428   7.3704123  77.3937988 110.8213520   6.1613619
   5.4286546  30.2926064  73.0865002   5.0880396  31.0801101  73.5108280
   6.1826271  30.0403786  73.6195469  46.0796118  44.8441601  69.5055008
  46.3878870  43.9459658  69.6256876  45.3705120  44.7705650  68.8667536
  97.4518108  77.4327230  33.4012389  98.3302689  77.5039148  33.7746906
  97.5874138  77.0243692  32.5462008 116.3019276  85.3683949  17.1915424
 116.2821960  84.7813320  16.4357662 117.1591568  85.2174282  17.5897765
  27.8747249  37.3037195  38.9425635  28.1510425  37.9985642  38.3450079
  27.5301266  36.6184092  38.3699965  55.0435781 104.0171909   6.7818171
  55.2249336 104.3726158   7.6518834  54.3411112 104.5697117   6.4390367
  93.5096073  39.7362375  29.9513626  93.2476616  39.7132158  29.0309906
  94.3997955  40.0878477  29.9383044  12.6667988  59.9050856  91.8350220
  11.9127679  59.5456076  91.3676357  12.3166645  60.6578541  92.3114395
  38.9898992  26.0314989  79.3131542  39.8086143  26.4949036  79.1365290
  39.1394114  25.1461673  78.9813948  57.0562458  31.4750290  77.1132660
  56.5540314  31.2378812  76.3336706  56.6013384  31.0381532  77.8332901
  32.3470402 103.8574600   6.3123190  31.6495061 103.2681561   6.5993679
  32.0880842 104.7160339   6.6470033   7.0037758  30.4370499  54.5863104
   7.0886719  29.8790765  53.8132048   6.1903048  30.9210896  54.4441795
  33.8750505  37.2312880  58.3286667  33.8581872  36.4186478  57.8231382
  34.5287013  37.0757413  59.0104151  44.7000122  16.1029983  84.7296429
  44.5884657  16.8808520  85.2762127  45.3975344  16.3382161  84.1177940
  28.6991549  46.4511871  71.4470291  29.5434165  46.0606050  71.2214184
  28.2694626  45.7934856  71.9938612  33.3314300  48.7647438  51.6327047
  32.5610805  49.1752005  51.2398672  33.9129448  48.5895061  50.8928633
 116.1151505  40.7997370  82.3312378 115.9823227  41.3309765  83.1163311
 115.6377411  39.9889398  82.5070763  38.3630466  56.1086130  87.6819515
  37.4088979  56.1480951  87.6165676  38.6072922  55.3431273  87.1617508
  22.5981092  56.5142393  52.2258615  21.9342422  56.2559128  51.5865040
  22.8615594  55.6936884  52.6424265  45.4461193  50.6670237  38.4237528
  45.4091311  51.3056707  37.7117157  46.3208723  50.2841806  38.3569050
 108.7774849  36.7957139  65.8865118 108.6485577  37.5812984  66.4179850
 108.0164814  36.2482214  66.0797977  27.7821636  87.1774864  47.9551411
  28.6069250  87.3453236  48.4110260  27.5084662  88.0357075  47.6314497
  34.6102786  62.0775032  67.6791525  34.6632981  61.2194157  68.0999947
  35.1240301  62.6538897  68.2449007  30.9208822  44.9617243  56.2769032
  30.5064988  44.2720985  56.7954922  31.7094374  44.5524502  55.9206629
  33.8499856  68.7770224  64.8798132  34.7893906  68.6441135  65.0066280
  33.7870765  69.6079493  64.4088173  12.5357223  53.9833307  75.1483870
  11.9121194  53.7285471  75.8284140  12.0168245  54.4935417  74.5265675
  40.8089399  71.2514687  65.7062769  40.3435087  70.8319569  66.4298916
  41.7352104  71.1327076  65.9163761  30.2579355  60.9558773  55.2255344
  30.5523896  61.5541697  55.9122467  31.0435367  60.4667425  54.9809790
  43.3524895  72.1251822  66.9568634  43.6852121  71.5126085  67.6128244
  43.1785822  72.9291582  67.4463654  42.7721214  69.2624044  62.2864914
  43.2859993  68.8264990  61.6066790  42.3695183  68.5466909  62.7783251
  21.1856055  87.6509762  51.4206982  21.1190009  88.5992527  51.5327835
  20.9006834  87.2899723  52.2601795  10.3122008  81.1279297  71.3635302
  10.8509505  81.9064426  71.5045691   9.4925123  81.4660168  71.0029173
  41.1258507  66.3268471  59.1354561  40.5346727  67.0796680  59.1373396
  40.5948973  65.6062174  58.7963200  26.0487390  79.7889471  49.0653944
  25.3486300  80.4406357  49.0282249  26.1622643  79.5073366  48.1576252
  29.2852473  59.8594856  61.1147976  29.0439343  60.1221609  60.2265406
  30.2416396  59.8223209  61.1020851  32.2981524  62.3826599  61.9264174
  33.1477880  62.3216486  61.4898062  31.9460750  61.4932775  61.8906546
  32.9615784  55.0693417  61.7732716  32.5969768  54.5462751  62.4872065
  33.6239338  54.5038509  61.3761044  25.4185343  30.3017688  66.4807510
  25.1741886  30.4449916  67.3950911  25.2982378  29.3618989  66.3450861
  22.1400499  55.8522844  62.4268723  22.2201467  54.9141312  62.5991631
  23.0263281  56.1297512  62.1950197  28.8496137  47.9701662  68.4019136
  29.5786738  47.3640728  68.2701731  28.2156873  47.4734354  68.9192390
  26.5493250  53.9723396  52.8061819  26.6319561  53.0706310  53.1165457
  26.6581821  53.9099455  51.8572426  14.6168494  43.7822819  37.4623561
  13.6943543  44.0333223  37.4153018  15.0307512  44.4841480  37.9646516
  37.5344253  50.8771229  55.0775528  37.4314570  50.2614832  55.8032322
  36.8037510  51.4876032  55.1758575  44.6106768 101.5061569  25.6074643
  44.5150900 101.8951035  24.7380900  45.1640558 100.7379246  25.4666305
  73.4734488  11.2514329  54.2453432  74.1281223  11.8103254  53.8266850
  72.6693439  11.7704284  54.2283773  35.8299422  72.5977182  66.6753769
  36.0447645  71.8854332  67.2776461  36.6064358  72.6864958  66.1227417
  44.8156118 101.6893959  83.5172081  45.3509378 101.0181904  83.0939484
  44.4820786 101.2660980  84.3082905  33.3196139  75.3061295  57.8759480
  33.3908868  74.6894979  58.6045837  32.3837233  75.3348637  57.6771641
  43.1500912  89.0603542  69.2352772  42.6806259  88.2485580  69.4271612
  43.3516169  89.4294739  70.0951481  36.7103314  86.8445015  70.3403902
  36.2262988  86.0815620  70.6563997  36.2673926  87.5922012  70.7416201
  75.9964371   8.6816967  83.7206173  76.7044592   9.1021162  84.2086601
  76.4135885   8.3629966  82.9202175   5.8738589  65.6451845  44.3897486
   6.1209601  66.2913227  43.7281752   4.9794054  65.3951883  44.1580391
   1.9500834  88.4001446  30.1051617   2.7482653  88.9040375  30.2640033
   2.1735007  87.8209305  29.3765783  64.4473886  64.9327993  25.5807877
  65.1572418  65.2474403  25.0210166  64.6894693  65.2227449  26.4603114
   4.6564093  90.2337742  68.5415173   4.1816199  90.6596279  67.8277540
   4.5640692  89.2974472  68.3655024   2.4286345  20.6303740  62.3521757
   1.5563512  21.0239601  62.3732042   2.4861237  20.2214289  61.4886427
  51.8204498  72.8081608  52.2763252  51.0358953  73.0735779  51.7964697
  52.1420383  72.0404339  51.8036652  45.1742983  90.9471416  65.1659536
  45.8025074  90.2879333  65.4609537  45.5151129  91.2417698  64.3213940
  94.8646641 104.2398167  78.0383396  95.0105381 103.5498905  77.3910666
  94.0544987 104.6648502  77.7569056  73.2122326  14.5900857  81.7567062
  73.2052755  15.5451035  81.8209267  72.7187490  14.4000888  80.9588242
  33.9304876  70.8734179  63.0930901  33.5790777  71.7637253  63.1028938
  34.4509530  70.8301735  62.2909164 102.9943752  43.7034130  18.1439817
 103.4370804  44.1517258  17.4233854 103.3020973  42.7987337  18.0883431
  58.2005215  74.0581417  36.1459422  58.6979532  73.3118868  36.4804530
  58.7934065  74.4825792  35.5258036  23.1725597 101.5260792  76.3123131
  22.7330136 100.7012558  76.5189552  23.5415792 101.8163586  77.1464539
  16.4968860  74.7547293  36.8274021  15.6471539  74.3602610  37.0238328
  16.4027119  75.0959158  35.9380460  89.3265152   1.5624551  34.0418530
  89.2366409   0.8745881  34.7013927  89.3898487   1.0910300  33.2112026
  63.7959671 108.3433151  49.9656153  63.8269281 109.0895653  50.5642653
  63.5014868 107.6124001  50.5090094  38.1693411  92.0261097  59.2951202
  37.2293997  92.0145798  59.4756985  38.3612967  91.1470413  58.9685678
  81.1627197  98.4946823  42.5028896  82.0285225  98.8659286  42.3332071
  81.2225723  97.5931358  42.1868849  52.6321220  84.4216824  53.3321476
  52.9254723  85.0098133  52.6362514  53.3698177  83.8276291  53.4705162
 110.8365345   6.0271043  40.4322195 110.1659679   5.5727488  40.9422445
 111.5546131   6.1652440  41.0498905  37.9328871  81.9283962  46.7867517
  37.0086241  81.8040371  47.0023918  37.9245305  82.3180294  45.9124804
  76.7088223  41.5552902  87.5881004  76.1893034  42.3306942  87.3757839
  77.5503874  41.9039679  87.8820705  60.2693462  81.2778759  84.9009418
  60.1063585  82.0800400  85.3971291  59.4510984  80.7854843  84.9661541
 112.1266270  12.1697545  39.0927505 111.2378693  12.5222611  39.0471530
 112.1415901  11.4723265  38.4373093  43.2952976  90.9473515  67.2889090
  43.1229210  90.1682281  67.8175783  43.8520718  90.6346035  66.5758753
  43.8509703  98.9637089  50.7100201  44.1427708  99.7133541  50.1912498
  43.7869310  98.2464314  50.0794411 110.5810452   1.7275316  46.3473988
 109.7379589   1.7451543  46.8003178 110.8629417   0.8143856  46.4014912
 113.3937836  42.2444630   4.3717247 112.9845905  41.4132977   4.1309986
 112.9051495  42.5381660   5.1406252  71.8790245  67.4169970  69.4148064
  71.7703867  67.1680593  70.3326654  71.6278791  68.3402014  69.3856907
  88.1663132   4.0254954  71.3928270  89.0343857   3.7692487  71.0813475
  87.7481747   4.4285554  70.6319523  70.4384041 109.1609001  51.1563969
  70.6979656 109.9409580  51.6466665  70.2978373 108.4923744  51.8268776
  56.0020590 105.7637405  82.6792145  55.4966402 106.5748692  82.6257801
  56.8222952 105.9624386  82.2275925 109.6639347  27.2283101  81.4664364
 109.8854256  28.1091166  81.7686749 108.8914013  26.9869304  81.9774723
  65.4277992  88.8719559  42.5639009  65.4342651  88.8509750  43.5208464
  64.6123743  88.4338379  42.3202324  62.5390863  72.7268791  71.4927197
  63.3156824  72.4614382  71.0000992  62.7807522  73.5646439  71.8876648
  46.2444830 106.2381554  86.2566471  46.8648243 105.7323360  86.7815781
  45.8107281 105.5870819  85.7051086  54.4157457 100.8538342  28.2384396
  54.0714073  99.9607182  28.2345772  55.0530720 100.8679008  27.5244021
  25.8945584 101.5758419  67.9275846  25.0883842 101.3310719  68.3819008
  26.5953350 101.2278175  68.4789705  18.4441245  40.9285450  36.4847279
  18.5973728  40.2746725  35.8026719  17.5998902  41.3182735  36.2575436
  74.9512434  73.3577490  56.6231585  74.1059399  73.7544346  56.8337154
  74.9368382  73.2541513  55.6716871 115.4804802  23.4274125  46.0117769
 115.8462811  24.2842221  46.2315464 115.8993912  22.8236580  46.6251516
 100.9126282 106.9200230  59.5973969 101.0765362 107.5335979  60.3135633
 100.9418964 107.4602318  58.8077497  69.7964621  47.2272253  73.4235001
  69.5403385  46.3144541  73.2912827  70.7503462  47.2222471  73.3440447
  65.4042101   6.6040343  89.3455791  65.1910925   5.7268202  89.0272808
  64.8837423   6.7025501  90.1428413 113.2947159 107.8633118   8.7193656
 112.5407410 108.0860424   8.1733394 113.3695126 108.5934639   9.3337888
  46.9201136  91.3235188  81.6665077  46.8774986  91.4082432  80.7140255
  47.0118427  90.3830719  81.8194485  63.3468390  14.4155777  47.5564957
  62.6895571  13.7439477  47.7385044  63.0239296  14.8606074  46.7729759
  59.8194695  97.2172451  92.6071167  59.7496986  96.5930939  91.8847561
  59.3620586  97.9977226  92.2943020  39.6769595  97.4991131  78.8731575
  40.2518559  97.0200920  78.2762814  40.2596092  97.8183746  79.5622301
  63.8199186 108.1986332  47.0220137  63.4773779 107.6563454  47.7325201
  64.7645140 108.0445480  47.0371294  64.0070915 107.7915478  69.0165615
  64.0273142 106.9449520  68.5703707  64.0509129 108.4357929  68.3099794
  56.9611025  97.7570152  70.1326036  56.8143702  98.2708263  69.3384314
  57.4287510  98.3513355  70.7193899  87.0813847   3.6273858  48.5317945
  86.5115643   4.3529207  48.2765770  86.5383244   2.8466716  48.4231472
  48.3259916  89.1651726  77.1936274  48.1186056  89.9135494  76.6340303
  48.2407379  88.4049702  76.6182518  78.6696672  77.9593515  77.1794796
  79.3319511  78.1301117  76.5098143  78.8261414  77.0532846  77.4455452
  56.8907595 107.5304508  57.0433903  57.7284861 107.3475456  57.4688196
  56.9678068 108.4356785  56.7419672  37.0038438 103.9893913  74.2982626
  37.5831842 103.3438110  73.8935184  37.3119450 104.8312950  73.9628410
  48.0428696  95.0244904  71.5417624  48.2633972  94.7732067  70.6448507
  48.3937025  94.3164730  72.0819950 101.4868546  52.3861790  10.0084031
 102.0054722  51.9729233   9.3181223 100.6208992  51.9860125   9.9294919
  79.4465828  98.5904789  72.3597050  80.3661823  98.8439465  72.4392509
  79.4736767  97.6757526  72.0790529  50.0589275  73.5385132  50.4768562
  49.4084597  74.1615582  50.1529169  50.0409412  72.8219366  49.8424864
  24.2381907  80.1297855  94.3831539  24.8681831  79.4230032  94.5238304
  24.7584963  80.8451176  94.0173435  67.2120905  92.1702099  36.3980293
  68.0533266  91.9748020  36.8107867  66.6702032  92.5124073  37.1090126
  57.8286266  93.5691452  52.7859497  58.6521912  93.6793423  52.3107338
  57.9554653  92.7742195  53.3038664  69.8917675  64.0011215  76.2443590
  69.0562439  63.5372305  76.2985468  70.2443075  63.9642334  77.1335077
  71.8473434  95.4695511  67.6635885  71.7986298  95.8698559  66.7954779
  71.0402489  95.7434368  68.0992651  55.3877592 100.7555485  36.1531806
  55.7975101 101.5815926  35.8963156  56.0294294 100.3384876  36.7281127
  52.1068573  88.7986469  34.0741730  51.5137863  88.4584808  34.7440863
  51.5309811  89.0657806  33.3577657  35.5031919 105.8705330  86.6567802
  36.0976219 106.5834332  86.8905830  35.0401378 105.6684113  87.4697685
  49.5211983  88.1326962  60.6731033  48.8403797  87.9370689  60.0293303
  49.0444613  88.4742355  61.4296103  46.1763811  52.9603720   3.2658264
  45.5524397  53.5149813   2.7974904  45.7509947  52.1039200   3.3078387
  22.3574042  47.4220800  11.7607546  22.8554225  48.2317066  11.8734884
  22.0157433  47.4733686  10.8680809  61.2839270  89.5809841  79.9147606
  61.0632324  88.6557388  79.8077774  60.7317162  89.8768044  80.6384850
  97.7031231  18.0641687  50.3039694  98.3078194  17.4041760  49.9648714
  97.0027637  17.5581920  50.7159424  75.4503679  88.9770603  75.1374006
  75.0472689  88.4613037  75.8357859  76.3868666  88.9562702  75.3343105
  56.6199064  29.0107703  72.9603338  56.9151449  29.3364859  72.1100569
  55.6709194  29.1353011  72.9481554  24.7552419  94.3919563  13.0462825
  25.7099891  94.4592762  13.0588996  24.4532585  95.2921009  12.9246998
  52.6332808  98.8502693  66.3831758  51.9509315  99.5016575  66.2209225
  53.0754232  98.7514400  65.5399847  72.5784683 104.2861843  47.7034473
  72.7402353 103.3438492  47.6581526  71.7229366 104.3623066  48.1259441
   3.1425455  57.0658016   1.5557104   2.9648373  57.0617056   0.6151602
   3.6016464  57.8915834   1.7091238  67.2870588  94.0393925  90.9891033
  66.7939568  94.8158455  91.2540627  66.6222239  93.3597183  90.8782864
  45.2038145  93.5426998  66.0007763  46.1515093  93.5531712  66.1349487
  44.9897051  92.6180649  65.8765221  69.5418882  99.2632771  67.1870279
  69.3741226  98.7109566  67.9505873  69.7834539  98.6479378  66.4947510
  43.6469126 102.3065567  61.1161423  42.9354763 102.7742672  61.5535593
  44.1327477 102.9887772  60.6527138  78.2628345 107.2882557  89.9631023
  78.0332851 106.5257072  89.4320107  79.0575600 107.0260525  90.4277515
   5.9123862  99.0474701  57.7339077   6.0906154  98.6948872  56.8620443
   5.3816044  99.8275852  57.5728750  42.8819323  93.8084126  68.3191347
  42.6764584  92.9804802  67.8849363  43.3805847  94.3027401  67.6685762
  91.9139957 102.1135044  79.3037271  92.6301003 101.6674519  78.8515472
  91.4289379 101.4105606  79.7359753  51.5849972  97.3016548  76.4601803
  51.1302233  97.5135422  77.2753620  52.3273849  97.9054070  76.4361811
 107.4854183   8.2378554  88.3060360 107.5436401   8.0276901  89.2380619
 107.8883457   7.4893051  87.8660870  54.0843678  96.7120552  91.5430355
  53.3343506  96.3586521  92.0213699  54.1543531  96.1590385  90.7648945
  93.3108425  16.8255031  59.6906805  92.5689316  17.0471632  59.1279554
  93.2699680  17.4633312  60.4032373  97.3440361  25.0718880  31.8246984
  96.7868233  25.8497500  31.8507266  98.0423737  25.2979612  31.2103271
  35.3443813  96.9003963  34.1944313  35.9972692  97.3361969  34.7421956
  35.6531119  97.0375156  33.2988214  48.4479141 104.4378376  96.1707306
  47.9735661 103.6073780  96.1312389  47.7625656 105.1017570  96.2464809
  44.0951204 101.9043636  45.8700514  44.2468166 101.0385323  46.2489510
  43.9797783 101.7394257  44.9342537  60.7083607  77.0462990  92.3012352
  60.0778580  76.8578100  92.9963398  60.3284216  76.6471910  91.5185547
  61.9146788 111.4056721  83.8986588  62.0974028 110.9723823  84.7323799
  61.4455378 110.7482910  83.3848572  37.9928327  86.2051201  83.1349277
  38.0772281  85.4614544  82.5382137  38.7522411  86.1353970  83.7134361
  65.4721355  71.8144512  92.2928905  66.2092638  72.4240160  92.2567749
  65.7613230  71.1239767  92.8894138  48.1909609  89.1423988  62.5632238
  48.6279869  89.5109844  63.3309364  47.3832655  89.6494389  62.4809456
  73.5587465 110.4100793  91.2148190  73.4900438 111.1012374  90.5561733
  72.6518976 110.1722426  91.4079094  18.2909846  54.9848080   0.5529385
  17.9065442  54.1097116   0.6043636  17.8664923  55.3887987  -0.2039162
 117.8745555  73.3769798   9.3498081 118.0903991  74.2203856   9.7476864
 118.6664549  72.8506327   9.4597387  57.4846327 110.5916489  70.9913731
  58.3766615 110.8910965  70.8157539  57.2422945 110.0910421  70.2123356
  80.8532619   3.5164163  59.9750853  81.5223122   3.4396619  59.2948484
  81.1705685   4.2168036  60.5451775  60.0066710  88.7129974  87.2581768
  59.2762661  88.3787346  86.7375946  59.7670937  88.5130596  88.1630898
  28.4597540 100.9793472  69.2301655  29.1910887 101.5775776  69.3834782
  28.8445067 100.1062012  69.3064451  70.3129911  86.3090801  93.9659882
  70.5207491  86.6296864  93.0883312  69.6772909  85.6083488  93.8207436
  60.5168629  78.7613630  64.6599770  60.1212788  78.4337711  65.4677057
  60.7207584  79.6775818  64.8475933  30.7089996 101.9954967  70.4268122
  31.5710902 101.7654324  70.0802565  30.8956051 102.4789715  71.2315893
 104.1847134  13.0759323  68.8886976 104.4827271  12.3612070  69.4513559
 103.7482643  12.6389945  68.1573820  54.0251589 100.7142258  82.7997398
  54.5846319 101.3622570  82.3716354  54.1329336 100.8854771  83.7353134
  45.5645275  80.9967709  46.5297747  46.5054560  80.8751297  46.4029169
  45.4278231  81.9378567  46.4206457  22.7996397  11.8176448  95.5659580
  23.5305047  11.5890288  96.1402416  22.4106812  12.5930965  95.9704494
  72.0911598  83.6639309  93.5441780  72.5262547  84.4721699  93.2727623
  72.2566319  83.6072350  94.4852638  87.1180630   5.6291294  81.0493565
  87.1298885   5.5242306  80.0979996  87.5702190   4.8535746  81.3814735
  96.4948177  16.8947744  86.0142899  95.8288670  16.7329776  86.6825485
  96.4028835  16.1641860  85.4027176  53.4402943 103.5380936  40.9176588
  52.6018810 103.9965343  40.9736013  53.6663723 103.5649300  39.9879313
  82.8677750   9.3352544  87.8173923  83.3028698   9.7026145  87.0479965
  82.7938747   8.4000820  87.6270580  97.4589348  61.7181253  12.4532020
  96.6909409  61.8192577  11.8908978  97.0989990  61.5054750  13.3142793
  31.5688324 106.7944717  58.6828423  31.9753361 107.6541424  58.5735130
  30.6281710 106.9713688  58.6732388  51.4620733  37.3869395   3.8443974
  50.8972120  37.3595357   4.6166733  52.2748995  36.9679236   4.1271877
  87.9952431  25.5674410  68.7697411  87.7765369  24.6842360  68.4724998
  88.3157253  25.4468322  69.6635962 109.5427036   3.7749371  58.6175013
 110.0658131   3.1614786  58.1015015 110.1789665   4.2212316  59.1762590
  55.8045149 108.3630466  72.0411777  56.4074993 107.9143429  71.4484644
  55.3391171 108.9859581  71.4829493  96.2029171  34.5964932   4.8594746
  96.0050297  34.1587067   5.6873703  95.6237030  34.1778374   4.2227173
  34.8533034  97.4418926  61.1987352  34.2120147  97.3233604  61.8993998
  35.7000947  97.4322033  61.6449213  97.2643471  19.4423521  80.3019619
  96.3961411  19.7539723  80.5575848  97.5846767  18.9691794  81.0698986
  64.5621014 109.5981693  84.7345448  64.9950457 109.5976448  83.8808441
  65.1498222 110.0982857  85.3008461  58.7885427 101.2337875  77.1555614
  59.1205120 101.3325977  76.2632227  57.8704119 101.4987469  77.1002531
  65.6789541 107.1636677  94.7168446  66.0351276 107.2305393  93.8309002
  66.2781906 107.6803589  95.2555275 101.2122631  73.4109592  75.5766201
 100.8607388  74.2493057  75.8763409 101.7464924  73.6340237  74.8143387
  39.2142916  63.1666565  18.2636690  39.4570947  62.9505682  19.1639936
  40.0428391  63.1616545  17.7843809  93.9050102   3.6068073  90.7242680
  94.2398834   3.8611406  89.8643780  93.9435482   4.4100344  91.2434673
  81.8819141   9.5513380  83.9810276  82.6093197   9.9860317  84.4261742
  81.3862801  10.2648401  83.5791779  41.0169792 106.4751053  39.7458696
  41.4918661 106.0394001  40.4535961  41.6052341 106.4192677  38.9928317
  49.8516178  93.9858532  91.1492157  50.4129887  93.9442825  90.3750229
  48.9659452  93.8561916  90.8100986  16.8177629  57.0584822   2.2428368
  17.2183716  56.3960218   1.6799051  16.8065143  56.6587496   3.1125021
  21.6448283  84.8638535  82.7155304  21.5540600  83.9117050  82.6780224
  21.4830422  85.0839138  83.6329365  28.2240129  71.3927078  42.3036194
  29.1731620  71.4434862  42.1906233  27.8905487  71.1743689  41.4333534
  42.6716852  94.6771812  76.3443899  42.5331831  95.5981445  76.5654707
  41.7988777  94.3488121  76.1284876  64.6123362  69.8255682  60.0559187
  64.7148561  69.0013027  59.5801973  65.1032782  69.6964216  60.8674145
   6.4912868  23.9144897   2.2162770   5.6685728  23.4898114   1.9733351
   7.0104676  23.2182980   2.6187676  19.4066358 100.8113670  48.1433773
  19.5701575 101.4765549  48.8119650  18.4899294 100.5660725  48.2687283
 111.1531162  23.3473015  11.2485552 111.3478184  22.4609637  11.5530646
 110.2869225  23.5391450  11.6079199  53.2242632  96.4119530  82.6746655
  53.1794357  96.1110401  83.5822296  53.9236259  95.8887005  82.2830963
  48.7908983  82.7717304  78.7822533  48.7855101  82.8457069  79.7365761
  47.8659010  82.7259541  78.5403442  39.2470717  91.5254307  64.0793562
  39.2004728  92.4144745  64.4310188  38.9733362  90.9657669  64.8060465
  86.8884945  78.8524580  58.0961752  87.4001217  79.0010405  58.8914061
  86.4689922  79.6946955  57.9204178  19.3756914  38.8781166   2.6971298
  19.5353425  38.1488919   3.2962754  18.6163425  39.3293095   3.0659723
  48.6624432  92.6403713  44.7886562  48.2959747  93.5166740  44.6702051
  49.0522480  92.4271584  43.9408207  82.9401112   4.7260883  76.0142899
  82.4183750   5.0959182  75.3020716  83.7310886   4.3981430  75.5864668
  93.5068703  10.2733171  72.5333309  93.4071064  10.9142029  71.8293810
  93.7524700   9.4631553  72.0866251   8.0773735  27.5356293   7.9307288
   7.2435439  27.6720476   7.4808955   8.5112149  28.3881068   7.8947216
  37.2860813  42.2174215  46.9470310  36.4544940  41.8977785  47.2970676
  37.8932738  41.4874029  47.0679569   6.8041372  60.8557844   6.2517333
   6.9306117  60.8371639   5.3031087   6.7533904  59.9340200   6.5047354
  38.2313156 108.7816811  44.8783731  38.2624125 109.7050571  45.1286793
  38.2786179 108.7909508  43.9223862  22.9804707 102.8532314  59.5137453
  22.0527720 103.0858898  59.5521259  23.3924389 103.4001637  60.1826096
  51.6747618  79.7238684  54.9047804  52.1276093  79.7136879  55.7480240
  51.3954115  80.6326580  54.7938919  72.0577145  87.7865696  95.2039051
  72.3592663  88.1253529  94.3609810  71.3014412  87.2416496  94.9863338
 100.7008362   4.1810507  67.2202730 100.3795147   4.9463487  67.6970387
 100.7617092   4.4735628  66.3108969  81.5691948  11.0386944  78.0259371
  82.2764492  11.6799414  77.9564381  82.0138931  10.2100337  78.2042694
  71.4113760 107.6320934  69.5432711  72.1211720 107.0436668  69.8005056
  71.7066097 108.4992409  69.8209906  37.0497203  87.5917053  87.6582336
  36.7586064  86.7163944  87.9137993  36.2400150  88.0743885  87.4920368
  41.7942429  99.1211414  84.8356056  41.7409992  99.9900436  84.4376087
  41.7033052  99.2819118  85.7748127 104.5147896  53.9590216   4.5802048
 105.2366924  54.1967964   3.9983544 103.7442303  54.3665457   4.1847286
  41.4292383  80.0812149  49.0557003  41.5751791  79.2854643  48.5441256
  42.1733236  80.6437969  48.8410378  83.7959766   1.9372997  91.2717533
  84.7210407   1.8856934  91.5122223  83.7337208   2.7212805  90.7260990
  19.6401250  78.3400345  82.0333195  20.4609275  78.6731815  82.3959923
  19.7801089  78.3377838  81.0864162  23.7011480  87.5363255  70.6755304
  24.2690921  88.1001663  71.2006617  24.1124988  86.6732121  70.7207966
  86.0225010   8.2217711  53.4797525  85.3966427   8.8827151  53.1836367
  86.6666508   8.1685364  52.7737188  48.8302040  27.4577975  17.0761669
  47.9572105  27.1914434  17.3645568  48.7331295  27.6208854  16.1379719
  96.0609245  61.2770319   6.0428965  96.4077950  61.6570759   6.8500370
  96.0345840  60.3355217   6.2134886  62.7841043  50.3080845   6.8542713
  62.5102425  50.4337645   7.7628070  62.5225258  49.4109106   6.6471863
  96.7394257   4.9134436  51.9446611  96.5520191   4.1739315  51.3665342
  96.5254498   4.5927587  52.8207922 105.9912300  65.5754805  66.2787962
 106.5852547  66.2390757  65.9280729 105.3492832  66.0725880  66.7857647
  54.3187857  44.6012640   8.3878148  54.5133448  44.8409700   9.2938620
  55.0661469  44.0689898   8.1151158 115.0302505  21.0987782  27.1515846
 115.1357079  20.1488686  27.0988274 114.9742126  21.2818170  28.0894494
  75.7745075  13.4190381  81.7924976  74.9683380  13.7799180  81.4235973
  76.3473463  14.1777146  81.9043064  31.4199114 102.4299145  78.4189606
  30.8585501 102.3112297  77.6527882  30.8873177 102.9397106  79.0294409
  51.9242048 107.6497173  79.3083954  52.0695257 107.8925133  78.3939743
  50.9969902 107.4155903  79.3495941  25.8351827  17.2938812  82.2801685
  25.1671457  17.3569608  82.9627895  26.6586375  17.1992552  82.7589130
  62.4384689  88.9707947  46.6111946  62.0461130  89.2617321  45.7880020
  63.2592106  89.4596863  46.6712952  65.0683308  77.6657581  82.5673008
  65.5124092  76.9207859  82.1622849  65.7779837  78.2198095  82.8923512
  32.1666241   0.6192958  81.8816566  32.1616077   1.0660791  82.7281761
  31.9715810   1.3080229  81.2461662  68.5651159  97.4225521  84.3225574
  68.5402155  96.7948818  83.6003113  68.4446144  96.8888474  85.1079655
 101.8251419  47.0603657  52.5515318 101.2307549  46.5379333  52.0130110
 101.2918091  47.7962160  52.8520536  82.0413017  -0.1919997  91.8688679
  81.1775684   0.1347008  91.6169548  82.6225376   0.5610762  91.7627048
  53.9255571  91.5349865  65.7086802  54.2218828  91.6644001  64.8077488
  54.7112417  91.2619114  66.1823511  84.2937285 111.5926290  73.6216402
  85.1191545 111.3298820  74.0289068  83.8797647 110.7683275  73.3659220
  95.0882912  11.3545752  83.2476616  94.8715210  10.9330177  84.0792465
  94.2752647  11.7804587  82.9759312  66.1369514 103.1350899  89.2319012
  66.1471176 104.0379620  88.9141655  65.7965708 102.6260853  88.4961700
  32.7771401  96.6015530  44.1305542  32.4571776  95.7403278  43.8619614
  32.8259397  97.1033764  43.3169031  61.2148285  31.3791585   3.0270916
  61.8847656  31.6573906   2.4025866  61.2623405  32.0243192   3.7326002
  85.4719353 108.2009888  77.3414898  86.2354279 108.4914207  77.8404379
  85.7272339 108.3134842  76.4258480  75.0782871  99.1064453  54.3203974
  75.3834057  99.0054321  53.4187698  74.4392347  99.8178577  54.2787123
  26.0153484   6.5776563  38.4181023  26.0465956   7.0075327  39.2727733
  26.5147185   7.1554220  37.8410006  47.5702763  81.9983006  88.8628960
  47.9560757  81.5545750  88.1075764  48.2865477  82.0623970  89.4946194
  20.4579663  13.6487496  16.5290225  19.9948239  14.3069375  17.0472109
  21.1712050  13.3557749  17.0961976  95.7994175  24.2570210  89.2552948
  96.6825104  24.6211672  89.1938496  95.4137039  24.4175076  88.3940792
  90.9729004  15.9591734  45.7653284  90.3672981  16.4547944  45.2141094
  91.8233776  16.3734233  45.6193256  44.2824125  80.8751202  49.4035578
  43.9049959  81.7408466  49.2476940  44.0103102  80.6519413  50.2937222
  70.5505276  90.3071785  93.2831860  70.3444147  90.5987263  92.3950768
  71.3871622  89.8501587  93.1971359 115.1445866   1.3556394  83.5087013
 114.6831799   2.0124547  82.9872322 115.0644493   0.5477335  83.0016518
  79.4489479  98.7283802  60.0299883  79.4333744  98.7017822  59.0732861
  78.6493349  99.1968155  60.2696180 114.2712784  39.3222570  80.5989361
 113.7376595  39.2455244  79.8079920 113.6354256  39.3868995  81.3115025
  80.4724503  14.3374979  74.7274780  80.2378750  15.0216031  74.1004133
  80.6014633  14.8037100  75.5534506  57.0431614  95.4219723  72.3705244
  57.2461414  94.5419884  72.0532656  57.1428823  95.9828281  71.6012907
 116.4771080   7.3572248  78.4126949 116.3432407   6.6709024  79.0663576
 115.6132507   7.4870485  78.0213642  98.2725811   9.6406996  70.4073238
  98.2816601   9.4180453  71.3382196  98.2462978  10.5973840  70.3901196
  88.8768578  93.7926197  51.0461521  88.6652279  92.8591251  51.0511255
  88.0373383  94.2277527  50.8974648  52.6432657 106.1209869  52.0273685
  53.1009007 105.3280258  52.3066711  53.3361053 106.6947269  51.7002058
  73.5669088 110.6009197  73.9215803  73.0281162 111.3763809  74.0783978
  74.2951059 110.6868076  74.5368671  90.4073524 109.2491913  85.9774494
  90.1435280 109.8554230  85.2852726  89.5872402 108.8583946  86.2789822
  14.6768463  93.1099987  26.7289853  14.3519092  92.6092529  27.4772525
  14.5199621  92.5422096  25.9745073  84.4253445  93.6326599  60.6590509
  84.0643311  93.1557941  61.4063740  85.2518272  93.1890202  60.4684305
  93.6639309 100.4399967  59.2598581  93.7090683 101.0585880  59.9889231
  94.5585346 100.4029846  58.9214182  98.6034107  16.2514699  89.5242310
  99.0773773  15.6006432  89.0065289  98.8829708  17.0933568  89.1646385
  11.6143525   5.3367251  70.1016951  11.9928253   5.1694065  69.2385626
  10.7965469   5.7993877  69.9190235  56.7696285  83.8352680  55.1827240
  56.8290377  84.6877861  55.6138897  57.2037363  83.9627171  54.3391943
  72.6767111  94.0411472  40.8517933  72.3434210  94.8325920  40.4289818
  73.3466530  93.7131405  40.2519369   1.5386106  43.4486055  77.9699516
   0.5959141  43.6139631  77.9844904   1.9292536  44.2608404  78.2922935
  52.2634029  50.2214384   8.6455029  51.9849825  49.3068314   8.5985386
  52.7893305  50.2710152   9.4437343  47.2834730  11.4217925  30.6698442
  47.1784782  11.2989330  31.6133022  46.4422369  11.1558521  30.2985930
  92.4693298   4.0629104  64.5852232  92.4927425   3.8000000  65.5053091
  92.8379822   4.9462518  64.5790815  76.3972282  79.9558687  76.7441988
  77.2575426  79.7250319  77.0946312  76.5747738  80.6542587  76.1141539
  89.7035408  88.2161236  89.9159908  90.2629280  88.2249069  90.6926727
  88.8854218  88.6199951  90.2054787 106.6714001   4.6307155  81.4907074
 107.5127029   4.8792344  81.1077309 106.0295296   4.8314202  80.8095646
  64.4933558 102.9938221  94.6973896  64.9717331 103.0720615  93.8720036
  63.9992046 103.8107204  94.7661877  79.6668720 106.4349461  72.2643280
  79.2264986 107.1788406  71.8533182  79.0713310 106.1592007  72.9611254
 106.9074726  97.8279495  39.4313455 106.7029476  96.9255257  39.6763468
 106.0964966  98.1616402  39.0476727   5.1696861   9.5082760  83.4039688
   5.8360034   9.8693037  83.9887047   5.2239418   8.5615820  83.5345840
  27.6395035  58.9385653   2.9159725  27.2097659  59.6973562   2.5212592
  27.2946978  58.9053202   3.8082927  16.0074461   7.8469843  67.7263784
  16.1551857   8.7483436  68.0126619  16.4013183   7.8048378  66.8549919
 101.7917919  29.9218845  82.4837017 101.3683605  30.5669856  83.0500793
 101.0753632  29.5441842  81.9735050  29.9707985  52.6991129   0.8435560
  29.0439749  52.4799490   0.7476443  30.4327393  51.9810200   0.4109089
  98.2360172  38.7935376  87.2389507  97.5500488  38.3089948  87.6981831
  97.9412746  39.7039819  87.2600842 108.8851547  14.5928812  83.1131554
 109.3965244  14.2281163  83.8354397 109.5106316  14.6720910  82.3929214
  94.5924473  14.9787903  64.9365902  93.8081837  15.3822911  65.3085375
  94.2817974  14.1569114  64.5567942  63.8920975 107.3219681  63.8740683
  64.4594526 106.7895031  63.3165550  63.6303377 108.0558109  63.3180237
  70.9689093  97.9973221  62.6664495  71.1945248  98.2203579  61.7633533
  71.4372396  98.6421967  63.1965780 112.6537514   6.0201156  52.5989199
 112.7453041   5.0689119  52.5435686 111.7185402   6.1786020  52.4705315
  37.1252155   8.1750172  75.2405596  37.7266550   8.9187467  75.2775860
  36.4085817   8.4170836  75.8271313  82.0103931 103.1791592  54.9434710
  82.3640442 102.9825783  54.0759850  81.5919495 102.3644924  55.2217722
  11.3226938  20.5364013  94.5297623  10.3768671  20.4348898  94.4232750
  11.4467645  20.6503439  95.4720211  66.2996864 101.7085361  74.5602703
  65.7484579 101.0205173  74.1874361  66.8184185 102.0265675  73.8213444
  30.0748062  18.4557950  91.1612797  30.4331446  18.3801508  90.2769089
  29.5615339  19.2635465  91.1434555  87.1088409  82.8834057  61.4602041
  86.3382435  82.5638390  60.9908581  87.7804947  82.9739666  60.7842493
 111.1192703   5.1595485  90.3848267 111.7177296   4.9336678  91.0969162
 111.1174297   6.1165988  90.3680134 107.1540928  17.6248193  71.9891644
 106.8321133  16.7589998  71.7383337 107.2729301  17.5707078  72.9374123
  44.5604563  40.1437330   0.4606499  45.0540161  40.1973009   1.2790397
  43.7664890  40.6521416   0.6260706  99.0955734  72.6635647  48.9491081
  99.8856068  73.2028627  48.9139462  98.6366272  72.9619741  49.7343111
  94.5440578  30.0305152  75.3196859  95.0592327  30.7678914  75.6469584
  93.6836910  30.1410866  75.7243681  84.4202614   8.6843014  58.3703947
  84.9625778   9.1603220  58.9993095  84.8762417   8.7868595  57.5350523
  98.2356167   5.2995437  62.6157093  98.1274128   5.0836611  63.5419512
  97.3594284   5.5522120  62.3247242  76.3165665  22.6958060  76.5860271
  76.6591311  21.8044090  76.6515255  77.0953894  23.2463479  76.5049839
  92.1825886  19.5142734  73.5022640  93.0330563  19.3117177  73.1125021
  92.3935890  19.8749220  74.3634510  54.5738888  96.1361313  27.8017759
  55.4155540  95.9345913  28.2106948  54.4816446  97.0839882  27.8981495
  59.5181465 100.5647755  60.6981945  60.1242924 101.3040161  60.6497145
  58.7046194 100.8968067  60.3184986  76.4813089  87.7906322  82.0642471
  75.6395245  88.1571960  82.3349190  76.7755938  87.2827148  82.8203201
  35.2126384 100.3180218  65.6885719  34.8505449 100.4238892  66.5682983
  36.0553217  99.8855972  65.8268595  84.1768456  14.5261204  77.4301863
  83.4223461  15.1140213  77.4669075  83.8015079  13.6663353  77.2401237
  79.8542118  14.5886409  54.4023657  80.2674294  15.4416895  54.5357656
  80.3963661  13.9789832  54.9029875  63.7042809  30.2134728  62.9847431
  64.6350098  30.0123572  62.8871441  63.4560680  30.6100011  62.1496439
   3.7945551  21.5582800  30.3045702   3.0198634  21.0121560  30.1710272
   4.1199711  21.3052201  31.1684561  76.2544060  94.6237564  80.1739788
  75.7807589  95.1294422  80.8344078  77.1558571  94.9406052  80.2307320
  91.9637489  73.8939381  65.0675726  91.9682884  72.9828596  65.3610754
  91.2619591  73.9327431  64.4177818  17.1590185  71.6116905   4.9527970
  16.3621354  71.3223171   4.5084170  17.8604221  71.1095905   4.5378715
  23.9716315  19.3655860  74.3460417  23.2606792  20.0046515  74.2973137
  24.4432569  19.4684935  73.5194731 102.6582146  38.1524754  83.5046864
 102.2689438  37.8274345  82.6928711 103.4939957  37.6906586  83.5712337
  78.9714336 101.9934273  86.0933781  78.0452108 101.9643688  85.8536053
  79.0144014 101.5449333  86.9379139  44.5438576  95.2398872  63.9188576
  44.9451256  95.0717163  64.7714615  43.7448978  95.7263565  64.1219378
  49.1924715 109.8552036  58.3967543  49.0967941 110.1056099  57.4778557
  48.3107519 109.9367714  58.7602806 114.2014015   0.1527164  76.8507814
 114.0623701   1.0123203  76.4532948 115.0359714  -0.1460316  76.4895678
  43.2966089  33.5712051   1.9351627  42.8493643  34.2091274   2.4912730
  43.7354898  32.9834390   2.5501016  45.2616692  93.7683105  48.8719463
  44.9544334  93.0209255  49.3850231  44.5817995  93.9010334  48.2113457
  13.1590688  16.1978531  77.7469873  13.1526947  15.2410316  77.7208614
  12.5425529  16.4225388  78.4438753  50.6577349   8.6035144  11.4549005
  50.9190464   8.3480990  10.5701900  50.9940147   7.9041344  12.0152712
  51.6382456  99.1865635  52.9201174  50.8588457  98.7778950  52.5436020
  52.2139025  98.4523964  53.1342411  52.9261303  16.6618669  73.9893150
  52.1039963  16.5330899  73.5162926  53.1968546  15.7796741  74.2436266
  32.5992060   2.0476818  75.8752537  32.8358579   2.6305637  76.5966940
  31.6895986   2.2697529  75.6764269 116.8359756   5.6203175  64.4386673
 117.7068615   5.4630023  64.8034191 116.9787979   6.2679398  63.7484360
  54.3360281  94.7658157  55.8279800  53.6936045  95.4686546  55.9256887
  54.4658136  94.6896744  54.8826790  91.6827583   5.6509066  35.0421596
  91.5710354   5.0190592  35.7524538  91.2102222   5.2669883  34.3035460
  29.7403479  67.9694033  16.5722430  29.7551608  67.0124340  16.5870297
  29.2322731  68.2130671  17.3460126  78.2705927  82.5450516  85.2052784
  78.2253313  83.4959221  85.1051807  77.9708385  82.3838520  86.0999203
  82.9144382   8.6780816  75.5569458  83.1203842   9.6125972  75.5792522
  83.6427307   8.2837093  75.0770569  18.9324319  75.9345818  17.3160386
  19.2253530  75.4965925  18.1151605  19.6816063  76.4653921  17.0454621
  99.0457153   3.2694152  80.4694748  99.3682480   3.1236452  81.3588333
  98.1203651   3.4864572  80.5828476  61.1780405 102.1956635  77.4690676
  60.2455425 101.9984818  77.3807573  61.2815332 102.4594593  78.3833599
  28.8034511  27.6928377  21.6697216  28.8866687  26.7443752  21.7683506
  29.1052914  27.8683615  20.7784796  15.8406794  56.2628412  85.0323391
  15.5283093  55.5971622  84.4195271  16.6627264  56.5719461  84.6516514
  31.7260098  64.9686718  13.9267933  31.6546082  64.5550346  14.7870469
  32.5897384  65.3812122  13.9303422   5.6079865  11.3885736  64.8692560
   5.6287646  11.2507820  63.9222574   6.4342284  11.0209572  65.1829672
  85.4155254 101.1006641  49.9103880  85.9438419 101.6814709  50.4579115
  85.6475353 101.3406086  49.0132666   8.5737640  80.6803131  13.1541920
   7.9741442  80.3053474  12.5091445   9.1742009  81.2186432  12.6385272
  74.9811268   2.2857367  73.5873175  74.7375774   2.4847837  74.4913626
  75.2193928   3.1331432  73.2113314  63.8186693  99.3824768  51.9743729
  62.9481983  99.1092968  52.2639894  64.2475271  98.5700798  51.7054415
  65.2179766 100.8462811  69.9074411  66.1582804 100.6781387  69.8459005
  64.8330975 100.3115654  69.2130518  13.7874615  27.2353578  86.4549065
  13.1896293  26.5865898  86.8262863  13.3116436  28.0634928  86.5183067
  62.6983881  46.9414139   3.5714868  62.4066496  47.6901865   3.0514300
  63.5806370  46.7556715   3.2499695  58.6212540 103.9736557  28.5989761
  59.0791273 104.8110199  28.6724448  57.6955748 104.1976166  28.6948323
  31.6661835  22.1885872  39.4195485  30.9766102  22.1703577  38.7559295
  31.2930274  21.7192268  40.1656628  20.2146149  64.5354652   3.6300227
  21.1504078  64.3567419   3.5373911  19.9013031  64.6431923   2.7319896
  22.6644874  57.9510212   5.8703941  21.8928909  58.4190083   5.5512369
  22.3991728  57.6047611   6.7224181  43.7337208 106.3826847  87.8899765
  44.2747879 106.6161537  87.1356773  43.3762407 105.5221367  87.6711273
   9.2384177  11.2063849  73.6296463   9.7522449  10.5769861  73.1236124
   9.0720475  11.9251466  73.0197811 101.3389111   0.5623129  91.9546509
 100.7196140  -0.1524165  91.8067932 102.0482349   0.1640946  92.4591446
  10.4254210  23.6831999  78.5674906  10.0669658  24.5463181  78.7742996
  10.9085476  23.4297752  79.3540001  95.9668159   4.4925418  56.3810873
  95.1563358   4.4628581  56.8894768  95.9746552   3.6682796  55.8945084
  48.7693548  62.4022865   3.1476316  48.3697939  63.2445526   2.9304424
  48.9670801  62.4648571   4.0820947  65.8590603  15.0959313  85.1268768
  65.0992775  15.6573915  84.9728489  66.6089392  15.6887686  85.0773430
  55.8163595  20.5559802  49.7651386  56.1405039  21.1960125  49.1314840
  55.0826216  20.1303196  49.3216610 116.4394569  92.4498272   5.6080282
 116.2144279  93.3547020   5.8243519 115.6073284  92.0499611   5.3552496
 114.5316410  10.6973100  87.5825405 114.1017342  10.0238144  88.1096172
 114.4075775  11.5058875  88.0795670  18.0102587  16.7374885  92.3680496
  18.6434984  16.3867152  92.9943085  18.4292400  16.6242659  91.5149021
  77.1983337 101.6214848  77.2163963  76.4165783 101.2557507  77.6303148
  76.8608570 102.2677517  76.5961647  63.2105017 102.0028305  40.5291367
  63.6665440 101.4560986  41.1689329  62.3948383 102.2509956  40.9642696
  88.4120941  98.2228947  77.9162264  87.9428768  97.4181557  77.6960564
  89.2212009  97.9227257  78.3303165  45.1499557  50.2829885  11.6978741
  45.6002760  50.6550074  12.4561930  45.3418016  49.3462086  11.7411876
 102.9485989   1.3302565  58.6706829 103.0327415   1.7775021  57.8285885
 103.6873817   1.6517299  59.1874886  34.7819328 101.7127800  62.9697752
  34.8432565 101.1487770  63.7407351  34.9255228 102.5967693  63.3076763
  92.9571915   7.3808640  54.8893261  93.6066723   8.0648082  54.7261524
  93.4586716   6.5656948  54.8735952  63.6279106  99.2632008  68.5015726
  63.2743692  98.4179974  68.2243156  63.0314779  99.5582199  69.1896629
  47.8189087 100.2280331  48.6893177  48.6526918 100.0798225  48.2431364
  47.9181719 101.0850334  49.1039658  61.8514681  35.9515429   8.6888051
  61.4452124  36.5169454   9.3456948  61.3828087  36.1509109   7.8783470
  10.4759860  18.2839203  90.4036236  10.7693827  17.5920296  90.9964466
  10.4695761  19.0746760  90.9429741  78.2973909  10.3304088  96.1057949
  79.1372538  10.6318271  95.7593727  78.4411001   9.4068992  96.3124657
  14.1058373   0.3289841  57.5375605  14.5715641  -0.4233696  57.1724653
  14.7550988   1.0322903  57.5444221   5.3806514   6.8341148  82.7414513
   6.2685895   6.4887857  82.6490116   4.8136681   6.0723639  82.6210499
  93.2963848   2.4778754  46.9255972  92.3977661   2.7821314  46.7985439
  93.8402557   3.2171819  46.6538143  92.3078918  77.5582027  58.7804222
  91.5197754  78.0810356  58.6329365  92.8284645  78.0773211  59.3934107
  86.2728596 101.6995049  95.6584167  86.2648296 102.5984669  95.9871101
  87.0658112 101.6466427  95.1248741  12.9616559  17.8439844  29.5520568
  12.9407287  17.4112844  30.4056168  12.8127241  17.1386981  28.9222765
  20.9101439 100.9554195  26.5861416  20.1763034 101.1000443  27.1834636
  21.0721040 101.8132782  26.1936092  77.6490688  16.5153301  80.8378506
  77.2806406  15.9682167  81.5315056  78.5495949  16.6813779  81.1166191
 100.6261063  19.0774763  91.5138721 101.2278175  19.7009444  91.1071110
  99.8683357  19.0597045  90.9293175  77.5933886 111.4102268  76.0120249
  77.2617435 112.1724224  75.5373669  77.6909828 110.7342625  75.3413725
  98.0042744  63.7796545  53.5098505  97.5334549  64.2591619  52.8282070
  98.8141537  64.2743349  53.6347866  67.4721384  20.7036591  77.0587349
  67.8146219  20.0668383  77.6859474  66.9808340  20.1778221  76.4275932
  93.4833813 106.9824791  94.6154881  93.4040546 106.1342239  95.0518322
  92.5856209 107.2145271  94.3779755  92.7802944 107.9167080  89.9452400
  93.0817318 108.3275795  90.7555199  93.5095596 108.0269337  89.3351078
  36.1885667  74.2062902   2.5012317  36.2869930  73.2853937   2.2593790
  35.4320002  74.2204285   3.0874389   5.5633152  28.0090213  59.7675753
   6.4953893  28.1569982  59.9274921   5.1572216  28.0844569  60.6310749
  84.9022770  98.4365940  89.6965504  85.0091457  98.0042553  88.8492680
  84.5973396  97.7436447  90.2822590 106.1638832  26.3001156  96.3212013
 105.2294540  26.4882851  96.4086723 106.2015820  25.3673935  96.1094379
  31.8203545  70.1290751   4.7135869  31.0993767  69.5002842   4.6811774
  32.5318909  69.7024298   4.2361772  89.9789810  34.4248700  71.3875532
  90.2789879  33.9927149  72.1872187  89.5641994  35.2318144  71.6925573
  73.8739777 105.3888988  85.9567165  73.5992002 105.9576225  86.6759396
  73.2871914 105.6149292  85.2350330   8.0614883  62.0725298  85.9831524
   7.6093280  61.8855953  85.1604557   7.3945630  62.4800253  86.5357780
  92.0860481  30.7560205  73.3170843  92.5301456  30.7946157  74.1641474
  91.4294624  31.4512730  73.3589888  57.3937654 105.7488060  93.7016201
  57.1262121 106.5269184  94.1906834  58.3282900 105.6583786  93.8879585
  94.7749615   9.1826558  78.6738443  93.9758110   8.6679935  78.5611153
  95.4808235   8.5364312  78.6539841  95.2849579  22.7036476  84.6230316
  94.6422958  22.2120476  84.1116238  96.0427856  22.1215415  84.6785545
  79.0105486  93.4738445  82.9955482  79.1274881  93.7439537  82.0847321
  79.8932457  93.4901524  83.3654213  60.8888626  98.1602287  87.2373676
  61.4368391  97.9589844  87.9959488  60.0717735  98.4886551  87.6125145
   3.8873732   6.7086703  74.1687202   3.2202646   6.0225505  74.1896296
   3.6406198   7.3042923  74.8762321  88.5002232 104.5690060  57.9605722
  89.1284180 104.8265553  58.6353064  88.9812946 103.9529514  57.4080515
  99.6653557  25.7369208  70.9179640 100.5771542  25.6653166  71.2003469
  99.2868900  24.8790860  71.1106157  44.0838051  99.2953587  78.4136677
  44.4197559  99.2194080  77.5205851  43.8466311 100.2184391  78.5026455
  32.0456123  17.5617206  14.5740378  32.0810819  16.9490504  13.8394570
  31.1332703  17.5371349  14.8625875 114.6815014  47.6187658  23.0879831
 115.4001141  47.2629404  22.5652742 114.7309589  47.1440697  23.9177132
  43.5379219  51.5010118   9.8063660  43.8971233  51.0449600  10.5674326
  43.9308453  52.3731089   9.8422670   6.6088820  86.3180828   6.0229605
   6.4540094  85.3910923   5.8415020   6.3824046  86.7630959   5.2063179
  76.0098028  47.6774979  15.5658019  75.9806442  48.4963131  15.0709045
  75.6595469  47.9055166  16.4269412 114.1941357   8.0585676  72.5803375
 114.2687511   7.6807189  73.4566307 115.0618744   8.4205896  72.4009180
  32.2699833 101.4253426  42.0492172  31.7891669 101.1997795  41.2528706
  32.5260973 102.3390579  41.9236708  37.2406197  79.3773746  58.6078072
  37.1550131  79.9383259  59.3786764  38.0014729  79.7246075  58.1422234
  11.7407596   9.4260269  62.5869989  10.8864164   9.8408532  62.7063656
  11.7216945   8.6665410  63.1692791  40.5956841  37.0364857  11.0411286
  40.8504820  37.7438855  11.6334951  39.7974515  37.3536611  10.6186855
  94.5206165  11.6860604  50.8580971  94.1154575  11.5373588  50.0037193
  95.4262447  11.3965678  50.7473469  56.5630627  69.4301176  23.7809443
  56.7790651  69.6584892  22.8768301  57.3328257  69.6938848  24.2850518
  92.5456715  77.0937109  48.4487772  92.8994465  77.8377867  47.9615211
  91.8291187  76.7691469  47.9033947  91.4283371   3.9965335  56.0756922
  90.9699440   4.4297475  56.7957163  92.3506737   4.0195599  56.3306284
  60.0212526 109.5536613  91.7544365  59.8689747 108.6131382  91.8463898
  59.2270279 109.8850346  91.3353539  81.8086910  85.3205299  33.4300542
  81.3574123  85.1259613  32.6086402  82.2839260  86.1329079  33.2556415
  93.5433578   5.8200753  79.7530890  93.4829807   5.0996476  80.3804398
  94.3636703   5.6625032  79.2856550  97.7450466  42.0701456  69.9775696
  97.3020744  42.3584843  70.7756090  97.2922230  42.5320864  69.2720270
 110.0224972  18.9457965  88.1958580 109.1207886  19.2078674  88.3815193
 109.9372864  18.1826055  87.6244450  28.0242419  44.3842077  11.3388908
  28.7387037  45.0206518  11.3121903  28.4607768  43.5380840  11.4375925
 105.4773712  35.6652713  40.5890083 104.7143745  35.0897384  40.6423569
 105.7434464  35.7952476  41.4992523  68.3524990 101.2988853  64.1406393
  68.1838369 100.4846668  63.6664820  69.1610241 101.1310673  64.6247435
 113.4354782  12.0577049  79.3761969 113.4097004  11.3681996  78.7127590
 113.2285786  12.8596711  78.8963270  65.2796507  97.1912670  42.8480244
  65.7967377  96.3987637  42.9922390  64.8791981  97.0627975  41.9881630
  74.2277861  84.6502018  42.2341156  73.5404825  84.6671772  41.5681124
  74.2501307  85.5431938  42.5780535  41.8454838  79.3136930   8.7639552
  41.7694759  79.2695379   7.8108001  42.5916147  78.7509966   8.9710528
  70.7104778  81.9385529  50.1035833  70.8920383  82.6349545  50.7346773
  70.3490829  81.2259293  50.6306505  80.5979156  89.6079922  63.1142998
  81.2790012  88.9383507  63.1770515  80.3067875  89.5688725  62.2032833
 116.2858677   3.0113718  64.2408419 116.4550972   3.9155239  63.9760780
 115.3869438   2.8432778  63.9581299  10.6805861  55.1934052  12.1927238
  10.7563221  56.0815763  12.5415039  11.5807688  54.8690939  12.1657860
   6.8288273  40.4388285  27.7149653   6.2508398  39.6907163  27.8649306
   6.8013656  40.5767012  26.7681456  48.9325476  90.3180218  65.1367474
  48.2397032  89.9097538  65.6558990  49.6524286  90.4439640  65.7549238
  10.9523427  15.7419562  49.1859245  10.0375009  15.5994356  49.4287920
  11.0524511  16.6938710  49.1776466  44.4017839  90.9419727   8.3921915
  44.6887589  90.0296593   8.4318089  43.9713764  91.0944080   9.2334652
  70.8080912  45.6324244  15.4659200  71.1842966  44.7554302  15.5406189
  70.7117748  45.9295940  16.3707113 111.7083073   3.3106983  83.9773750
 110.9059334   3.7826359  84.2003345 112.4141788   3.8822976  84.2794514
   4.3049186  16.7922819  84.2487049   4.0089643  17.3815215  83.5548401
   3.5410768  16.2494576  84.4439411  24.9952888  13.6995959  59.2784405
  25.8179593  13.8747394  58.8215303  24.3161345  13.9786029  58.6643267
  81.2376785 107.9513359  80.9056091  82.0745182 107.6224041  80.5773830
  81.2189865 107.6838684  81.8244934 117.6709790  21.5573335  77.2354698
 117.5260148  20.6119108  77.2728443 118.3641866  21.6678119  76.5847111
  85.6141758 108.3036423  62.0648193  86.0739899 108.8159752  62.7298880
  85.0115395 108.9258289  61.6574478  44.3459606 106.9543266  94.5137882
  43.4455729 106.6353607  94.5753288  44.2571449 107.8801250  94.2874050
  80.5288410  22.2208524  45.8061790  80.8897209  22.1866012  46.6920805
  80.9556961  22.9766655  45.4027319 117.0017147   6.7155033  86.3335705
 116.0629082   6.8972045  86.3767147 117.3495007   7.3894066  85.7495117
 114.8714638   4.3820259  51.1589432 114.5882607   4.7140580  50.3070164
 115.7991505   4.6124077  51.2094545 108.0930614  25.7349467  74.6508360
 108.8793755  25.5967379  75.1788902 108.3460808  26.4043307  74.0151167
  23.4930515  29.7847581  46.0576439  23.7536311  30.3496051  46.7851591
  22.8910422  30.3210902  45.5417299  42.0421314  75.6839275   4.9866712
  41.5758514  76.4947844   5.1899546  42.6148939  75.9139681   4.2550588
  20.8394718  13.4388983  46.0117197  20.3142357  13.1003404  46.7367983
  20.4273748  14.2729628  45.7864618  15.0764012  23.6907458  59.6820927
  14.4306350  22.9887199  59.6022415  15.4270875  23.7953377  58.7976122
  94.6385479  21.7272449  73.2525587  94.9771500  20.8667397  73.0053520
  94.5209122  22.1863055  72.4209023  30.6582236  20.7223296  80.9329128
  30.4317570  20.0096703  81.5304565  29.8519564  20.8916116  80.4455662
  14.6138477  10.2702117  78.4988499  14.1901791   9.8039484  79.2195034
  14.0007675  10.1896715  77.7681828  29.0212178  55.4833746  54.1740847
  28.9798784  54.5298958  54.2475843  28.1375623  55.7790184  54.3931293
  97.3152733 110.2532482  86.0816097  97.5228691 111.0448647  85.5851460
  96.4923382 110.4578876  86.5256023  69.4746780  99.2031765  58.8516903
  69.5781279  98.2517624  58.8698769  70.3539181  99.5429325  59.0182257
 115.6949329   1.1892889  70.1624441 115.5146313   1.0878614  69.2278671
 114.9691296   0.7408568  70.5964470  88.4937000  96.0512829  66.5280199
  88.3496189  95.6371403  65.6771612  89.2763996  96.5880680  66.4036560
   7.2342128  19.5845520  78.2647324   7.2108352  18.7655592  77.7698183
   6.5335989  19.4941616  78.9106417  34.7656775  47.6710129   5.1807696
  34.9746442  47.0716858   4.4642708  34.5294666  48.4905767   4.7463140
  90.4348087  96.7632961  79.1413641  90.3717804  95.9301376  78.6743546
  90.3684330  96.5251541  80.0660896  97.6781654  16.4207423  38.1161737
  98.5892296  16.7129648  38.0881000  97.2317791  16.9656324  37.4680448
 106.6147137  23.5101986  61.0975313 106.5446758  24.1803980  61.7773533
 107.2716713  23.8519740  60.4910421  99.3726730  20.3722858  50.9907341
  98.8316154  19.5831871  50.9622669 100.2607918  20.0601196  50.8174324
 110.5228043  44.6020317  86.3873100 110.0816917  45.4302073  86.1981678
 111.2945080  44.8522615  86.8953323  69.4201517  83.0138206  31.3691831
  68.4718609  82.9179668  31.4574051  69.6913958  83.4603310  32.1712351
  94.0865421   9.8796868  44.1158724  94.3424034  10.6793463  43.6561871
  94.6339893   9.8691601  44.9009991  58.1657696 110.0100803  56.7596197
  58.8905764 110.5786800  57.0195723  58.5115910 109.5013332  56.0262537
  54.6635592 111.6555023  73.5256672  54.5326578 110.9787350  72.8615284
  55.4439795 111.3745108  74.0033865  50.5154419  99.4090176  59.3708467
  50.6829166  99.9120998  58.5739136  51.0378265  98.6137772  59.2662907
  17.3179591  26.2151957  73.7615061  16.9203937  25.5510378  73.1984186
  16.5907395  26.5518904  74.2849779  26.2819171  55.4615545  14.8001516
  27.0883036  54.9845314  14.9961603  25.9812331  55.0926256  13.9696622
 117.2477341  83.5615730  20.7308865 116.3216877  83.5872841  20.9717464
 117.3722839  82.6919651  20.3507566  28.3262467  11.1218727  87.2704411
  27.5643826  10.6136155  86.9921112  28.5707951  10.7438087  88.1151295
  39.1684127  99.0975571  55.8012056  39.8447442  99.4150066  56.3995647
  39.2249799  99.6810627  55.0445414  87.4098778  23.5134745  77.9319620
  87.5335598  22.8120875  77.2924328  87.1934414  24.2826796  77.4049759
  74.8980474  91.6182041   3.4693041  74.1804123  91.3850021   2.8803670
  74.5339537  92.3020554   4.0314543  22.9336095  50.5558968   1.8026718
  23.8231325  50.7200670   2.1157686  22.6749873  51.3731337   1.3766821
 110.2446365   0.9817049  84.3879509 110.5790138   0.2656494  83.8478756
 110.8856583   1.6840333  84.2781544  50.9567785 110.3921413  85.7263088
  51.2932920 110.4742241  84.8339844  50.9044123 109.4482708  85.8766651
 102.6055241  18.7016022  59.2482376 103.1644154  18.4778106  58.5040760
 103.0756950  19.4034135  59.6983814  13.5034585  21.1746979  82.1500874
  14.4288886  21.3409853  81.9707489  13.3055377  21.7192149  82.9120350
   2.3620926  80.8389187   3.3577231   1.7939471  80.3336906   2.7761891
   2.4966896  81.6685581   2.8996715  14.4934893  52.4827242  19.8272204
  13.9041543  52.8629494  20.4786372  15.3712237  52.6740599  20.1576805
  82.6178837  44.5286655  91.4888573  83.2208729  44.1085720  92.1021748
  83.0260086  45.3716373  91.2912083  92.4408054   1.0660541  90.2686977
  92.9464149   1.8484293  90.4888821  92.4831867   1.0143509  89.3138409
  56.0494041  65.3639460  16.5910351  55.3417301  65.0008631  16.0584915
  56.8484879  65.1317787  16.1179626  15.3287804  30.5105114  70.1409721
  16.0649443  30.8664489  69.6433735  14.9084163  31.2780356  70.5288267
 110.3969574   2.8396636  62.8013039 109.4834995   2.5552288  62.7710009
 110.3676605   3.7654871  62.5600052 104.6238899  36.8166113  75.8394670
 103.7449455  36.6012311  75.5275345 104.7421360  36.2716913  76.6174889
 112.8552818   9.0678805  96.3987637 113.5905838   9.5577157  96.0304832
 112.8620148   8.2350427  95.9269905  53.3554077  77.5704336   7.4708742
  53.0786657  76.6583109   7.5584817  53.5801220  77.8391600   8.3616722
  28.7052608  16.9988704  82.9352188  29.5297241  16.6392994  82.6078129
  28.9399838  17.4232042  83.7604904  23.1147170  88.6546516  13.8909650
  22.8418231  88.8848972  14.7790825  24.0694213  88.7213421  13.9088893
  81.0496902  88.7359619  53.2512903  81.1940956  89.6666241  53.4223223
  81.6233063  88.5365868  52.5113916   0.3156042  11.2369990  76.7389250
   0.3373583  12.1733129  76.9366026  -0.2413221  10.8611476  77.4206877
  12.6183283  33.9725876  50.5292988  12.7869868  33.8331819  49.5974445
  12.4328899  34.9088597  50.6016922  60.6597662 110.9648132  38.4144950
  60.5959702 111.5386009  39.1779876  60.0178623 111.3154602  37.7970529
  98.2508755  98.5318756  94.8739243  98.5195065  99.3417645  94.4401550
  97.5687885  98.8038921  95.4879189   2.9095685  16.3825965  53.8351297
   3.4908113  15.9237099  53.2286596   2.9346529  17.2950017  53.5468245
 114.2760658  22.0983744  60.8806944 114.8784256  22.3798704  60.1921129
 113.9159489  21.2713146  60.5605078 103.7626934   6.7605311  96.6168118
 103.2972145   6.7186695  95.7814598 104.0777016   7.6628160  96.6705132
  67.1398449 107.0805073  67.1146107  67.6209450 107.1581745  67.9384708
  67.0780182 107.9780674  66.7878199 100.6434441   0.3433071  60.0974464
 101.4494801   0.5329660  59.6172714 100.8650494   0.5115113  61.0133219
  12.8878582   5.2875578  88.3405781  13.5423446   5.7220399  88.8874817
  12.2827268   4.8863104  88.9643192  97.7125549   2.3874138  88.9302349
  96.8952656   2.8191495  88.6814690  98.2721043   3.0972168  89.2453671
  87.9380894  99.3207073  94.2192364  88.5744953  98.9850903  94.8505592
  88.3703041  99.2266178  93.3703804   0.4267253  25.1109505  56.7406130
   0.7994214  25.5838346  55.9964943   0.1964195  24.2516732  56.3872910
  54.2779636  99.9484825  77.7565336  54.7630501  99.2130661  78.1308174
  53.9677525  99.6251202  76.9106960 106.2555695  24.6260357  80.2532101
 106.1588287  25.0096083  79.3815756 105.3581524  24.4677591  80.5461788
  99.7164917  15.0305176  69.6053553  98.7597752  15.0182319  69.6330166
  99.9376774  15.9308827  69.3673420  27.8214169  76.3469696   2.8620869
  28.4538412  76.9938707   3.1747985  26.9761801  76.6660166   3.1783384
  21.1831307  27.0729685  83.3738899  20.9984612  26.5289211  82.6082993
  20.6440234  26.6976261  84.0701103  83.5087585  90.8697987  62.1653795
  84.2404270  90.5248070  62.6771116  82.8456020  91.0954857  62.8176975
 118.1106853  26.7033935  82.0646095 118.5152245  27.5429916  82.2829056
 117.3372746  26.9365025  81.5510654  69.2472982 105.7154465  55.2123642
  68.4754562 105.5939579  55.7652950  68.8985968 105.7677555  54.3224716
   7.9490966   7.0680863  63.7024212   8.0751556   7.6059097  62.9207039
   7.4775046   7.6368618  64.3109703   4.4422841  11.3877225  81.3547039
   3.9137655  11.0189712  80.6469440   4.5770019  10.6573534  81.9585609
  39.1042161  56.0631752  31.5112543  39.4540977  55.3752232  32.0774174
  39.7378874  56.1309242  30.7970405  13.2337666  16.2070751  73.1300306
  12.8558111  17.0456600  73.3949041  14.1796136  16.3517141  73.1562138
 105.8827972  32.6624131  72.8490353 105.2754211  32.0730186  72.4018764
 106.4817810  32.9552007  72.1622181  15.2382481  26.1444569  89.0970802
  14.7223938  26.9456172  89.1880322  14.6360517  25.4425383  89.3438625
 114.6231937  31.3788128  61.5615368 114.9594688  30.7610989  60.9122419
 115.2188873  32.1264219  61.5118933  12.9614854  46.7681217   0.7195719
  13.6738300  46.4100122   1.2492455  12.4218976  46.0088682   0.4990880
  21.1007524  79.6765232   7.5673354  21.6116381  80.2151203   8.1716025
  20.9325528  80.2496147   6.8193305  79.7775745  97.4238777  53.5508728
  79.6720886  96.6311932  53.0247927  79.0544415  97.9893398  53.2796431
   6.8761933  16.9750202  90.7420921   5.9438360  16.8492186  90.9184837
   7.2224683  17.3599315  91.5471840  47.2494841   9.8028201  70.7032490
  47.1694326   9.8652476  71.6550493  47.9774857  10.3848886  70.4854298
   9.4725752   1.1944760  81.3498688   9.8380744   0.3452073  81.1021137
  10.1918614   1.6448106  81.7926598  12.4412572   9.5558327  76.6885233
  11.6963160   9.9623096  76.2457228  12.1219599   9.3681657  77.5711679
  16.5279257  94.4030476   4.6480247  16.0976934  93.5511017   4.5751643
  15.8779037  95.0278950   4.3266630  81.8967152 102.7251816  73.6374426
  81.0102177 102.7057934  73.9979649  82.0421600 103.6431503  73.4085417
  25.2638960  14.6755695  88.8812065  25.4775095  14.4764674  87.9696369
  25.5219150  13.8907194  89.3645954 109.6922398  26.7384505  51.4440727
 109.4573498  27.6155424  51.7470026 110.0687885  26.8780017  50.5751848
  40.2996874 108.3210850  93.0298996  40.6933546 108.3390522  92.1575832
  40.0800514 107.4007320  93.1746387  82.7298450  24.7168231  60.6292820
  82.4474239  24.9336886  59.7407818  82.3149967  25.3799224  61.1810303
  82.9661179  99.2564869  79.4751263  82.6099682 100.1297283  79.6389627
  83.1919861  98.9231396  80.3435135 111.4263439  42.2316217  91.5667343
 110.6877899  41.9127464  92.0854759 112.1344185  42.3427105  92.2011852
  65.5611372  81.2889099   6.0807627  65.3037119  82.1856594   6.2947565
  66.4447975  81.2016296   6.4381981  24.6863985  31.3483310  74.5897198
  25.5146933  31.0445166  74.2184353  24.0316057  30.7430339  74.2417336
  10.4979289  36.2361169  48.4672546  10.3440964  37.1088552  48.1054592
   9.6366048  35.8186221  48.4600592 110.4101181 106.6543770  89.3989754
 110.5512047 107.2954178  90.0956726 109.4582272 106.5798759  89.3312263
  90.8406448   2.7212259  59.4019413  90.5666542   3.5594916  59.0298271
  90.5699444   2.0713523  58.7533903 103.5437107  50.3865385  11.1753988
 103.3477592  50.8810568  10.3796041 103.2084465  49.5073557  10.9997034
  23.3304143  25.7557726  40.9002256  23.3669806  25.0920939  41.5890121
  22.4013090  25.8208513  40.6794071   8.9137417  12.5847065  43.4559536
   7.9600829  12.5623739  43.3767843   9.1056764  12.0146906  44.2005825
  35.5531144  10.0827515  50.9260607  35.8991885   9.3569452  51.4453602
  36.0235405  10.0277853  50.0942516  29.4395661  26.1771131  70.8140755
  29.9697423  26.8343353  71.2648582  30.0775337  25.6162930  70.3728151
   8.2549137  26.6242886  71.9368172   7.5424033  26.2807965  71.3977671
   7.8161871  27.0195913  72.6901340 112.9385662 106.9623470  41.6080904
 113.3655548 106.6447544  40.8124495 113.5788441 107.5537109  42.0037937
  81.3957214  75.8255863  70.8753681  82.2735023  75.7623386  71.2518454
  80.8664227  75.2244806  71.3995266 100.8116055  94.9750328  48.2385445
 101.7607689  95.0215816  48.3532047 100.6498718  94.0795994  47.9414225
  24.0431690   2.0282632  51.2616587  24.3489885   1.6466837  50.4387951
  24.0756869   2.9734546  51.1140490  17.2896957  17.6075315  44.2673492
  16.8737960  18.4183133  44.5604229  16.9512427  16.9367671  44.8604393
  13.6006033  20.3881454  55.3382492  12.6994133  20.0806284  55.4358292
  13.5200512  21.2238479  54.8785257  13.6538553  10.7065058  74.0511274
  12.9536653  11.1414313  74.5377541  13.5365641   9.7760624  74.2428255
  91.7790699 102.9915524  66.5991735  92.0214844 102.1164703  66.9019794
  92.4376678 103.5693741  66.9846630   7.1644545  51.3403034  53.6644983
   7.5233620  51.2755060  54.5494938   7.6864839  52.0234585  53.2437611
   3.8423416  31.5581369  14.8828936   4.2678183  32.4001169  15.0449765
   3.2130197  31.4661574  15.5982435  86.1763477  71.3933277  69.5167398
  86.1451340  70.6716585  70.1447964  87.0390034  71.7871141  69.6470547
 109.8118782   3.0058280  65.8009100 109.4483948   3.8913280  65.8001184
 110.1514244   2.8855076  64.9140787  18.5074735  35.5442357  61.9860268
  19.1421914  35.7578826  62.6699305  17.7545881  35.1909256  62.4599171
 114.4355202  28.0237818  45.4277134 113.9379501  28.1063890  46.2412453
 113.8595772  27.5303125  44.8437548  99.3579769   5.2508080  40.4240513
  99.0271854   5.0940639  41.3084984  98.9602947   6.0815328  40.1633263
  19.2342913  21.2706995  95.9679031  18.6058605  20.6612635  95.5807400
  20.0859427  20.9702063  95.6506920  84.7889137  99.1437912  74.8807001
  84.7035599  99.9225998  74.3307972  84.8954964  99.4874001  75.7677174
  19.2010009   0.5486270  68.5759258  19.1829669   1.4989811  68.4630823
  19.8712254   0.3992934  69.2428064   6.6396034   0.0958897  77.6925039
   6.8319243   0.9549831  77.3167372   5.8648914  -0.2052041  77.2177458
  99.5703411 111.0918617  70.4061842  99.7619724 110.2750492  70.8669710
  99.4089413 111.7278290  71.1031246   4.0963727  71.5188837  46.0289335
   4.3800163  70.6155872  45.8880949   4.2812312  71.6866541  46.9530058
   7.3453754  40.1278305  80.4589748   7.5508904  40.1546431  81.3934708
   7.9164916  40.7896614  80.0690556  73.9666128   6.1867797  62.0243168
  73.3474827   6.1182505  61.2975359  73.4291315   6.0738701  62.8082800
  49.4019127  50.4851437   4.5020792  48.8407850  49.9827051   3.9113855
  49.7151518  51.2167978   3.9702964  17.1910775  47.2698975  87.5457668
  16.6098058  48.0297375  87.5141811  16.9140077  46.7886305  88.3254147
 105.0877666 107.8691578  40.6971884 105.7586193 108.2410622  41.2697840
 104.9792576 106.9702625  41.0077620  27.9101467   4.7430873  74.6984911
  27.4464345   3.9366466  74.4729805  27.2157764   5.3698754  74.9015093
 116.7988777   4.0829444  84.1365814 116.6536999   3.2551599  83.6784077
 115.9586430   4.2774510  84.5517826 110.4826450  12.4716806  68.4894419
 110.5863285  11.5321624  68.6403942 111.0593700  12.8828001  69.1333342
 116.4935970  27.2835112  84.9629021 116.3105392  26.4643884  84.5027256
 115.6376266  27.5820708  85.2701569   7.0441395  20.5899429  75.4973888
   7.3819488  19.9569523  76.1309814   7.3712373  21.4351058  75.8055067
 110.1693439  33.9061904  69.9136305 109.8077106  34.0537977  69.0397501
 111.0446167  34.2921114  69.8789597   5.4801792   8.0939263  65.0589561
   4.8429796   8.6891639  64.6641111   5.4250002   8.2724333  65.9977436
  18.2395458   1.5122806  94.9288082  17.8716600   1.6355036  95.8038521
  18.5941708   0.6232803  94.9410820 117.5252914  15.4400790  42.5223875
 116.7015171  15.7143891  42.1194220 118.1037045  15.2545857  41.7826176
  34.7270179  25.0447869  64.5377016  35.1030540  24.7670221  65.3729725
  35.3274179  24.6982074  63.8776779  29.5920801  20.3996038  88.1522560
  30.1073790  21.1702657  88.3905411  28.7039876  20.7343721  88.0279446
 118.4413815  40.0830746  44.4441700 118.4344959  40.6500006  45.2153873
 117.6007080  39.6263933  44.4751072  17.6058245  40.9753609  78.3220100
  18.5060883  41.3001871  78.3063602  17.2459090  41.3067245  79.1447449
 111.0168743   5.0094670  72.4463606 111.6374779   5.5859429  72.0005369
 111.3949585   4.1347682  72.3558712   3.8381565   6.3644165  69.8078203
   3.8634393   5.8110702  69.0271759   3.1577545   5.9739155  70.3562641
 110.4827118 110.9541798  68.6736774 111.3002872 110.5419064  68.9526606
 110.3022575 111.6088867  69.3482351  12.9991448  14.4252658  58.6499071
  12.5790536  14.9118221  59.3591452  13.4201145  13.6836910  59.0847445
 102.5405979  97.8697872  50.8114004 101.6319466  97.8549767  50.5107832
 102.5356865  97.3490429  51.6145420   6.0359263  20.7038426  63.4009457
   5.4997838  21.1954260  62.7787447   6.0865456  19.8229635  63.0298376
  17.4303102   8.8412142  83.3243752  16.6867137   8.9315486  82.7284431
  17.0926630   9.1259998  84.1735649   2.0972505 102.3585796  49.6853733
   1.3306847 101.9855309  50.1206303   2.6526994 102.6670647  50.4012966
  10.9567821  36.2489796  53.9167690  10.9447289  35.4047441  54.3677187
  10.3849339  36.1241460  53.1593800  12.4697399  21.8495107  67.9338264
  12.9826605  21.9129944  68.7395000  12.4556303  20.9139442  67.7319670
 112.4421978   2.7092254  71.8089771 112.9262829   2.8087845  70.9892273
 113.1112099   2.7688840  72.4909592  59.7686005   5.1258504  50.5540228
  60.6518507   5.0447047  50.9139013  59.8665857   5.7208449  49.8106432
  51.1561441  21.8376660  13.0773127  50.4928303  21.3038373  13.5146582
  51.2521410  22.6073575  13.6381960 106.6844845  98.0809116  82.9655838
 107.2042084  97.3987865  82.5403500 107.3051453  98.5342026  83.5361481
  39.3124676  55.2869701  92.0087528  39.6952128  55.7754135  92.7375603
  39.0746617  54.4402409  92.3865414  23.0384254  49.4790602  67.9780436
  22.1493745  49.3441820  68.3061123  23.3992267  50.1654863  68.5391760
  80.6992054 109.6267128  59.0933943  81.0746956 110.2957535  59.6657801
  80.7245350 108.8241100  59.6143675  79.9419355  27.1153259  28.1997395
  80.6443310  26.6344619  27.7619672  80.0457668  26.8999577  29.1265988
  50.4331446  35.1390672   9.5619965  49.5796299  34.7927785   9.3015599
  50.9414482  34.3653226   9.8052573  10.2023280  29.4650292  49.2645311
   9.5649689  30.0975180  48.9329243  10.9324861  30.0008130  49.5744324
  95.3237438  83.5422039  28.1669807  95.6075859  82.7928829  27.6433635
  94.3790913  83.5924149  28.0208945   6.8027920  13.0696785  58.5959101
   6.4339989  13.9434159  58.7255526   7.5862014  13.2165945  58.0658960
  26.7992043   2.9217508  72.1542597  26.8274260   2.9261205  71.1974859
  27.3758817   2.2009900  72.4075937  12.9349411  19.5226991  10.4596937
  13.1677222  18.7426555   9.9561316  13.7731874  19.8697472  10.7648718
  35.6506729  52.0570612   2.8221607  35.6468368  52.1840715   1.8734325
  34.7542024  52.2539997   3.0938023 101.3268471  79.1240263  58.6637163
 100.9619045  78.5276651  58.0099583 101.9037914  79.7023392  58.1647921
  20.9714890  19.8687041  47.3680258  21.8155479  20.3025866  47.4926949
  21.0361814  19.0658557  47.8852081  39.4638658   9.8116082  89.4744110
  38.6612868   9.3263435  89.2830563  39.6713901  10.2633858  88.6564541
 110.7229424   0.7295107  71.8082142 110.4863548   0.9933618  72.6973915
 111.3552856   1.3890462  71.5229225   3.3193505  14.0430856  72.5072479
   3.1878671  14.9518478  72.2368908   4.2688158  13.9521134  72.5876951
  85.6528187  27.1346617  56.1849117  86.4722824  26.7949128  56.5444756
  85.7605839  28.0856514  56.2002945  22.0287251  15.9493577  93.9008617
  22.0642996  16.0989153  92.9560852  21.1220336  15.6925201  94.0687275
   0.4255588  50.0272036  73.7658691   1.1028308  49.5071316  73.3333683
   0.1239460  50.6359863  73.0915976  49.4973326  34.7942162  74.0732193
  49.0903568  35.5855083  73.7204266  50.4379463  34.9526477  73.9933491
  66.0005569 106.1303806   8.1076908  65.6308222 105.7377148   8.8984776
  65.3299332 105.9967709   7.4378812 116.6816425  32.2597265  49.5326471
 116.8955994  31.6146851  48.8585711 116.2907028  32.9887414  49.0510559
  96.7047119 109.9169159  34.1047287  96.4765644 110.4314327  34.8789740
  97.0716190 110.5549526  33.4927416 115.5300903  17.6724494  85.4845428
 114.9292755  18.1277370  86.0744286 114.9780273  17.3799574  84.7593498
   5.0136524  25.8707356  73.2215834   5.8139789  26.3817191  73.3424282
   4.4676536  26.4120770  72.6514339  98.6635303  29.9242544  26.8598199
  98.0631924  30.4176497  26.3009071  98.7982082  29.0979123  26.3958693
   8.5655940  50.3415966  68.2715845   8.8666010  50.6829834  67.4295187
   9.3591571  50.2825212  68.8035631  13.3734870  31.6119075  75.1982546
  13.5575998  32.5332499  75.3811836  12.4205315  31.5421891  75.2552462
  87.0226860 110.8225536  46.9489241  87.8468037 111.3058472  46.8898296
  87.1168327 110.2836895  47.7344084  34.8214984  47.5638819  58.2414389
  35.7619286  47.6337147  58.4055853  34.4151688  48.0185270  58.9792967
  23.2253909  26.6890836  85.6453133  23.0134869  27.1483493  84.8326683
  22.3954058  26.6474152  86.1203098  71.4406252 109.7282028  61.5645266
  70.8955097 109.3413734  62.2496796  71.0194063 110.5647659  61.3671017
  99.7073364  96.8595982  35.1716685  98.8249779  96.6348839  35.4669285
 100.0371742  96.0561180  34.7693539  14.3496847  19.6602619  38.9416957
  14.4739592  19.1402245  39.7356391  13.5475969  19.3132699  38.5512018
  12.6932871  22.2405815  63.2400465  13.0029285  21.4429402  62.8109503
  12.1353292  22.6627922  62.5868607 106.9175434  44.8294592  65.7360744
 106.9810200  45.2703238  64.8888206 107.4971676  44.0719318  65.6559181
 111.8691826  94.4901466  38.2592654 112.7513313  94.5142937  38.6300349
 111.6129303  93.5693169  38.3105731 103.3371925  33.9278674  41.0893631
 103.9060402  33.2967496  41.5302038 102.5974464  33.4065533  40.7775259
   3.1475571  16.5954340  48.1036234   3.5737300  15.9794533  48.6995888
   3.8689312  17.0880711  47.7122641  14.3490231  20.9578943  79.1728640
  13.8926280  21.4910626  78.5219669  13.9854825  21.2409782  80.0118732
 115.3881645  40.0435734  36.9574380 115.7679939  39.2854118  37.4014521
 114.4464207  39.8722839  36.9542384  36.7259741  31.2505722  37.4326015
  37.0142984  30.7892060  36.6450477  36.2044859  31.9828200  37.1038222
 109.9095249  88.3216572  49.1505098 110.7199097  88.0684948  48.7084389
 110.0662613  89.2197895  49.4421053  33.0286574  11.6887963  28.3117771
  33.6882710  11.4091337  28.9465451  33.0374599  12.6446080  28.3625650
  92.6745606 111.7253206  70.8138180  91.8310190 111.4725221  71.1890030
  93.0762077 110.8980115  70.5483580   3.6999851  14.3302584  81.8206024
   4.2379975  14.3583429  82.6117897   3.7384817  13.4168220  81.5370846
 105.1158810 109.9158192  69.6031523 105.5629730 109.3447781  70.2278566
 104.8153305 110.6571102  70.1288843  61.7448711  25.2140832  85.4383850
  61.0698843  24.8462224  84.8680401  61.2570810  25.6326509  86.1476803
 107.1773052  15.2254009  78.5917044 106.6075134  15.7914114  79.1124678
 106.6869164  14.4081426  78.5031700  28.5540724   6.3953555  80.3011227
  28.2450914   5.6885511  79.7343826  28.3758688   7.1947998  79.8057795
  27.8373528   5.1249009  86.9889545  26.9777584   5.3948307  87.3121738
  28.4563422   5.6828523  87.4598789  44.7756958  18.8456452  56.6871452
  44.9095058  18.7612689  57.6311827  44.1675377  19.5791817  56.5960550
   4.2895669   4.6890086  58.9909506   4.7660893   5.0074816  59.7575903
   3.3687600   4.8487744  59.1978836 111.7871761  28.5823321  72.5683737
 112.1041012  27.8539348  72.0343018 111.5621376  29.2636752  71.9348431
  77.1271324 101.9189358  89.7714901  77.6801252 101.2249470  90.1303959
  76.3404274 101.4656544  89.4683933  17.0514989  11.6321301  53.9572096
  17.6836979  12.3222554  53.7564993  16.2076056  12.0826530  53.9904404
  37.7444172  25.1428676  42.8971338  37.7595711  25.6907892  42.1124125
  38.2085800  25.6573629  43.5574961  48.8724661  37.9938889  73.6160612
  48.7837315  38.9241004  73.4085321  48.7078857  37.9417801  74.5575666
  57.0227337  10.6355309   1.6508414  57.3987532  11.3857830   1.1904474
  57.4657536  10.6285858   2.4993202   9.7994667  13.0566645  57.3067904
   9.9560022  13.8868916  56.8568420   9.8897594  12.3929286  56.6230249
   8.2546562  64.7974300  80.8472824   8.7183529  64.9859524  80.0313950
   7.8460586  63.9446115  80.6990051  38.4087253   0.7456645  48.8233662
  39.3483424   0.8872595  48.9387178  38.3267069  -0.1933152  48.6565685
  32.5599337  26.7055249  76.5775013  32.5815868  26.7252755  77.5342512
  32.5088739  25.7751751  76.3582373 107.2934246  25.5233741  20.2873778
 106.9724846  26.4245462  20.2539539 108.2032776  25.5821967  19.9959469
  99.9879932 102.3745823  42.4212980 100.3635311 101.6434574  41.9307280
 100.3268623 102.2659779  43.3098984 103.0302620 106.6600609  66.2110424
 102.3282433 107.0610905  65.6986284 103.6017132 106.2550926  65.5586100
  10.1407099   2.4399951  70.6872606  10.4851890   2.9442286  71.4243555
  10.8897662   2.3296933  70.1016140  36.9290590  72.3047161  12.2684336
  36.5157080  71.5132141  11.9236124  37.2046733  72.0649815  13.1531918
 116.2679386  59.3556404  51.8607235 115.4667282  58.8659000  52.0463181
 116.0543346  60.2601004  52.0899773 112.7122307  29.4798732  36.5896010
 112.9877567  29.7839952  37.4543691 112.2358227  30.2210903  36.2156057
  26.9393849  25.8191538  28.1387043  26.6447258  25.7093668  27.2346282
  27.8872466  25.9331918  28.0695105  25.1465178  11.9990993  40.8173275
  25.6882286  12.7511942  41.0563517  25.0658655  11.4950264  41.6270399
  98.1871700  88.3828354  46.1035347  97.7210808  88.8512325  46.7960644
  99.0870571  88.7039948  46.1609221   9.4595021  12.0053065   9.7248310
   9.8429984  11.1638963   9.4774652   8.8875389  12.2326112   8.9917397
  28.6900783  35.3986955  68.7317848  28.9763260  36.2806344  68.4941292
  28.8153601  35.3535104  69.6796703  90.6580961  82.1642165   0.8067674
  90.8645714  82.1716838  -0.1278716  89.9194849  81.5603023   0.8840627
 106.2200737   9.7398853  81.7667580 107.1548653   9.6641111  81.9581985
 106.1782932  10.3095174  80.9986401  10.2379572  12.7437115  71.3500023
  11.0919023  12.7215600  70.9181213  10.2803814  13.5073590  71.9255638
  12.8455186   3.1136525  59.1269541  12.8685975   2.3120847  58.6042786
  13.0331266   2.8230846  60.0194836  82.9831409  99.2741966  30.1064944
  82.6883221  98.3762264  29.9549222  83.4447765  99.5135880  29.3028688
   8.2317507  23.0651474  67.4496984   8.8527691  23.6185861  66.9761229
   7.4995947  22.9535604  66.8432903  39.8136950  10.2170706  13.6531520
  40.5486727   9.8684090  14.1576087  39.1618371  10.4546261  14.3126070
  37.9590845  45.2280378  74.5002031  37.0808125  45.5347633  74.2748404
  38.2185149  45.7705879  75.2448940  48.3371782  58.6230469  36.5457797
  48.6281443  59.1723061  37.2737098  47.6722956  59.1481829  36.1003566
  10.2411354  15.0531089  35.8341932   9.4448322  15.5656600  35.6948233
   9.9431473  14.1434765  35.8364582  23.3054733  63.5208130  84.2513180
  23.5440588  62.8254080  83.6383629  22.6274633  64.0196133  83.7955475
  54.3075418  33.4655237  72.3352623  54.6801043  33.1073380  71.5295744
  54.8321486  34.2455840  72.5156069   2.9029050   8.4242141  60.3349066
   2.5596070   7.5691962  60.0754356   2.1655771   9.0235269  60.2191353
  36.8256259  51.0259056  64.6822977  36.2586451  51.7823362  64.5320320
  37.5182343  51.3556957  65.2548075  25.7330680  22.7734518  39.1236567
  26.1798787  22.0948315  38.6176300  25.7555223  22.4535608  40.0255442
  32.4404478  33.7127066  65.0617027  32.7196956  34.6279025  65.0875521
  32.5667048  33.3983946  65.9569693  14.3895364  66.6048908  74.4127750
  15.3443897  66.5855837  74.3486404  14.0863097  66.4601660  73.5164833
  24.3178988  61.0949945  65.9897184  23.9344120  61.0213470  65.1157904
  23.6202478  60.8141279  66.5818548  17.1079206  23.6512351  38.3545160
  17.3231709  24.5474815  38.6126661  16.6774964  23.2773423  39.1233921
  30.3498077  48.9222765  42.9951048  29.6571088  48.4312439  42.5532007
  30.1253295  48.8697672  43.9241314  48.8745737  46.5963125  14.8477137
  48.3407021  46.6876125  15.6369376  49.0319633  45.6551361  14.7725677
  12.0207953  27.0795226  15.1964271  11.7834306  26.9157743  16.1091578
  11.3489199  27.6827550  14.8787391  46.7404079  60.8283377  22.5600767
  47.5670433  61.2862873  22.4078131  46.5775347  60.9333849  23.4974504
  18.8483261   0.2784202  56.5699911  18.3616661   1.0889004  56.4199209
  18.5177254  -0.3260090  55.9054661  22.6705074  52.4621296  29.7789955
  22.7754450  51.5209723  29.6395373  23.3862805  52.8590727  29.2826748
  25.6837940  18.2585812  49.3248367  26.5992498  18.2522929  49.6043634
  25.3863311  19.1515732  49.4989443  50.9494972  13.1137586  84.7344208
  50.5414104  13.7155449  84.1118813  50.2463579  12.5141370  84.9839783
  24.2213798   2.1306723  36.8359947  24.1370177   1.4892611  36.1305118
  23.7946630   1.7182021  37.5870013  28.8315606  50.0025749  76.6744614
  27.9901457  50.4286242  76.8379593  29.3033361  50.6134367  76.1083269
  98.6664200  85.3490925   1.4868468  97.7604008  85.3994942   1.7915118
  99.1336060  84.9083519   2.1965748  11.7689633  41.9406557  76.2272072
  10.8436286  42.1536827  76.1063385  12.2372806  42.6403952  75.7719278
 105.4793453  20.6943583  88.4790897 106.0152340  20.6263447  89.2693043
 105.3131676  21.6320467  88.3823681   8.0475885  30.1849508  58.9648008
   8.5427874  30.1209497  58.1481552   7.1966016  30.5356693  58.7020302
  57.5943661   7.2694796  54.8936510  57.4316645   8.0301511  54.3358517
  57.6189089   6.5289509  54.2876387  14.7070587  15.4287505  56.6328812
  14.7834957  14.8695064  55.8598137  14.5554578  14.8193514  57.3552942
  34.3754530  53.4717226  57.9470682  33.4485769  53.3407450  57.7471209
  34.5581937  52.8514719  58.6528492  21.3551450  32.0749497  74.8795319
  21.9371462  31.5439391  74.3359041  20.6508207  31.4774537  75.1308441
  39.0768123  51.0394335  52.7576208  38.5712743  51.1578846  53.5617542
  38.8444638  50.1612759  52.4558020  33.8107967  31.5935278  84.0487194
  33.3523464  31.3939452  84.8649406  33.1923938  32.1287394  83.5513592
  38.8747287  45.2050829  39.5631099  39.7811651  45.4844952  39.4345355
  38.9429569  44.3978548  40.0729752  69.1196728  24.2425323  68.9896822
  68.9771795  24.6377659  68.1296110  69.6202230  24.8985529  69.4747782
  12.7702940  16.1100471  67.0843124  13.7235832  16.1912334  67.1139717
  12.4941814  16.1948705  67.9968882   3.6733881  40.3498077  22.7653384
   3.2347310  40.1444864  23.5909629   3.0164289  40.1678848  22.0933723
  25.1874208  53.9431810  17.0660949  25.8922386  53.3167171  16.9017518
  25.5682230  54.5785332  17.6723516  36.0354900  26.2914276  45.9148693
  36.2344003  25.6743240  45.2107048  35.9790778  25.7479477  46.7007971
   5.9619778   1.8608807  69.8917198   6.3402671   0.9954749  69.7361517
   5.1913649   1.8908714  69.3247223  20.9735489  40.0183916  74.8379755
  21.3311172  39.7295904  73.9983511  20.3356171  39.3439865  75.0713253
  19.2891741  55.8252716  66.2326622  19.7444284  56.6335440  65.9967232
  18.4218311  55.9148884  65.8378029  35.8226871  83.8729382   0.8248159
  36.0836053  83.6062431  -0.0566761  35.0149131  84.3699169   0.6954388
  15.7681155  19.6728408  45.2091885  14.9751282  20.2034879  45.2854729
  16.3215935  19.9637187  45.9339571   2.8027061  58.7052155  61.4606333
   2.5521481  58.4507704  62.3487282   1.9713080  58.8603735  61.0123777
  27.7244496   8.1771344  63.2526159  26.9957972   8.5224289  63.7684345
  28.0461073   8.9308619  62.7579784   0.8500639  44.4576263  57.8148079
   0.7624146  43.7519503  58.4555578   1.7785361  44.6891165  57.8389597
  35.8392143  25.6654310  53.7571192  35.7931042  25.0766301  53.0038452
  35.1884675  26.3425565  53.5720253  15.8712757  42.8479719  71.7747736
  16.0656726  42.3953629  72.5954962  15.0737071  43.3444500  71.9581413
  52.1236515   9.0644419  81.9857693  52.1970606   8.1305665  82.1825409
  52.7842855   9.4788188  82.5408268  65.7764435  20.8142996  72.2165728
  65.8797884  20.0328708  72.7596426  65.0645065  21.3016462  72.6311493
   5.9708625  40.6995487  66.5882349   6.3601989  41.5701771  66.6697979
   5.1925993  40.7321358  67.1445370   9.7872454  16.0902643  80.9201431
   9.4793665  15.2571988  81.2771320   9.1865760  16.7422044  81.2812519
  22.6868510  19.9807644  63.7095976  23.3616519  19.7988665  63.0555391
  23.1525159  19.9622917  64.5456886  12.4846828  22.3483872  39.8240280
  13.3219385  21.8861103  39.8632026  11.9924247  21.8947840  39.1398072
  28.8842702  16.4221454  88.1707954  28.7765503  15.5215883  87.8648186
  28.2102013  16.5293300  88.8418961  28.6930466  39.8725176  47.0200109
  28.7622213  39.8139906  47.9729128  27.7626228  40.0267267  46.8564320
  22.1756482  14.9472129  49.1855860  22.3516941  15.3527236  48.3365870
  22.5846791  14.0837264  49.1280079  32.9495287  15.0316048  75.7570410
  32.1664786  14.5091617  75.5835009  33.6783195  14.4362402  75.5820036
  22.4945831  12.0127702  40.3239346  22.6425791  11.0959566  40.5558395
  23.3504725  12.4279225  40.4303885  75.6246758  16.5712082  42.4646473
  75.6703663  17.2279882  43.1594753  76.1842775  16.9182038  41.7699003
   0.8240334  31.1468196  58.3432388   1.2374327  30.7275629  57.5885487
   0.5807142  30.4204917  58.9172363  48.6001587  83.6800671   2.0612216
  47.9034185  84.2322922   2.4159500  49.2313862  83.6018372   2.7765322
  21.8468094  22.3664713  59.3575811  22.7243614  22.7234697  59.2208862
  21.6292548  22.6041818  60.2589083  47.8127193  48.7112188  42.4279213
  47.9341698  47.8400373  42.0503950  47.7780390  49.2971945  41.6718388
  46.4897776   9.4550967   9.0115601  46.6086102   8.7627381   8.3613676
  46.7761040   9.0613985   9.8357260 117.3826115  46.1122847  35.1931000
 117.1939335  47.0402575  35.0534463 117.7995182  45.8276081  34.3798494
  30.3951216  48.8723898  55.1248169  29.7069335  48.9815807  55.7810974
  31.1489701  48.5510159  55.6194544 111.0643578  99.9251366  72.0095730
 111.6050243  99.7755337  71.2339926 111.6917229 100.1288795  72.7032137
 118.0056858  53.0817509  65.8615780 117.6711559  52.2883892  65.4433680
 118.8432026  53.2460308  65.4282045  84.9955654  92.9578876  29.2018342
  85.6365681  93.6040211  28.9054370  85.4296207  92.1142483  29.0749288
  16.1312318  50.1552296  26.8775392  16.0135400  50.3950596  25.9583759
  15.2910054  50.3597784  27.2879171  21.9909239  32.4911952  50.1216364
  21.5324712  32.5461888  49.2831659  22.3509383  33.3679175  50.2557182
  27.1927524  28.7161946  49.6701813  28.1317067  28.6131287  49.5153379
  26.9011497  29.3158174  48.9834118 116.1770439  47.3806953  50.2603912
 115.4587650  47.4542761  49.6319866 116.3399220  48.2801723  50.5443764
  18.4872484  50.4248810  43.8894033  19.0808260  49.8892164  44.4156742
  19.0657222  50.9618282  43.3478451   6.2396818  40.6670570  74.5657873
   6.6651714  41.3726568  75.0529385   6.8214023  40.5039454  73.8233376
  41.2121391  18.6801565  52.7882290  42.1521139  18.6420608  52.9649401
  41.1363220  19.2386127  52.0145273  46.6838121   7.1265811  59.2195892
  45.9512186   7.4010265  58.6680317  47.4611521   7.2976625  58.6878920
  98.5916901  63.4720659  35.9091592  99.0038490  62.6323652  35.7060432
  98.5094547  63.4740448  36.8628192  50.2606010  22.1048450  45.8354521
  50.8921814  22.6894593  46.2544537  50.0352144  22.5439787  45.0153303
  18.8863170  44.3553019  63.7184858  18.8247514  45.1525974  63.1924009
  18.3104444  43.7315321  63.2763195  43.0181026  26.9916701  54.4566011
  42.1821213  26.7397285  54.8488951  43.2142925  27.8467584  54.8394394
  23.0371261  28.6655211  53.4701109  23.9770579  28.6389470  53.2910824
  22.9705667  29.0500259  54.3441582  90.7965374  21.3379431  26.0517526
  90.6857300  21.8951178  25.2813578  90.1281929  20.6595874  25.9548640
  21.3618064  59.9014187  66.2672138  20.5137801  60.2406693  66.5535498
  21.1445093  59.2128468  65.6388187  13.2530153  46.1221504  26.3649535
  12.9210925  45.2462578  26.1677790  12.4783421  46.6176558  26.6306329
  86.0504150  85.6472588  67.6513386  86.5202045  86.4299297  67.3633003
  85.7840633  85.2154827  66.8396425  20.4344988  43.3153057  59.5335436
  20.2453470  44.1789722  59.9003315  20.0145841  43.3231783  58.6734009
  30.0561643  45.5342579  62.4061966  30.5999780  44.7788572  62.1828938
  29.1751742  45.1737642  62.5068712  17.9369259  38.1486225  12.6374722
  17.3670137  38.0998254  13.4049690  18.2692015  37.2575426  12.5288391
  50.9372902  69.9632788   2.2627230  51.2323618  69.3127441   2.8998795
  50.5819893  70.6754303   2.7945483  35.1068306  39.1864371  41.2368536
  34.4521356  39.7333598  40.8027124  34.6101904  38.4414625  41.5753746
  31.3810086  34.5184803  81.6106701  31.4535141  34.3411374  80.6728458
  31.3123035  33.6528945  82.0135021 102.7551460  12.6233864  81.4247036
 102.6842690  12.4012959  82.3530865 103.5413837  12.1650183  81.1281300
  21.9916892  69.9736977  54.9911690  22.6693678  69.3349504  54.7698355
  21.2665272  69.4468689  55.3270626  60.8756590  40.9642506  70.5199718
  60.0364780  41.4241600  70.5419874  60.9361362  40.6187391  69.6293545
  37.8206134  26.5928984  51.4171314  37.8244925  27.0219064  52.2728014
  37.5725770  27.2844720  50.8035898  26.6077065  59.8429918  66.9754887
  25.7810974  60.2396584  67.2504568  27.0367622  60.5209780  66.4534950
  41.9133186  23.3343220  56.7577934  41.4204836  22.8651547  56.0845757
  42.8152847  23.3353281  56.4373446 113.0252457  73.8984680  68.3352518
 113.4888840  74.2164326  67.5605392 113.5027885  74.2781878  69.0728140
  33.8574195  29.3692923  42.1186256  33.2459235  29.9552274  41.6725492
  33.8759184  28.5825181  41.5737581  12.6711988  22.5544286  53.8915110
  12.4074185  22.5350404  52.9715776  11.9571543  23.0115342  54.3358374
  29.4485354  29.1374707  41.3262892  29.2108989  28.2168055  41.4364529
  30.4005814  29.1289258  41.2274647  39.0573359  33.5738969  40.2775478
  39.2367005  33.2604337  41.1640024  39.6859050  34.2830491  40.1425028
  25.9876847  62.3217678  54.9796486  25.6911135  61.7693138  54.2564106
  25.3592253  63.0433750  55.0031424  97.5806332  44.0620613  80.9975719
  97.7071762  44.0669012  80.0487804  96.8606186  43.4476376  81.1400414
  37.7540946  43.3136225  61.9032431  37.2024250  43.0417204  62.6366997
  37.6814890  42.5986242  61.2709951 117.3784637  10.7921290  14.1422808
 116.9124222  11.6176486  14.0097678 117.1321774  10.5171371  15.0254297
  11.6772902  48.5730457  78.8649654  12.5135958  48.6984444  79.3134117
  11.0377359  48.4834671  79.5714951  27.6333070  19.9918818  22.6669431
  28.4085345  20.1375771  22.1247005  26.8959475  20.1763153  22.0851207
  28.1711698  63.4652424  74.0854216  27.4723101  62.8826523  73.7880802
  28.8762474  62.8760624  74.3536758   1.8374071  33.5911894  58.5772324
   1.1498336  34.0101600  58.0596018   1.5611441  32.6774216  58.6474943
  50.3889322  46.2945223  61.1406708  50.8832455  45.7861233  61.7836475
  51.0566807  46.7714739  60.6478691  18.2496798  30.6874847  72.9191542
  18.7333930  31.3087845  72.3748732  17.9902852  31.1944342  73.6885357
  35.9048200  46.5385532  37.7687407  36.7025471  46.3768482  37.2650433
  35.5978560  47.3923254  37.4636555  48.2771540   7.0886493  16.2766325
  49.1466379   6.7688918  16.5174258  48.0926991   6.6706526  15.4355097
  44.0474224  56.8810081  65.7985973  44.7862959  56.5711308  66.3223124
  44.2688847  56.6322422  64.9012089 106.8039131  47.5020981  51.9367409
 106.1305618  48.1104469  52.2412729 106.6990852  47.4854279  50.9854412
  40.0119686  40.1544142  61.0286570  40.1198387  39.2976904  60.6155920
  39.0649033  40.2582884  61.1209106 115.6757545  94.5692253  43.7666893
 115.1919079  95.1521111  43.1815624 115.2607155  93.7145710  43.6503363
   1.4132757 107.4241352  33.2463098   0.7528227 107.6806259  32.6026869
   1.8214113 108.2481670  33.5120797 107.5205421   3.8697436   4.8982859
 108.0494881   4.6619412   4.9924737 107.9339409   3.2347763   5.4832220
  52.6268435  16.0934639  51.0001326  52.1115971  15.9386778  50.2084255
  52.4060297  15.3618097  51.5764618  37.0989633   8.7395704  48.7853432
  36.6226959   9.0843117  48.0299950  36.5208507   8.0676967  49.1467333
   3.9577270  28.0589509  71.8916464   4.2690635  28.9183164  72.1758890
   4.2808878  27.9717088  70.9948826  17.6550889  53.7823296  32.4217534
  17.9224551  54.7008896  32.3902988  18.1257987  53.3709097  31.6969085
  14.8565352  22.8756666  48.0296898  15.1181889  23.1147742  48.9188433
  13.9826727  22.4982619  48.1304932  84.3818760  70.9300900  80.1098633
  83.8026810  70.9098673  80.8716774  84.3582344  71.8404722  79.8151159
  13.2345033   8.1858748  46.4902639  13.9365256   8.6648393  46.9307041
  13.2872880   8.4692144  45.5774832 107.7243423   8.7752265  69.6052694
 108.6149406   8.7578285  69.9556446 107.2559643   8.1091046  70.1083994
  44.8170662  11.6452503  53.3730602  45.1962519  11.6374195  52.4942017
  44.5385361  12.5513780  53.5056782  10.2318954  57.0576286  80.7256222
  10.5168498  57.2512197  81.6186810  10.3974116  56.1208820  80.6191540
  25.5279970  59.9816656  53.4809017  25.2766013  59.1194916  53.1497097
  26.4191222  59.8616552  53.8091183  36.3110805  34.0028214  39.4750881
  35.8066225  34.4951749  40.1226568  37.1843028  33.9261627  39.8595881
  50.9987211  70.0638580  13.1061769  50.8198929  69.9451399  14.0389991
  50.9694099  71.0116291  12.9754066  82.2588062   5.9222770  48.1924057
  83.1411457   5.8139306  48.5473299  81.9393539   6.7331791  48.5881567
  26.5255547  36.4791083  52.5623655  26.0386872  35.7404208  52.1969461
  27.4125743  36.1422920  52.6887989  14.8977470  56.3894844  68.6144972
  14.3544471  56.3230085  69.3997574  15.7552648  56.0640001  68.8882780
   6.0753703  17.4406743  49.7784758   6.5476155  17.9942870  50.4003525
   5.3354377  17.9771936  49.4940853  24.9729443  43.4443951  40.8832121
  25.1594138  42.9226303  41.6637373  25.5591702  43.0917740  40.2137136
  40.5844641  20.6020641  61.7909670  41.4517450  20.4104400  61.4341307
  40.1642466  21.1424541  61.1219168  19.3831933  52.7039862  50.6257725
  19.8232496  52.4189615  49.8249340  18.4596908  52.5010395  50.4768181
   8.6335677  58.7263346  48.3801889   8.0754948  59.3234634  47.8819704
   9.2859769  58.4246969  47.7480412  32.9341459  33.4336853  34.1776919
  32.3342013  34.1792202  34.1995478  33.2652712  33.4189606  33.2797122
  23.5428119  35.6906962  46.3140392  23.3623433  36.5956211  46.5685463
  22.6988101  35.3534913  46.0137320   1.3427700  30.3194666  43.9172554
   0.8257347  30.1999307  43.1206274   1.4253570  31.2686706  44.0090132
  30.6951404   5.2490759  65.1412964  31.5113568   5.7409328  65.2312899
  30.9245920   4.3555072  65.3964806   9.8332077  44.1123724  71.9316149
  10.1691318  45.0057030  72.0047092   9.7197926  43.8242769  72.8373575
 107.9041004  13.6302555  66.9780874 108.4409523  12.8485119  66.8481112
 107.6408958  13.5899019  67.8975058 117.1813986   1.7764100  40.4137802
 116.3653810   2.1822740  40.1211691 116.9601693   0.8528093  40.5331612
  35.2280712  29.0462494  84.0718460  35.7137108  29.1631269  83.2553101
  34.6734476  29.8239064  84.1340637  59.4800568  21.7362928  63.7602901
  59.6991539  22.3162174  63.0309677  59.0017414  21.0126686  63.3555555
 116.3236237  22.1887064  58.7942791 117.2230721  22.3484039  58.5084200
 115.9038925  21.7709899  58.0422354  21.5365219  20.1019692  40.1216030
  22.1936750  20.7936263  40.0441980  21.1200881  20.0697780  39.2603374
  14.4391489  45.8956623  62.0451164  14.2235136  46.4481544  62.7964401
  15.2735603  46.2397766  61.7264080  99.0490532  68.0256796  51.9778347
  99.0855408  68.6657667  51.2670660  98.4417915  68.4065390  52.6121902
  32.2992826  20.8435416  66.1273146  32.8528166  20.2090406  66.5825510
  31.7585874  20.3132010  65.5419779   8.6355889  48.4093046  72.7154112
   7.8813821  48.1096172  73.2229471   8.3217221  49.1892719  72.2578382
  25.4225063  39.4403243  65.1610947  25.6045103  38.6730480  64.6185112
  26.1985016  39.5322657  65.7139111  99.4137573 100.7153034  38.6154699
  99.4468212  99.7914314  38.3673072  99.1938114 101.1734676  37.8043342
  23.1030583   6.0601884  70.0082731  22.9443264   6.6053891  69.2376947
  22.8638005   5.1762402  69.7296619  85.4954624  24.2030478  74.0357924
  84.9890137  23.4623408  73.7024879  86.4082623  23.9525270  73.8933897
   4.9647668   1.3865323  29.5774841   4.8858279   0.4339200  29.6277857
   4.2434359   1.6569717  29.0093493  30.9778857  39.3057179  38.5053444
  30.9195161  39.1969848  37.5561333  31.4880800  38.5520434  38.8018346
  25.3982401  49.6155977  73.0215073  25.1060224  49.1979361  72.2113228
  26.2378812  50.0157166  72.7953720 114.0063000  32.2112870  71.0472202
 114.7090721  31.5976930  70.8331251 113.5860729  31.8339586  71.8200541
  53.8130999  29.0751481  72.6240492  53.1108427  28.6826468  72.1053886
  53.3759451  29.4027638  73.4100485 112.5531673  46.3003969  82.6440907
 111.6910362  46.2186480  83.0518627 113.0806828  46.7687750  83.2910633
  21.5737534  38.0429959  56.3572025  20.7988071  37.5069880  56.1887360
  21.6384578  38.0771971  57.3116016   9.6544993  54.8884630  75.0148296
   9.2257261  55.5205441  74.4378853  10.0788164  54.2703867  74.4197083
 108.2427788  99.6628284  71.7149258 108.1963444  99.5885181  70.7617426
 109.1554832  99.8894978  71.8933105  29.0226531  30.6168127  85.4980278
  28.4142280  30.2970195  84.8318577  28.9166284  30.0097179  86.2304401
  27.5228214   9.4062001  76.5088081  28.0383301   9.1758388  75.7358789
  26.7143202   9.7773790  76.1555624  12.9199755  43.9740562  75.2022791
  12.4411559  44.7783899  75.0022554  13.8329816  44.2513800  75.2780581
  14.7777355  22.0254135  65.1104641  14.1288531  21.7981696  64.4444752
  14.8060715  21.2622285  65.6875038  83.5211754  76.2662363  17.1855593
  83.8241673  75.3583765  17.2004724  82.6335430  76.2283802  17.5418031
  41.8655062  43.1300783  40.3367567  42.4626970  42.8686953  39.6358442
  41.7419338  44.0704775  40.2078724  51.6446924  43.8694191  42.8935432
  51.8091488  44.7553730  43.2164526  52.5040054  43.5525322  42.6153469
  35.3505182  46.7046833  46.2415504  34.8087978  46.6284513  47.0270205
  35.1227641  45.9363842  45.7180309  25.1604342  17.0034230  60.8133459
  24.2896533  16.6060305  60.8205509  25.0861311  17.7538371  61.4029121
  22.1320415  28.2038093  56.2599897  21.7688060  28.1425309  57.1434689
  22.2627282  27.2944808  55.9911489  25.3587580  18.9540720  62.9550457
  26.0776663  19.2756104  63.4991169  25.1408625  18.0993187  63.3267307
  18.1762743  12.7020597  68.2046986  18.4403563  13.6219835  68.1894159
  18.9187944  12.2462749  68.6011314 108.5445309 100.8911800  89.5248222
 108.5771370 100.7145882  88.5846138 107.8477097 100.3219604  89.8514080
  34.6518946  35.7417250  73.9017391  34.3824983  35.0446010  74.4998026
  35.5788803  35.8794904  74.0965462  21.2597179  20.4250956  74.3563700
  20.7201123  21.1220074  74.7296906  20.6295013  19.8007619  73.9968300
  34.6639395  25.7676911  36.5706921  34.7845173  24.9738264  37.0917225
  34.7251773  25.4700518  35.6630063 115.0233555  34.3043208  37.2549963
 114.8853016  35.2259994  37.4733615 114.2638016  34.0679431  36.7226052
  24.6025920   8.1132901  13.7996137  24.0596700   7.3310453  13.8973927
  23.9752936   8.8286340  13.6946785  17.1604407  36.7287660  39.1202903
  16.5973759  35.9889197  39.3479323  17.9894662  36.5434384  39.5614266
   2.1855898  51.9680977  69.3126106   1.3341758  52.3787117  69.1618729
   1.9754349  51.1040068  69.6667480   5.0787109  26.9707131  76.1070251
   4.8285180  26.4888763  76.8953609   4.2471123  27.2390437  75.7162905
  83.7202263 100.1212502  86.4850903  83.9479065  99.3707561  85.9363079
  83.6800098 100.8592701  85.8768749  49.6436453  28.6350131  35.7030654
  48.9820433  28.5229897  35.0204468  49.1467333  28.6311221  36.5211678
  22.6602030  30.0089645  73.4271479  23.1175447  30.1089168  72.5922346
  21.8810582  29.4956255  73.2134914  35.8751130  47.5054073  62.0974588
  36.6854572  47.1118450  62.4210072  35.2100587  46.8305969  62.2337055
   2.4405210  40.2750206  47.4247217   1.5517822  40.6106520  47.3075581
   2.9842597  40.8401680  46.8759155  25.8170199  23.0062294  94.3862343
  26.4509892  23.6068320  94.7781467  25.7809496  23.2637048  93.4650230
  43.6568022  34.3671751  67.8841448  44.4864273  33.9886737  68.1751680
  43.0314779  34.1283369  68.5683680  13.5726118   4.4584695  78.2562780
  12.9437351   3.9623004  77.7322912  13.5942948   5.3240383  77.8481722
  23.6771059  12.7682471  49.9037123  23.4535766  12.3390365  50.7295752
  23.7870955  12.0488143  49.2819834  94.0538025 109.8045731  56.2011147
  94.7962093 109.2786980  56.4986467  94.2906761 110.0726128  55.3132629
  73.0212069  95.0450420   7.5993484  73.8717890  94.8074150   7.9684997
  73.0639029  95.9951973   7.4915427  25.1036263  11.8713760  78.1177282
  25.7558632  11.5145397  78.7206268  25.6187224  12.2821677  77.4233484
 105.4762268  59.1675234  73.7333441 104.5217323  59.1864300  73.8027620
 105.7705116  59.8973703  74.2782736  45.6892967  22.4463511  51.7020893
  45.8470631  23.1814027  51.1096048  45.3364277  21.7568564  51.1396694
  28.3596778  17.3213398  56.4256716  28.0095911  16.9776237  55.6037664
  29.1828299  16.8492758  56.5514040  22.7660203  39.5226789  42.6562452
  23.4756589  39.0078568  43.0404377  22.1039343  38.8750172  42.4145746
  72.4070024  17.5669372  48.1822538  72.1479225  17.5973117  49.1032267
  73.0415678  18.2773948  48.0884027  55.1745844  23.3206081  65.2560568
  55.7050419  22.5331306  65.3774166  54.2706966  23.0139685  65.3280878
  18.7259519  21.7281508  75.6446934  17.9802597  21.7619109  76.2438917
  18.5262537  22.3839092  74.9766111  23.0177546  41.2743855  56.2675858
  23.9174891  41.5340757  56.0694218  23.0936933  40.7223463  57.0458651
  32.7345300  30.9812260  35.1770639  32.7942562  31.7821312  34.6562815
  31.8376803  30.9793591  35.5115628 105.8877182  36.8409634  86.3791466
 105.2231884  36.6305637  87.0351696 106.7159176  36.5897322  86.7880440
   6.2988448  63.1350374  87.8790951   5.7547802  62.4564266  88.2787418
   5.9781379  63.9533186  88.2583046   9.6617448  28.3986521  41.4546061
   9.8161083  29.2335725  41.0126638  10.5314541  28.1092930  41.7304802
  41.7641163  48.9202452  63.8440037  41.0774183  49.5754194  63.9682007
  42.3676777  49.0647840  64.5727396  10.3896856  65.3356409  41.2535906
  10.3149319  64.3840504  41.3251591   9.7780454  65.5721760  40.5563259
  38.1070209  46.1018515  43.8552570  37.2703695  46.4214468  43.5174608
  38.7107897  46.1849451  43.1171608   6.1434132  15.0044608  18.6654067
   6.1580855  15.9203160  18.9432991   6.4149088  15.0282025  17.7478242
  37.5274372  40.3795958  62.0581102  37.5167513  39.5389152  62.5156832
  37.1750617  41.0026693  62.6935959  28.6060429  53.9325190  37.3552442
  29.5473385  54.0794659  37.2624993  28.2050896  54.7436523  37.0429373
  21.2456489  46.2832785  61.2922859  21.6946459  45.6824541  60.6976080
  21.9490957  46.7942142  61.6927099  12.0028222  35.6150746  27.8391623
  12.0944941  35.2828526  26.9461560  12.0137835  36.5673423  27.7427459
 103.1801605  38.9535856  50.3917313 103.6318588  39.6555805  49.9233294
 103.7042809  38.8162684  51.1808252  66.2780809  38.5667133  80.6504917
  66.6187716  38.6215806  79.7576571  65.4747725  39.0869164  80.6327057
  16.8843198  49.5161247  22.3476839  16.5789962  49.0727425  21.5562153
  17.4865925  48.8929701  22.7541018  47.5508547  44.7390270  55.9581423
  46.7641687  44.2612553  56.2209988  47.8759289  45.1298428  56.7691994
  36.1549687  42.4459839  68.1752539  36.2954235  41.5187597  68.3669758
  36.0176039  42.8496265  69.0322447  40.7439470  21.3922572  58.5901594
  41.1831093  22.0598197  58.0631590  39.8124433  21.5198445  58.4105682
  11.1770797  56.0816908  25.6543612  11.3722253  55.3813648  25.0317097
  11.3023603  56.8883562  25.1545358 117.8397942  45.1793480  32.4046183
 118.3144760  44.4665527  31.9770384 117.1049786  45.3627634  31.8192649
  19.0283382  26.7809415  60.6639338  18.4227312  27.4542451  60.3538752
  18.5593987  25.9572148  60.5305243  24.4001985  58.1678343  29.8824692
  23.9316511  58.8795424  29.4463944  24.8603630  57.7154636  29.1754746
  36.3013315  90.3232765  49.5447493  36.8905520  89.7301006  50.0107908
  36.2434888  91.0949516  50.1081324  23.3837700  47.9234600  57.3480129
  23.2115483  48.7346792  56.8700075  24.1268659  47.5293875  56.8911266
  65.2882004  41.6879892  88.2217789  66.0276413  42.2884083  88.1271362
  65.0578642  41.4483356  87.3241520  30.9572387  65.3633213  37.4884224
  31.0010505  64.5258760  37.9499388  30.1611972  65.7784176  37.8204513
  35.3688955  21.8183255  59.8039436  35.0090957  20.9322548  59.8445845
  34.8311901  22.3233795  60.4138851 116.6111946  76.9011641  22.6579547
 117.3330021  76.3761044  23.0036902 115.9864807  76.2581444  22.3225546
  24.5377469  64.5221615  86.5412807  23.7026429  64.5121765  87.0089626
  24.3078542  64.3123436  85.6361008  28.1235075  32.8794456  50.7476664
  28.3845210  32.6046181  49.8687029  28.5282135  32.2363234  51.3297653
  28.4747839  33.8986373  59.3865776  28.0162525  33.8979006  58.5463524
  27.8784180  33.4490466  59.9852800   2.3250762  60.4067802  90.6783867
   2.0890716  61.3299227  90.7697487   2.3840427  60.2670431  89.7332764
  59.6928167  44.9817610  83.7316322  60.3133917  45.1050758  83.0133629
  59.6543598  45.8348513  84.1640568  11.3904798  54.0421438  79.9146032
  12.1211851  54.2610741  79.3363523  10.7404518  53.6409426  79.3377686
  53.0995131  17.0498848  83.9477539  53.5638142  17.2318053  83.1307030
  52.1945333  16.8918931  83.6789036 109.8376274  54.2564774  39.6218538
 110.5930328  53.9357424  39.1291857 109.2178917  54.5424986  38.9507651
   5.9109521   2.1057947  59.0090895   5.1566541   2.6710337  59.1757345
   5.5881113   1.4522904  58.3886576  11.1732614  69.5150900  73.4723139
  10.5254865  69.9412060  74.0335989  11.8707752  70.1635742  73.3765364
  18.7720549  39.0618587  62.5179434  18.6203742  39.0932536  61.5733576
  18.9946234  38.1477952  62.6945305  26.3162899  17.8185523   7.4794424
  26.0233974  17.4210393   8.2994604  27.0556569  18.3715248   7.7320081
  51.2956619  26.4596963  84.3903732  51.8330860  27.1658754  84.7491455
  51.2992620  26.6123772  83.4454346  62.7957726 108.9209080   4.7739705
  62.5335264 108.2189655   4.1783744  63.7517500 108.9305878   4.7265640
  35.8077574  47.9914618  67.2196484  35.5522919  48.8672113  67.5095224
  35.9589171  48.0850887  66.2791061  14.7551501  33.3966756  60.6177950
  15.0703812  32.5465298  60.3110170  15.5020857  33.9843631  60.5040312
  46.0423279  35.9134698  20.7449007  46.8717003  35.5833173  21.0904121
  46.0801363  35.7221437  19.8077798  23.0432558  50.1167536  36.8234038
  23.1856751  50.9588671  37.2555947  23.5168505  49.4860601  37.3657727
  60.9393120  37.0370173  79.0713739  61.1313391  37.0027900  78.1342602
  60.1751757  37.6095653  79.1385317  31.4221191  77.6887226  56.6434336
  31.7029858  77.1149111  55.9306335  30.5719376  77.3397064  56.9110298
  13.8797271  46.3228798  88.1041145  13.9547753  46.0745478  89.0254879
  14.2334092  47.2115231  88.0659866  12.1382701  64.1573524  68.9402342
  11.3785231  63.6973858  69.2972374  11.8419242  65.0610256  68.8316870
  37.1077824  55.6359100  65.2366686  36.4342284  56.0130978  65.8026075
  37.9328918  55.9608173  65.5970383  39.2734337  36.5222597  61.0649109
  40.2117205  36.5301681  61.2540770  39.0403557  35.5940270  61.0478544
  47.7612400  35.8179951  47.0398998  48.1538725  36.6523552  47.2966433
  47.7002430  35.3209114  47.8556299  16.1326504  32.6555634  80.4552650
  17.0518219  32.8680539  80.2933979  15.9831655  31.8483257  79.9630785
  22.1461177  37.2277784  51.7760849  22.6829362  37.5127220  52.5155878
  21.2445974  37.3569226  52.0707321  26.5081930  58.9672852  61.5149403
  26.1558867  59.8407841  61.6855478  27.4571109  59.0913820  61.4953089
  31.2145710  49.3778515  74.1598225  30.9469461  50.2943850  74.2274714
  31.5501380  49.2915583  73.2675314  46.5772724  23.5476613  87.7850437
  46.5890026  23.9497089  86.9164562  45.7959080  23.9073730  88.2049370
  10.6799710  61.6936731  22.8436875  10.3967071  61.9921541  23.7079215
  11.6152954  61.8951607  22.8153872  11.5523899  16.5308976  40.6035280
  12.4057019  16.5503991  41.0367823  11.7037606  16.0356188  39.7985315
 107.8920460  71.0850334  65.2092791 108.1678009  71.9018888  65.6251431
 108.7101269  70.6550646  64.9600887  56.9475794  54.7108078  16.2416434
  57.7072430  54.1287470  16.2232208  57.0106602  55.1603460  17.0843589
  46.0986853  10.8351231  65.2436733  46.1568928  10.2198577  64.5127249
  46.0583353  11.6968012  64.8288059  56.6454744  36.2938738  44.0231991
  57.0785093  37.1466541  44.0616274  57.1734476  35.7846451  43.4082508
  17.9514253  41.6514397  49.2786694  17.7384520  42.5017309  49.6632195
  18.7001145  41.3394594  49.7869682  22.2830415  80.3891754  63.4632921
  22.5870967  80.1257610  64.3318510  23.0431581  80.8090210  63.0605698
  36.5685058  43.6326170  42.6206541  37.5137901  43.7238789  42.5008917
  36.2654662  43.2069111  41.8186760  26.2483382  59.8949337  28.1518316
  26.7411637  59.0827036  28.0350471  26.2623692  60.3097248  27.2892880
  31.9830227  25.3398275  23.3255172  31.2896562  25.4778600  23.9708257
  32.7490425  25.0964999  23.8453603  39.8093486  35.8352327  17.4997962
  39.2128468  35.1407623  17.7793038  40.0896740  36.2524366  18.3144081
  46.1284494  32.8217983  36.3785934  47.0590878  32.6070452  36.3152027
  45.8554649  32.4577928  37.2207403  49.5994520  25.5762553  45.8922434
  48.9203930  25.3366113  46.5228653  50.4076242  25.2240109  46.2650871
  35.0921869  54.4654179  48.5758638  34.2503428  54.3623686  48.1321144
  34.8719072  54.8637390  49.4179106  30.8821177  52.5411272  61.0643339
  31.4767885  52.5692606  60.3147984  30.7398105  53.4599543  61.2917900
  30.2411461  42.8592539  89.5449352  30.7679796  42.0672369  89.4382191
  29.9473667  43.0726385  88.6592770  37.5443459  37.9075885  91.7372322
  36.6756034  38.3070707  91.7811584  37.8223920  37.8379178  92.6505089
  41.5043783  45.7937193  39.9159312  41.1559534  46.6812658  40.0001144
  42.3009300  45.8974838  39.3953800  42.3598576  16.7225778  36.2581873
  42.4147320  17.2657359  35.4719305  43.2082796  16.8352306  36.6868114
  20.9223413  48.7511349  69.6764660  21.2171745  49.0399599  70.5401134
  20.0645876  48.3572102  69.8355675  37.5660086  34.1627359  73.1732368
  36.8397832  34.1864181  72.5501251  38.2813573  34.6135211  72.7245712
  22.6763654  51.4843416  54.0118742  21.9026995  51.1035919  53.5963011
  22.7616858  52.3497391  53.6118221  24.1249895  39.6677423  17.2409391
  23.4014010  40.2801800  17.1083856  24.9102426  40.1786566  17.0445275
  24.3481946  46.0946083  41.2391949  23.4416389  45.8093357  41.3532495
  24.8711944  45.3224802  41.4548874  52.2350359  31.8795681  64.5373487
  52.4667549  31.3631058  63.7654638  51.5005636  31.4075208  64.9297190
  61.9467402  18.4230411  78.3648777  62.1489239  17.5902820  77.9384184
  61.1445141  18.7225986  77.9371738 107.3033714   8.3314979  84.6550655
 107.2899628   9.2407399  84.9539471 107.7045822   8.3706522  83.7868881
  15.6467557  42.8497744  55.7828999  15.9877014  41.9615221  55.6780052
  14.7029245  42.7328014  55.8912230  28.2101774  41.7712212  49.4735432
  28.8494968  42.4734402  49.5935011  27.3846483  42.2252226  49.3043804
  22.5842953  44.0265894  43.5616589  22.2724295  43.2907486  44.0884495
  23.5121727  43.8412952  43.4169436 111.4137459  46.7571974  21.6864967
 111.9350624  47.5263071  21.4564347 110.8387280  47.0591974  22.3896170
  40.5951309  41.2594986  68.8889885  40.0438404  40.6868267  68.3557367
  40.4691887  40.9468460  69.7848797   8.8034832  59.3163729  34.4864607
   8.7779707  59.0336180  35.4005885   9.4504339  60.0216913  34.4718838
  53.0682707  30.1640344  62.3058748  53.5093641  29.9866486  61.4750910
  52.1965885  30.4688764  62.0539331  59.1610622  40.3417969  80.6471443
  58.5682297  40.8162642  81.2299442  59.2143631  39.4632030  81.0232735
  34.5684004  61.7941523  46.8353844  35.1192617  62.5692225  46.9451332
  34.9712849  61.1324167  47.3975372  54.7261286  44.4110632  63.9105892
  54.2932177  45.1933527  63.5687685  54.0164185  43.8883448  64.2838335
  46.9058561  56.1488676  36.3942885  47.2957182  55.9214926  35.5501699
  47.3467827  56.9586229  36.6514158  12.7188385  38.7690091  94.6863079
  13.0882490  38.9645934  95.5474186  12.3023856  39.5864081  94.4130707
  29.8314619  53.4780359  44.1678619  29.6756816  54.3553782  43.8182402
  30.3621173  53.0445862  43.4994602  26.0783982  67.0905304  59.4541979
  26.4641595  67.8505135  59.0184832  26.7975426  66.4624119  59.5214891
 101.8395901  31.2808657  58.6807442 101.1758709  31.4982224  59.3353176
 102.6206112  31.0700989  59.1924191  41.6841078  60.2543449  66.4410877
  41.2570953  60.7508659  65.7429790  41.4486456  60.7191038  67.2440720
  30.1371527  50.7956123  59.1321707  29.5433426  50.0695896  58.9410830
  29.7771525  51.1977768  59.9226761  30.7218480  68.2614422  71.7365408
  31.0258293  68.9274359  71.1198711  30.1397085  67.7044058  71.2197638
  26.5339971  41.6236258  42.7191019  26.7072105  42.4366856  42.2445822
  27.3896027  41.3544369  43.0533266  48.7326288  26.8441343  71.6219664
  47.9444933  26.6287374  72.1206427  48.6410332  27.7752137  71.4196396
  26.4942241  41.0734320  69.9821663  27.2768402  41.3945436  70.4300880
  26.0368562  41.8659925  69.7012758 112.1226406  10.2868152  36.9635272
 112.7609348  10.8358467  36.5081549 111.9896412   9.5398355  36.3799477
  35.6574750  80.1520538  54.5837450  36.0656714  80.9676075  54.8743868
  35.6475568  79.5978165  55.3641033   8.7829667  72.1341276  54.8367214
   9.5350498  71.7236853  55.2635050   8.0350935  71.5994501  55.1032495
  57.3778391  21.7671585  34.0386176  57.9024458  21.8934917  34.8292255
  56.6823626  21.1663389  34.3061233  29.3889093  56.2325764  66.3711405
  29.3955922  55.2827024  66.4891624  28.4624052  56.4565372  66.2835979
  34.4807863  61.9206476  74.0135479  34.7166800  61.0440445  74.3171215
  34.4479203  61.8431330  73.0600548  13.6058962  27.8740978  57.3209763
  13.8791060  27.0138335  57.0023394  13.3782458  28.3615446  56.5292692
  30.6109071  20.7179713  36.5910506  30.6563306  19.7997904  36.8577194
  29.9001360  20.7464767  35.9505630  14.3808353  62.6920938  85.0470638
  13.9121675  63.3953762  85.4964828  13.9215219  62.5929213  84.2131329
  36.5974593  31.7839241  49.6420288  37.1442437  31.9951701  50.3987503
  35.7024145  31.8015409  49.9808741   9.0852541  35.5202794  31.1495256
   9.7250283  35.0745201  31.7047000   9.3661618  35.3244996  30.2556610
  34.6557951  18.4389007  49.0463114  33.8342786  18.9083529  49.1910791
  35.3322768  19.0355778  49.3665934 101.4832497  77.5028992  42.0635700
 100.6278610  77.2152710  42.3826456 102.0487785  76.7382526  42.1718550
   2.8499630  53.5521793  40.5557013   2.8713840  52.6972103  40.9855795
   2.9160616  53.3524752  39.6219039  47.4622202  42.3029423  69.8938465
  47.1765518  41.7373610  69.1763926  46.7380524  42.2805452  70.5193949
  76.0496426 109.4780064  59.3809128  75.5215311 108.6796856  59.3760300
  75.4127741 110.1858997  59.4784069  31.2726450  45.7371569  14.6191049
  32.0690751  45.6126642  15.1352751  30.8971953  44.8599863  14.5426881
   9.6899480   8.4497970  54.5456791   8.9764106   7.8380525  54.7269678
   9.3900269   9.2824507  54.9103260  22.6562071  22.9642606  70.1811457
  22.7961636  22.0849609  70.5325365  23.4230590  23.1276321  69.6320772
  26.9179082  39.8623586  67.5242472  26.9052148  40.1689053  68.4309435
  27.8475142  39.7696257  67.3157597  19.4780433  40.4614925  41.9109917
  20.0612879  39.7029114  41.9356632  18.7649488  40.2348614  42.5079536
  22.7259493  46.8447018  52.2091818  22.3930979  46.4212179  53.0004454
  21.9446492  47.1834326  51.7720699  34.9409556  28.0243897  62.3437881
  34.2293978  27.4896908  61.9916344  35.5851507  27.3895192  62.6571274
  30.9976625  20.9921694  59.5588207  31.4790201  21.7537022  59.2354107
  30.1109362  21.1064124  59.2169237  33.4054303  29.1480517  75.9638453
  34.0974236  29.3171430  76.6032124  33.1372619  28.2451344  76.1343050
   1.1468874  38.5191464  81.6027641   0.5511462  38.7357807  80.8855534
   1.3123213  39.3556380  82.0376682  41.6539907  20.4381347  50.8797264
  41.3570261  21.3383627  51.0125113  41.9227743  20.4075623  49.9615431
  24.0739369  51.6787767  59.5486498  24.0457630  51.6514206  58.5922527
  24.7016788  50.9974289  59.7893572  17.0071924  45.0713778  55.4265785
  16.3411617  45.7538795  55.3439474  16.5095413  44.2547083  55.4669189
  55.0421333  28.5014415  33.0258775  55.4556322  29.3549252  32.8962016
  54.2191648  28.5577631  32.5403023  50.5613565  45.5928135  50.7075834
  50.7966852  45.0236702  51.4403391  49.7564268  46.0268354  50.9903288
  39.7563601  18.6846542  48.9638901  40.0428009  17.9899919  48.3709097
  40.3707123  19.4017684  48.8071966  48.0508232  30.7364774  62.0402575
  47.2643805  31.2287641  61.8049002  47.8524542  29.8341584  61.7898560
  51.1151648  23.2875562  73.2150507  51.1576605  23.7245607  72.3644924
  51.5756321  23.8782597  73.8110924  70.3597021  16.8152153  61.0095739
  70.8916616  16.1438012  60.5824232  70.5097961  17.6055765  60.4908848
  31.9909000  28.4751987  58.4337759  31.5929532  28.7956929  59.2431927
  31.6823673  27.5724053  58.3563137  30.7321477  31.3455653  44.5308590
  30.5030799  30.5213618  44.1013813  31.6219330  31.2072682  44.8554945
  65.1043701  37.8854060  83.7201977  64.3315744  37.3212481  83.6930084
  64.9643421  38.5175753  83.0152321  30.1150608  37.2102642  52.2408199
  29.6790719  36.3581419  52.2347403  30.4502034  37.3014688  53.1327820
  43.3959484  70.9917259  14.9331796  43.2745123  70.5795574  14.0778410
  42.7220631  70.5973959  15.4869068  30.3105879  38.0384231  86.8360710
  29.5143580  38.3161449  86.3831711  30.9159565  37.8023028  86.1332130
  30.4956388  61.6007423  73.5941696  31.3201046  61.1390257  73.4415054
  29.8270178  61.0271406  73.2197905  86.6198063   9.3889469   6.9281727
  87.4884224   9.3604606   7.3293370  86.7881489   9.5821989   6.0059214
  45.9218168  18.0163658  46.4949894  46.3499880  17.1768165  46.6625071
  45.6225061  17.9557836  45.5878115  71.9055986  22.8187823  33.6224031
  71.2645578  23.1931114  33.0181050  72.5017786  22.3222733  33.0617976
  67.2572231 106.4442158   4.7598603  67.7209377 106.0852623   5.5163985
  66.9296408 107.2920895   5.0599033  48.5370398  58.8516951  61.9135094
  49.4615412  58.6039209  61.9252443  48.5426807  59.7887945  61.7184496
  51.7587328   0.6105970  67.2659254  51.0399723   1.2257628  67.1203899
  52.3568773   0.7637455  66.5344858  52.2257090  37.8877950  72.2168875
  52.1536541  38.8375115  72.3121643  51.6851187  37.5345016  72.9234123
  30.7438779  45.8699989  80.3109360  30.2245903  45.6954670  81.0958672
  31.5151238  45.3108883  80.4047775  46.4858532  28.4552240  53.9857674
  47.2512245  27.9882741  53.6505032  46.6130686  28.4736872  54.9342966
  22.3342705  56.9313955  54.7833443  22.2826147  57.8136206  55.1511002
  22.3506832  57.0673895  53.8359976  28.0901885  57.9062176  30.9182572
  28.4407401  57.9263592  30.0277853  27.4473143  57.1971273  30.9065938
  19.3963385  35.3458762  70.4970503  19.5559096  35.1498580  71.4202785
  20.2465940  35.6308746  70.1622772  17.0373917  47.4879551  40.7050467
  17.6025021  48.2251072  40.9363127  16.2461114  47.6197052  41.2273026
  45.7756042  45.5043364  24.3383670  46.1729622  45.1987505  25.1538134
  44.9023485  45.1123476  24.3358493  58.0804873  17.3999333  53.9217997
  58.8650513  17.0287490  54.3254232  58.1776571  18.3454978  54.0344810
  43.5361052  16.6695035  75.3026199  43.8365173  15.8951664  75.7784176
  42.7891397  16.9874096  75.8097839  20.0553370  32.6329541  62.8796291
  20.1607037  31.7541981  63.2442045  19.6239281  32.4924445  62.0367908
  43.8505173  36.1462259  39.7491193  44.5823622  35.8090138  40.2657652
  43.9472437  35.7264233  38.8943434  34.8598814  25.4722381  19.7708142
  35.4026389  25.6494260  20.5390906  34.1545701  24.9146700  20.0992727
   1.6238053  14.5358980  61.4591265   0.7995167  14.3599033  61.0054684
   2.2155581  13.8470697  61.1565113  33.2684946  43.0860758  56.2213230
  34.0115476  43.6451244  56.4484072  33.4168053  42.8509092  55.3053904
  37.1625733  19.5579112  73.7231731  36.9062519  19.2363155  72.8588200
  37.7174044  18.8651586  74.0816259  52.1192217  24.5451975  70.3848171
  52.2793293  25.3310180  69.8622465  51.1739159  24.4068217  70.3258228
  38.4080911  50.2402973  34.2972469  38.6199450  51.1289501  34.5829844
  37.8758049  50.3619957  33.5110569  32.2597075  24.7467637  40.6785536
  31.8938899  23.9697623  40.2558470  33.2056332  24.6004748  40.6712008
  33.9759564  58.7767172  66.6114664  33.2039785  58.2129049  66.6604471
  34.3217111  58.6333895  65.7304764  15.9984064  68.1027317  71.4124012
  16.8370521  67.7321959  71.1374378  15.3843045  67.3703575  71.3601065
  30.8560276  18.0902243  66.9950008  30.0805974  17.5636816  66.8008518
  31.2473989  18.2648551  66.1391020  51.1540365  13.8082111  56.8652296
  50.7827187  14.5917213  56.4596891  51.2387657  14.0350854  57.7912903
  31.0635543  61.4668512  76.3577747  30.6952286  61.5497589  75.4781723
  31.6765261  60.7345533  76.2927198  37.5815964  52.1107483  46.5360641
  37.9910016  52.8359985  47.0078993  37.7911639  52.2745514  45.6165600
  31.7940402  64.0841675  64.2736435  32.4096560  63.8352060  63.5842466
  31.8540788  63.3764887  64.9153709  13.2942414  53.2709837  65.6294680
  12.5726950  53.5050774  66.2132549  14.0786517  53.3591747  66.1709070
  62.3755598  38.7060618  72.2203302  62.7658939  39.1855335  72.9510689
  61.6556072  39.2636204  71.9253206  72.8318930  37.6276422  86.6752815
  73.1809330  37.3239350  87.5132275  73.5923386  37.6541710  86.0945415
   0.3091844  30.7833409  80.1141548   0.9463125  31.4868212  80.2383137
   0.7274227  30.0113654  80.4954147  32.1966338  42.5120544  71.9941330
  31.8253899  42.0391941  72.7389956  32.5669026  41.8278122  71.4365101
  10.4729056  57.0337009  64.9548197  10.5087376  56.1777878  64.5277786
   9.8768061  57.5481510  64.4105434  21.0434580  38.0545306  29.0495420
  20.7944679  37.3479986  28.4536791  21.0560679  37.6449990  29.9146175
  31.6304684  34.0279269  70.4974365  31.3361645  33.3818626  71.1394787
  31.1929679  34.8390698  70.7560349  30.9208894  64.4718456  58.3095837
  30.8098388  64.2304754  57.3899937  31.7042279  65.0218534  58.3199310
  89.3154240  17.3574615   4.8175043  88.4916115  17.5317729   4.3623212
  89.3871880  18.0622649   5.4611921  27.2770238  11.8602037  34.2625284
  27.9358292  12.0856404  33.6057281  27.5266004  10.9859312  34.5618439
  29.7142482  28.6741710  77.7030659  29.4679880  29.2089820  78.4577608
  30.0955033  29.2958927  77.0831108  16.6915405  37.7845263  19.4434249
  15.8717990  37.6357484  18.9721274  17.0738721  38.5541868  19.0219045
  24.9562478  54.4414234  45.4613447  24.8838377  53.7496471  46.1189461
  25.8720469  54.7167349  45.5031776  10.4576683  54.7325230  63.4840298
  10.1319242  53.8728952  63.7507915  11.0189402  54.5524979  62.7298450
  45.5261040  40.2260780  39.4263363  46.1455250  39.7377825  38.8840079
  45.1312494  39.5642090  39.9940133  14.9531686  76.2566948  53.1949377
  15.3751206  77.0939636  53.0021381  15.3609622  75.6378651  52.5891495
  54.3634081  36.7149711  62.8409672  55.2566099  36.4109397  63.0021763
  54.4452190  37.3173261  62.1015692  16.7646492  37.7306151  88.9724064
  15.8554530  37.6182938  88.6949539  17.2468746  37.0587254  88.4904766
  32.2615910  40.1579142  43.5327387  31.9180846  40.0233936  44.4159937
  32.2191238  41.1050367  43.4009027  33.8895583  61.8872213  31.8374419
  33.4158111  62.5963926  32.2720337  34.0327692  62.2057581  30.9462309
 109.3981171  52.2837973  43.4507847 109.4421959  52.8033638  42.6480770
 110.2888012  52.3073721  43.8005733  12.0282316  37.2653389  76.2510252
  12.3724031  38.1435752  76.0882998  12.0276010  37.1812105  77.2045183
  20.2043557  25.4430914  65.8005714  20.9223151  24.9567485  65.3953075
  19.4359338  25.2166939  65.2766371  35.4227400   8.2835370  86.3914013
  35.3651094   9.2101371  86.1583328  35.9575129   7.8952074  85.6989765
  28.1721783  65.3355360  55.8228064  29.0393329  65.2950191  55.4195261
  28.1367874  64.5670652  56.3923979  31.2503314  58.6070490  58.8509798
  32.0950747  58.3091164  58.5135221  31.3498592  58.5808468  59.8026323
  18.9577794  57.8789949  75.0258207  19.1890407  57.0351267  75.4139423
  19.7630334  58.3941126  75.0753069  29.4831610  37.0717406  58.7284422
  30.0580406  36.6097879  59.3386412  28.6131835  37.0053673  59.1220951
  35.4774809  43.9293575  38.1571221  35.7330966  44.8410273  38.0165696
  34.6921611  43.9820576  38.7018514   8.7993819  53.5002851  53.1031799
   8.9206755  53.9653969  53.9309454   9.3896472  53.9411068  52.4920368
  29.2745686  41.5971518  43.8476515  29.8169899  41.5808535  44.6361637
  28.8667178  40.7316446  43.8195753  57.5863838  59.0219927  79.8135710
  58.0128765  59.7529507  79.3663120  57.6112986  59.2607784  80.7401752
  70.1587629 102.3639584  42.1655178  70.1305914 101.9268227  41.3144302
  69.3426991 102.1062183  42.5942802  46.1810017  78.3706331  53.8436556
  45.4553843  78.3692169  53.2193851  46.1683655  79.2491055  54.2235947
  40.2813148  69.6415472  47.9613018  41.1617088  69.7081614  48.3310318
  40.4053402  69.7758102  47.0217133  69.5598650  65.5820799  64.6461105
  69.8466492  64.6872997  64.8287487  69.6946907  66.0497475  65.4703331
  60.9765959  65.2149630  46.4190483  60.2871990  65.3334856  47.0724392
  61.6048861  64.6266365  46.8378019  29.4324350  77.8638363  63.3234882
  30.0781941  78.5688829  63.3696651  29.5092678  77.4132156  64.1644812
  53.8682175  81.1948109  57.9589176  54.7075558  81.4361572  57.5671291
  54.0995026  80.6039619  58.6755991  44.8318672  74.7019625  29.6042514
  44.2450523  74.8848724  28.8704777  45.3918743  75.4761124  29.6618152
  52.2560167  95.1982117  60.1141596  52.1747255  94.3203926  59.7412539
  51.4092827  95.3612614  60.5297136  81.2057972  65.7407093  42.2428846
  80.8001518  64.9850988  42.6680183  81.5205383  65.4032993  41.4042425
  59.8921633  78.0920506  73.0484676  60.2144670  77.7266502  73.8723850
  58.9573240  78.2328939  73.1983709  56.8623066  80.1449585  28.3110309
  56.0302401  79.6782780  28.3891582  56.6261005  80.9953117  27.9404378
  62.9335737  71.9007778  64.0472984  62.8648663  71.9319057  63.0930758
  62.1640205  72.3773956  64.3585157  91.4787769  94.8879719  63.5407114
  91.9694519  95.5851555  63.1055021  90.5726051  95.1963425  63.5398197
  56.3161039  81.9055843  57.2794771  56.6915417  82.3617172  56.5263414
  56.6291142  82.3980999  58.0382156  64.0027285  60.7368803  39.6112442
  63.9809656  60.1849747  40.3930092  64.7271872  61.3430262  39.7660756
  23.3956790  77.6183558  47.1949005  23.7540126  76.8020010  46.8464899
  22.4905992  77.6346970  46.8837786  85.7066345  77.4962616  50.0174618
  85.5413246  78.1818438  49.3702507  85.1647091  76.7609882  49.7312498
  67.4734306  77.8966618  62.8947878  67.5208330  77.4848843  62.0319891
  67.8828478  78.7534285  62.7741003  79.0614128  86.5158081  64.7321606
  78.1847525  86.8496513  64.9225473  79.5280933  87.2653484  64.3625307
  54.0631628  72.6218176  20.1342821  53.4954214  72.0941114  20.6959128
  54.2175627  73.4229374  20.6348896  56.6418028  81.9719791  63.7515497
  57.0586586  81.1586189  63.4670973  56.7552805  82.5702763  63.0130434
  72.8133297  87.2601223  67.5607204  73.3099842  86.5027237  67.8704214
  72.9778814  87.9385281  68.2156420  71.3187695 102.5590611  52.9164982
  71.3388538 103.5044003  52.7676678  70.5329609 102.2610950  52.4582911
  46.8844461  82.7437019  52.3004675  46.9817686  83.3305073  51.5505171
  46.1553574  83.1118298  52.7996016  35.4970837  67.0089531  33.4323788
  36.3203406  67.2010183  32.9833913  35.3791809  67.7396202  34.0393806
  57.7069759  79.5629311  58.2252026  57.1078634  79.9584246  57.5920486
  58.3525896  80.2467537  58.4035349  77.8672075  75.1716900  35.8535051
  77.4218702  76.0137320  35.9477067  78.3376932  75.2411890  35.0228167
  82.4596214  71.5756941  37.3444176  82.6633358  72.4991274  37.4927425
  82.9778194  71.1079168  37.9993129  90.6822777 100.8523083  46.4087200
  90.3696728 101.3827705  45.6758404  90.0089073 100.1817417  46.5233994
  52.5126076  79.7259426  40.2340889  51.6211033  79.4610262  40.4605150
  52.6989269  79.2651653  39.4160414  67.6960421  51.2699556  46.7259073
  67.5822830  51.5205002  47.6427078  66.9651461  51.6882181  46.2708473
  53.0628633  83.5300159  44.9971199  52.3685360  82.9022503  45.1972628
  52.8946018  84.2680836  45.5829287  58.5754681  79.6816683  33.1390405
  59.2833805  79.2532921  32.6578021  57.9604626  79.9619770  32.4612331
  48.6268139  78.0030107  52.6205349  48.5014772  78.9374399  52.4551058
  47.9061031  77.7641869  53.2034349  81.5922451  75.2589607  84.7927952
  81.1531544  76.0177898  84.4085884  82.3258018  75.6297016  85.2833843
  84.2991638  79.3573904  53.3821583  84.8763847  79.8879194  52.8329897
  83.4303379  79.7382212  53.2543182  42.8236818  95.6420326  70.4530048
  42.9039478  94.8909950  69.8650169  43.7222958  95.9489155  70.5735970
  78.6612129  76.8274260  31.4449048  78.8370943  77.6309299  30.9553385
  79.4437313  76.6971827  31.9805646  46.7371035  78.1009579  32.1278715
  47.0745277  77.8141165  31.2792850  47.1944094  77.5524855  32.7652740
  52.5676250  87.9037476  49.0034246  53.0748272  88.7154484  49.0138578
  51.6832066  88.1770611  48.7598515  80.2100086  66.2612486  62.9623365
  79.4828844  65.7972288  62.5473547  79.7911835  66.9499445  63.4785843
  78.6798286  76.6488791  39.1832376  78.8282537  77.4578381  39.6729183
  79.5298433  76.2087488  39.1845131  56.4406919  81.2344456  66.4495516
  56.4711618  80.2778721  66.4329481  56.8171167  81.5006638  65.6107092
  69.4410896  41.2244272  90.7109928  68.5102081  41.0309696  90.6002140
  69.5245409  41.4822483  91.6290283  42.0792341  31.6197872  54.5130444
  42.8150463  31.0120654  54.4389677  42.3552656  32.2501421  55.1783943
  50.7311344  75.5515194  36.1285257  50.2551222  75.4683971  36.9548035
  51.1583757  76.4063358  36.1831880  78.8529205  87.9399586  24.3222237
  79.2555714  88.4517670  23.6206865  78.9938545  88.4629250  25.1114464
  64.7406387  98.4317112  62.2681284  64.0700388  98.2342148  61.6142750
  65.4630232  98.8069248  61.7645407  38.9646554  65.4593706  28.7338591
  39.1398168  66.0071421  27.9686832  38.0099273  65.4368925  28.7988329
  49.1809034 101.6340446  70.9407139  49.2247486 101.2706947  71.8251801
  48.7146187 100.9706402  70.4320860  78.6616993  78.9185810  48.4468794
  78.4979105  79.4862604  47.6937914  77.9444695  79.1096115  49.0512943
 114.2799950   7.4637437  68.9228487 114.9042892   8.1464112  69.1687202
 114.6830177   7.0303053  68.1705570  64.5057583  66.3939714  68.0891037
  63.6243916  66.0356951  67.9839182  64.7028923  66.7971373  67.2436237
  77.9387617  88.2866955  29.3629694  77.5323820  87.6678085  28.7562871
  78.8703442  88.0679417  29.3400097  80.0230408  70.0139856  53.4798098
  80.6754589  70.0236607  52.7794647  80.2978897  69.2985964  54.0533209
  54.0293169  96.3349342  67.0624685  53.5178185  97.1413136  67.1284771
  53.4333086  95.7058430  66.6559601  74.7119951  71.0066462  59.2185736
  75.1843357  71.7845678  58.9219952  75.3980494  70.3635359  59.3973684
  47.6915836  94.4086742  89.2567062  48.1867743  93.9267921  88.5942841
  46.9019842  93.8851452  89.3933868  72.8729916  64.0130711  44.9191046
  72.9107809  64.4918346  45.7471037  73.4089231  63.2341051  45.0681734
  75.5211878  67.5528526  41.5763664  75.1460600  66.7603540  41.9603634
  75.0088739  67.6993561  40.7811928  49.4291258 108.6703110  71.6341877
  48.5424137 108.8931561  71.3507843  49.8073244 109.5035744  71.9150448
  60.8182096  64.0112162  86.8420029  61.0053396  63.0997705  86.6173077
  60.0192404  64.2182255  86.3572025  40.4861021  77.3706675  35.3320789
  40.4203844  77.4794722  36.2808013  40.5126238  78.2641792  34.9897885
  57.0437241  66.5931988  59.3262291  57.5595188  67.3980665  59.3749523
  57.0028400  66.2798548  60.2297640  57.0635223  82.4668217  50.0952578
  56.4276457  83.1129932  49.7881031  56.5316868  81.7221737  50.3761292
  52.8402042 103.4676266  33.6829877  52.7447081 102.8497696  34.4078135
  52.7676153 102.9270840  32.8963637  83.5489368  75.6527519  49.7272778
  83.2713985  74.8442125  50.1579428  82.8617477  75.8300591  49.0849686
  94.3275738  77.4653721  18.5885012  93.4608078  77.4692488  18.1823874
  94.2708683  78.1244469  19.2803335  66.1823797  84.3145084  69.3013096
  65.7547998  84.5584583  70.1222229  66.9839144  83.8670349  69.5724916
  41.5199232  90.3591633  30.3473282  42.3620701  89.9204063  30.2269006
  41.3240337  90.7405949  29.4915390  73.2078171 105.9969807  33.8988519
  72.9648304 106.9217682  33.8545489  74.1637325 105.9978676  33.8492465
  55.6370497  54.6574211  58.8508081  55.0888777  53.9437437  58.5246229
  56.2222242  54.8624802  58.1215954  42.8327799 101.6333866  49.9459839
  43.5200691 101.6056728  49.2803288  42.2106981 100.9577560  49.6762276
  47.2638845  19.4368565   2.0866659  46.3555431  19.7387075   2.0807767
  47.5375652  19.5187283   3.0002460  77.4223042 108.2287502  64.2394257
  78.2802486 108.4267330  63.8639736  77.4976015 108.4867001  65.1581335
  69.3523645  97.1859264  48.8104963  70.3033495  97.1274853  48.9023924
  69.2180252  97.8307533  48.1159544  81.3539505  70.9088135  57.0349979
  81.2509537  70.3284311  57.7891731  82.0762730  70.5273104  56.5360641
  55.9691811  74.2428207  37.3587346  56.8284893  74.1542768  36.9464421
  56.1049175  73.9513016  38.2603025  39.1621232 100.9185028  53.5115337
  38.3301687 100.6948090  53.0943441  39.8210359 100.7480240  52.8384781
  58.6975288  76.9053459  66.8127298  58.7033987  76.4978313  65.9466267
  59.3279648  76.3955736  67.3215628  63.0515432  76.4547586  54.3626213
  63.4671831  77.2853947  54.5939779  63.2375193  75.8790874  55.1044083
  82.5813770  88.7590313  20.2265239  82.3407459  88.9403534  19.3179786
  83.1508350  87.9913902  20.1748419  69.3617821  74.5623112  50.7489681
  70.2047157  74.8051453  50.3659201  69.0123796  73.8965845  50.1565456
  78.9328480 105.2957535  53.9484882  78.4404087 104.8556042  54.6413136
  78.4735394 105.0611973  53.1421041  53.9875460 100.3619957  56.4836836
  53.1246090 100.3589249  56.0694790  54.3237829 101.2449455  56.3301373
  78.1838226  78.9342690  61.4653349  78.8544846  79.6037531  61.6003704
  78.6154509  78.2670736  60.9316921  76.9678593  81.1175442  59.1760683
  77.3295403  80.5383968  59.8468971  77.1386433  82.0003128  59.5043659
  70.5638504 104.1050053  34.8609948  69.6381187 104.3238735  34.9675369
  70.9953070 104.5184231  35.6087685  62.9315138  52.2053623  49.8729038
  63.6575031  51.5830231  49.8297167  63.3213806  53.0038595  50.2287674
  42.3660183  83.3390045  11.7967772  41.6250849  83.7651062  11.3658631
  43.0099058  84.0377331  11.9126117  48.7165117  91.4644909  58.5593033
  48.8167810  91.0851288  57.6862240  47.7713537  91.4709854  58.7105227
  79.0511179  99.4279099  82.3225594  79.1655445 100.2078533  81.7795753
  79.9279928  99.2372131  82.6556587  81.1369896   5.3971678  17.5162029
  80.3668880   4.9008688  17.2389603  80.9512234   5.6407636  18.4230578
  92.7313995  92.7429390  57.0646620  92.0189381  92.6664448  57.6993084
  92.5515842  93.5602856  56.6000652  73.6877060  88.4530830  82.4031162
  73.9784241  89.1717243  82.9646015  72.7894878  88.2780933  82.6838589
  88.9353466 104.2949867  75.4584980  89.4187355 104.1746616  76.2758636
  88.0415154 104.4955158  75.7361507 103.8012028  54.4607258  81.5924263
 104.6197414  54.9121141  81.3863182 103.7624264  53.7374401  80.9666634
  86.7517376  99.4245625  57.0593357  86.4557362 100.2713013  57.3934793
  86.7673969  98.8555813  57.8289127  54.5861816  96.2836647  70.0306749
  54.5719910  95.9645653  69.1283417  55.4653931  96.6450024  70.1431417
  89.2673874 108.3210182  45.3417730  90.2180099 108.2445240  45.2599430
  89.0796185 108.0299759  46.2341070  77.5614214 101.4121246  66.6135025
  77.2919083 102.0167637  67.3048830  78.1770849 101.9160080  66.0812426
  53.8243914  88.2718945  94.7255898  53.1786728  88.6474037  94.1270256
  53.8468122  88.8790035  95.4652882  85.2468967 107.6919651  55.9059286
  85.7127285 107.6667595  55.0701046  84.3212986 107.7193642  55.6635284
  73.3610010  83.2564259  61.9087219  73.2049036  82.3150921  61.9845152
  73.3445501  83.5753536  62.8110790  69.7242069  76.4863729  57.0434713
  68.9352131  77.0135164  56.9175959  69.3969250  75.6099415  57.2459078
  60.7348585  94.4729805  54.3514872  60.9224606  93.5453320  54.2082739
  60.2912807  94.7539711  53.5511684  79.9538374 103.4195137  62.1192694
  80.1806641 103.2836533  61.1993122  80.2715302 102.6330948  62.5629520
  56.3570213  71.6245985  53.6439037  57.2018290  71.5547371  54.0884829
  56.5775347  71.6470814  52.7127218   5.4943871   0.0954388  84.0462017
   4.5812821  -0.0622608  83.8062096   5.9343266   0.2684925  83.2138920
  79.9082899  67.1810913   8.9895463  80.1227093  67.9620171   9.4998491
  80.0601768  66.4524841   9.5914590  48.6609125  89.0927315  26.0461426
  47.8279448  89.1248417  26.5166306  49.1012192  88.3160973  26.3913965
  51.8242741  75.5653381  50.8561468  52.6775217  75.1358557  50.9173727
  51.1907721  74.8536110  50.9475327  73.1376457  93.1616497  56.7397881
  73.4790659  94.0111732  57.0190525  73.7492275  92.5245953  57.1090508
  50.7302094  42.0433855  75.0927019  49.9940014  42.6502800  75.1695633
  51.3506222  42.3335409  75.7613754  50.7191467  97.6128864  19.3714821
  50.5532789  96.7652035  18.9589751  51.3271236  98.0533314  18.7776840
  45.0670958 102.2949982  74.8384857  45.8912992 102.6399994  74.4951248
  45.3196573 101.8074703  75.6225538  58.9006138  90.3279686  30.0956297
  59.2609692  90.4476070  30.9742999  59.2038774  89.4602776  29.8284793
  96.4508247  63.7408829  63.0584288  96.1740303  64.3071318  63.7788296
  96.5662861  62.8801966  63.4610701  32.9686618  80.0525761  50.2541780
  33.0336046  79.6267462  51.1089802  33.7839270  80.5471039  50.1703882
 101.1438274  68.9518595  41.0867071 101.3834953  69.6957159  41.6393948
 100.7098675  68.3409548  41.6822815  72.5354242  94.2322445  49.7989082
  72.3890352  94.0806198  50.7326174  71.9301605  94.9386024  49.5731878
  71.1621809  91.3164997  68.8035917  70.4878521  91.3633823  69.4813156
  71.8404007  90.7549477  69.1789770  30.4261303  85.9063911  14.2131829
  31.0451126  85.1811695  14.1286683  30.8381176  86.6292953  13.7399912
  96.9451237 101.2632370  39.9344850  97.8471756 101.0085487  39.7404146
  96.9468784 101.4550591  40.8722687  88.4546089  98.1109428  49.2235327
  87.9255009  97.9234505  49.9988556  89.1146469  98.7333584  49.5287895
  97.6877499   0.0028049  93.9637375  97.4561882   0.5960841  93.2491493
  97.0396614   0.1834998  94.6445847  60.8034897  83.4033680  78.6492109
  61.6985798  83.4853077  78.9783525  60.2685738  83.8703346  79.2911148
  97.2039032  95.9587574  35.9474874  96.9775867  96.1419392  36.8593264
  97.0919704  95.0123024  35.8584166  46.2460852 108.8735962  71.8114424
  46.1295605 108.7784386  70.8661413  45.8205986 109.7045803  72.0227671
  84.5532894  97.7234077  60.6942177  84.1131401  97.3993969  59.9083948
  83.9950371  98.4362888  61.0047054  78.6842585  73.4854984  67.8799248
  78.4938383  72.8902960  68.6049795  79.2000151  72.9603052  67.2680426
  51.9256210 107.7974701  76.5339470  52.6465893 107.1689701  76.4962482
  51.2825155 107.4619865  75.9093714  30.8829498   3.1408358  28.4502196
  31.8211198   3.3202961  28.3880854  30.7704854   2.2986478  28.0094218
  45.9650755  96.6999149  57.8455257  46.7634821  97.1502018  58.1212473
  45.7747889  96.0911369  58.5592604  78.8712263  95.6289291  36.5494037
  78.8058996  95.1762199  35.7085562  79.5922184  95.1910400  37.0017934
  36.9969392  88.7605572  31.9796300  36.4280462  88.4344006  31.2823391
  37.4543166  89.5043087  31.5873694   8.9371443   9.1323417  50.0144100
   8.7991029   8.2906342  49.5800066   9.2293423   9.7174931  49.3155146
  55.8616877   8.7492967   7.0067412  55.3928041   9.5356584   7.2860497
  56.2820768   8.4254575   7.8033799  18.9911592 100.3330898   6.5534139
  18.8620210  99.4384575   6.2384492  19.6641183 100.2541733   7.2295278
  58.0139685  87.8422070  33.7624454  58.3082342  87.0024586  33.4096694
  57.0724440  87.8574753  33.5906076  10.9826934  18.7201977  49.4000721
  11.5962863  19.4061840  49.6630526  10.4551101  19.1224205  48.7100697
  62.4180460  84.3714333  82.8386116  62.9800653  84.3686771  82.0637798
  62.8839588  84.9190235  83.4705067  53.7630224  84.5290852  89.1840839
  53.7552643  85.2858067  89.7702026  53.3054399  83.8439751  89.6714020
  73.3820295  67.5092649  31.0664821  73.1455851  67.9661989  31.8736601
  73.3927155  66.5835238  31.3096356  67.9370451  67.5818920  64.1850424
  68.6996174  67.0044374  64.1494179  68.3026028  68.4649372  64.1319132
  82.5031948  97.7352047  65.8140755  82.2434711  96.8546486  66.0849857
  81.7955208  98.0275822  65.2396727  82.7254009  64.1115379  50.8168411
  83.5837364  63.7036562  50.7023001  82.8750324  65.0394201  50.6355190
  63.7346220  77.0603752  33.4679556  64.6576548  76.8249655  33.5618806
  63.3681059  76.3744974  32.9098606  52.8112268 100.6762314  45.8617830
  53.4743357 101.1048889  45.3207016  52.7321911  99.7968864  45.4919863
  58.9249563  63.6484957  64.1174173  58.9484549  62.7326059  63.8402414
  59.3162680  63.6444807  64.9909687  76.5327120  96.4210892  39.8107386
  76.9314861  97.2576141  39.5710683  76.4793396  95.9364605  38.9870143
  40.1565695  88.6294079  65.2135420  40.7877922  89.3465614  65.1545763
  40.0209999  88.5062981  66.1530638  68.5659790  89.7620010  47.9386044
  68.9987183  90.3399086  47.3101282  69.1347551  88.9937305  47.9885674
  87.9466724 100.7156467  78.3446026  87.8849030 101.1735249  77.5062943
  88.2721329  99.8444080  78.1182432  91.3242817  46.2400675  57.4558687
  91.6697025  45.3674078  57.2677565  92.0259762  46.6763735  57.9390669
  35.7348132 106.2197208  67.4242163  36.1475658 105.4126358  67.1168375
  35.4792356 106.6779709  66.6236401  72.9996252  69.8168755  46.0919905
  72.7817392  68.9899778  45.6618786  72.7707863  70.4885769  45.4495907
  64.2090416   0.4250187  20.6295276  64.6012211   1.1586248  21.1030769
  64.4239044  -0.3435465  21.1580849  42.4599314  96.1202812  37.6052999
  42.3057938  97.0130062  37.2962260  42.8738642  96.2312698  38.4612060
  86.7549419  98.9326096  59.7626829  86.0468388  98.4061623  60.1337337
  86.6809559  99.7787285  60.2040958  67.1200132  95.2560902  58.5921621
  67.5513220  96.0705376  58.3335352  67.8354120  94.6838284  58.8695669
  72.7190590  85.6132984  64.1309261  72.6278019  84.6692944  64.2603397
  73.5019875  85.8487225  64.6287584  87.3640347  80.9907627  72.4012136
  86.9017506  80.9539700  73.2385731  88.2386398  81.3094139  72.6242733
  68.3628893  71.5445614  59.8349619  69.2109919  71.9783449  59.9287176
  67.7985382  71.9815826  60.4727316  65.5760908  71.6835165  56.2696743
  65.4964828  70.7458782  56.0943794  66.4990807  71.8797064  56.1089563
  69.0704966  96.4497662  80.2132034  68.8411903  96.1302090  81.0858631
  68.4215641  97.1287632  80.0286102  60.5159473  73.1016397  65.3356981
  60.3242731  73.5742521  64.5256805  59.6654177  72.7754259  65.6296587
 106.7232513  33.6272597  35.3393602 106.1377335  34.1907644  35.8451843
 106.1490822  33.1852317  34.7139192  58.3112049   3.1567425  58.9165735
  58.0606604   2.8833750  59.7990274  58.0789709   4.0845531  58.8782597
  68.0982590 106.3559628  41.6164875  69.0107298 106.0668564  41.6096878
  67.5915289 105.5477810  41.6958618  67.5342321  91.3153076  54.2915201
  67.1596718  91.0034180  55.1153326  67.9123402  92.1676350  54.5078278
  81.5162754  79.8831081  73.2515335  81.8864155  79.0313435  73.4833097
  81.2252617  80.2526569  74.0851831  91.2050915  24.9936438  71.7415380
  90.8362198  24.3660140  71.1200476  92.1428108  24.8016357  71.7477798
  88.3998489  49.6866608  66.7680693  87.5630760  50.1178932  66.5946579
  88.7386894  49.4638443  65.9010172  87.8729439 109.4339848  78.5046482
  87.8456306 110.0502968  77.7727747  88.5583210 109.7748470  79.0793705
  68.1745148 110.9391117  50.4968834  67.8755999 110.7693863  51.3902330
  67.7494955 111.7617702  50.2543354  94.9941063  97.5989151  65.3000355
  94.6667194  97.8974819  64.4515610  95.7143116  97.0066071  65.0839233
  88.9442921  73.8818645  92.2841930  89.7963715  73.8077593  92.7139568
  88.7086678  74.8049498  92.3770523  82.6918606  12.5053457   0.2250165
  82.3186118  13.1777147  -0.3449374  82.0399273  12.3882154   0.9160203
  93.4711111   0.2627800  63.3478498  93.4210670  -0.6089165  62.9555845
  93.0799568   0.8423851  62.6941824  75.5789518  91.9384956  78.6510420
  75.3154898  91.0440350  78.8673067  75.9672689  92.2756195  79.4583750
 101.0337067  11.5727699  49.9344063 100.6765938  12.1234381  49.2376518
 100.9524059  10.6798089  49.5993757   9.4352531  35.0215507  23.0083656
   8.8279641  34.8029685  22.3015046   9.7676462  35.8893299  22.7787900
  22.0663595   1.4430112  62.6485443  21.2400508   1.2423277  62.2090340
  21.8157244   1.6414067  63.5507917  69.6414566  65.1929140  45.1814985
  69.2620897  66.0385895  45.4205513  69.3855810  64.6059132  45.8929682
  60.0483370  98.5326767  55.8919287  59.6829748  99.3116188  55.4724121
  59.7010946  98.5557270  56.7836237  50.4117250  82.4469090  54.9663162
  49.8894453  83.2329178  54.8061943  51.1895990  82.7653885  55.4242611
  53.1524134 109.7311974  87.9380703  52.4717474 109.1415787  87.6136017
  53.0192852 110.5430126  87.4487209  94.1293240  77.3604965  74.6771383
  94.8519707  77.9205656  74.9605751  93.3409595  77.8337526  74.9431276
  54.6165609  16.3173401  61.7163992  53.8368225  15.7942295  61.9023943
  55.2260733  15.7021153  61.3086939  93.3832550 109.4754410  51.7477703
  93.9198589 110.1972008  52.0754099  92.5678444 109.5382404  52.2451496
  85.8382320  97.6563168  34.3309808  86.7904854  97.6304817  34.4246578
  85.6702232  98.4399319  33.8075805  78.3996630  95.1418591  52.4584627
  78.2298613  95.5044460  51.5890217  77.5301027  94.9889278  52.8282022
  62.1652079  80.8653450  39.8628378  63.1092834  80.7863426  39.9996257
  62.0819044  81.3311100  39.0307570  36.2442350  87.6917744  36.2062526
  35.7899761  88.4651947  36.5404773  35.7055664  86.9546700  36.4938951
  61.7697859  95.9780216  39.9135137  61.0066462  96.4808655  39.6289110
  61.6461420  95.1131344  39.5224810  76.6165257  98.6618423  31.6445637
  77.2463799  98.7677765  32.3575068  75.7841539  98.9558029  32.0146775
  80.2772141  82.2622681  96.0218430  80.1225471  83.0568981  95.5110741
  80.6130505  82.5782871  96.8606377  64.3732023 107.4145889  78.0199957
  63.5691881 107.3099041  77.5112438  65.0692987 107.1253777  77.4300480
  79.6930218  71.0103559  41.3922739  79.8860264  71.6678238  42.0606422
  80.3748512  70.3479004  41.5040207  68.1829214  98.6798382  62.9850626
  69.0936136  98.4062099  62.8755379  67.8870249  98.2187366  63.7699556
  18.7236345  28.4654975  19.3740487  18.5381234  27.5301290  19.2909789
  18.0320251  28.7968969  19.9468327  39.6786594  90.2626705  54.5360231
  39.2435694  89.8000526  55.2522039  40.5082035  90.5584908  54.9109554
  91.7067432  54.9221659  74.6675539  91.3538551  55.3056145  75.4704618
  91.0577869  54.2676163  74.4093847  91.2503242  14.2105186  50.0997972
  90.5857754  14.8706484  49.9027109  91.7581177  14.1332567  49.2920780
  40.0183105  95.9189510  51.8695259  40.6946039  95.2493477  51.7671442
  40.2599382  96.3827991  52.6712084 108.1144238   1.6272114  47.7078867
 108.5897541   0.9710461  48.2175350 107.6759243   1.1253142  47.0208263
  63.7740469  94.3334007  33.6722779  64.2445326  94.5831013  32.8769636
  62.8587437  94.5410061  33.4842563 101.5573883  53.3526659  72.2524834
 100.9071064  53.3404350  72.9547787 101.2412262  52.7055311  71.6220188
  67.1294165  85.9864426  52.1733952  66.1940670  85.9482765  52.3731327
  67.3284531  85.1304436  51.7940760  62.2287941  67.6151800  34.0597916
  63.0766153  67.6922464  34.4973826  62.3021984  68.1840372  33.2934713
  60.3032064  95.1266956  64.1200066  59.3482208  95.1627636  64.1741419
  60.5882025  94.9661064  65.0195742  92.3202038 104.9158096  68.9824343
  91.4838028 105.0796127  68.5467529  92.1265411 104.2315865  69.6231890
 104.3902874   9.5663840  51.4177752 103.6253452   9.1506505  51.0199547
 105.1080322   8.9548963  51.2529850  25.9449172   7.2832710  51.2855291
  25.6102943   8.0283469  50.7864094  26.4372897   6.7684233  50.6462049
  48.1924915 105.7778835  42.4831247  47.5441694 106.4813328  42.5157833
  48.8009977 105.9797955  43.1938934  46.5029478  66.7503786  42.7290773
  45.5909634  66.5124416  42.5620365  46.5858936  66.7267466  43.6823797
  97.2327900 109.8842812  42.8126287  98.1364536 110.1854801  42.7182531
  97.1228600 109.2351913  42.1177673  98.7471962   7.0383000  48.2771349
  99.6137714   6.7752337  48.5870981  98.2505798   6.2212265  48.2324505
  83.1649303 108.6858082  52.8648472  82.7500153 108.0208588  52.3153639
  82.6506901 108.6843109  53.6721802  69.2641926  68.4115744  71.6131258
  68.5664988  68.8154697  71.0970592  69.2312145  67.4846649  71.3765240
  41.2928629  73.3847570  40.1933098  41.2595749  72.5233555  39.7772479
  42.2211552  73.6181402  40.1868820  78.4810400 110.5993748  66.4205599
  79.4279814 110.4757881  66.4857960  78.3175325 110.7070351  65.4835939
  78.5211802  68.8916492  64.3920422  77.6803780  69.2576218  64.1175365
  78.3604527  68.5580111  65.2747011  49.0679693  99.0368748  66.9817019
  49.1427565  99.0033817  66.0280180  49.6236658  99.7722721  67.2398424
  48.0031347  76.6965008  50.0171947  48.0149031  77.1068287  50.8819056
  48.3487940  77.3677540  49.4288301 109.2560291 110.2137375  90.7354164
 109.4214344 109.2764664  90.6334972 108.8652897 110.2947712  91.6054726
  27.4722028 106.6386414  54.0298986  28.2892752 106.2111664  53.7732029
  27.1115327 106.0747147  54.7141027  72.9153824  72.0495558  68.0039549
  73.3445835  72.3438931  68.8073158  73.4331608  72.4389076  67.2992992
  32.4870563  41.8579578   2.4725012  32.4341297  41.8279743   3.4277666
  32.9422379  41.0508728   2.2323884  75.0601959  58.0600786  92.1690369
  75.1212120  57.3010254  91.5890789  75.5803919  57.8184223  92.9353523
  55.3620243  78.5904074  48.6431742  55.1290751  78.4333992  47.7281237
  56.3158226  78.5125780  48.6642551  21.6112351  73.5937929  36.5703225
  21.4436221  73.2031441  35.7126880  20.7571650  73.9168930  36.8573856
  81.8598652  80.3266621  70.5505991  81.2571335  80.8163834  69.9910355
  81.3552666  80.1428223  71.3429499  65.6745338  82.8653145  61.2271261
  65.8942175  83.7889004  61.1047840  66.2156916  82.4035263  60.5867100
  48.4095526  92.3504448  23.0564117  48.8532686  92.8492546  22.3704576
  47.7985430  91.7848873  22.5841331  85.1535511  91.2313843  44.6378613
  85.8111477  90.5484486  44.7697496  84.5095825  90.8338261  44.0517759
  27.1982145   3.8932294  66.5189123  27.4413896   4.5957142  65.9159088
  26.4063215   4.2124349  66.9516325  76.0124636  82.6342201  47.4192476
  76.6372728  82.9245281  48.0837488  75.2086020  82.4567032  47.9076385
  91.1548042  92.9656410  74.9627638  91.0797215  92.0121288  74.9252224
  90.2541351  93.2800865  74.8843336  75.2976990   4.2190582  59.2739391
  75.6942654   3.6168021  58.6444521  75.9698915   4.8833182  59.4260883
  62.6598692  56.9309282  55.7941771  62.9589939  56.6687965  56.6648340
  63.2201195  56.4422321  55.1912451  68.2016039  70.2976561  78.3476448
  69.0410042  70.6334019  78.6621571  67.6582718  71.0777617  78.2360315
  76.2123728  74.8279667  46.3382339  77.0131302  74.3341398  46.5147352
  75.6031561  74.1787195  45.9867191  16.6122448   4.3231738  54.8634100
  17.1641672   5.1039833  54.8192644  16.1194372   4.3315053  54.0428591
  45.3117847  85.9449387  51.8215132  44.7547197  86.6375732  51.4663124
  45.7361221  85.5615807  51.0539198  94.7306538  13.7543893  17.1051538
  94.7826672  13.3745360  17.9822159  94.2252159  13.1187677  16.5984499
  27.9872870  89.8996258  47.1533775  28.7880731  89.8171616  46.6355228
  28.0919576  90.7251167  47.6264906  57.6397562  67.7185392   8.1160790
  57.5752640  66.8710375   7.6758325  58.1366873  68.2667017   7.5087857
  74.3013477  70.8451557  20.3291702  74.1242075  70.2521610  21.0593843
  75.0231504  70.4323149  19.8550451   3.9410201   1.9210495  35.9838200
   4.6229738   1.8962321  35.3125858   3.7961239   1.0028335  36.2121105
  68.0596447 108.4758949  48.8834810  68.3194542 109.2333984  49.4078112
  68.8373423 108.2637882  48.3673096   8.1055170  22.6926184  46.5097523
   8.3116800  22.5287461  45.5894947   7.2282898  23.0753231  46.4942074
  42.1843672  80.7082081  37.3408389  42.9389143  81.0507965  37.8199220
  41.8907356  79.9596071  37.8600740  98.7454224   7.7518117  39.6816444
  99.6663952   8.0102670  39.7170019  98.4132195   8.1580520  38.8811183
  32.0822668  12.7714014  31.0766864  32.5465822  12.4677682  31.8567181
  31.6439676  11.9900823  30.7395411  77.4673414  98.4084702  38.4556723
  76.9008446  98.9634800  37.9196858  78.3360291  98.5052490  38.0654836
  76.9532681  95.3182888  31.8252301  76.0139799  95.4984951  31.8638730
  77.3310709  96.1012363  31.4246058  67.7186584  93.9621925  65.4982281
  68.1190586  93.7466431  66.3405180  68.4576273  94.0411758  64.8949718
  94.6209145  17.8590810  64.1374397  95.4742336  18.2877088  64.2034721
  94.7652626  16.9820964  64.4928169  79.0024328  97.4697685  92.4681282
  79.6862888  97.0223141  91.9697666  78.2905293  96.8323135  92.5236130
  48.6792135  93.5932159  82.1141911  48.1849766  92.8096485  82.3549938
  48.6288071  93.6240005  81.1588192  24.6502519  27.4360466   3.2896572
  24.9314785  27.5127029   4.2013961  24.1947079  26.5951586   3.2494140
  61.5118313  93.6540985  59.4025040  61.4689398  93.8104248  58.4591293
  60.5970001  93.5868931  59.6759844  91.8975639  11.0347390  63.4974432
  91.0692596  11.5104890  63.5591316  91.9190693  10.4884100  64.2831230
  91.4041996  60.9835386  94.1521549  91.2711811  61.7744970  93.6297321
  92.2345257  60.6257439  93.8378811   1.2176061  17.4605107  67.2915030
   1.7040485  18.0725825  66.7392588   1.7312115  16.6532302  67.2643137
   0.6043898   7.5349718  77.3780441  -0.2746499   7.4085099  77.7351570
   0.8208262   6.6957891  76.9716501  75.5376387 104.1137028  71.3099623
  76.0659313 103.3783054  71.6203260  74.8446894 104.2037487  71.9641352
 114.5458603  22.6313543  81.2074184 114.4840622  22.6838684  80.2536583
 115.4432392  22.3427725  81.3737583  90.2420616 102.6343060  50.4618692
  90.5665112 102.9784584  51.2940454  90.3752136 103.3487988  49.8389721
  96.8568039  88.5800934  36.9889832  96.3740540  89.3862534  36.8065500
  96.8124390  88.0841446  36.1714864   4.0962821  24.3278050  26.6837287
   4.2939660  23.4398198  26.9814444   4.5507041  24.8957634  27.3059487
  87.6010704  20.1612759  28.7010646  87.9943943  20.9453273  28.3179307
  87.3887444  20.4143858  29.5994425  13.4515238  88.2170582  39.2310691
  13.2103097  88.6908150  40.0270557  12.6872480  87.6756096  39.0337062
  89.8159885 101.3101387  61.3916874  89.6908379 102.2258568  61.6407490
  90.2081871 101.3506126  60.5194616  12.3806190   5.4436982  67.3623323
  12.7309120   4.9434024  66.6252899  12.0554709   6.2535727  66.9691229
  70.6089497 107.8578186  76.1742973  70.5942297 107.0718956  75.6280994
  69.9252844 108.4178638  75.8066177  76.2849092  12.9444218  50.6168890
  76.7594385  13.4760118  49.9777746  76.8436146  12.1794057  50.7541180
  49.2815495 104.0292740  51.6161203  48.4958363 104.2014790  52.1349955
  49.6159601 103.1993294  51.9561052  25.4134464  24.2607284  88.3769035
  26.3162923  24.3248796  88.6883259  25.4936862  23.9740467  87.4671745
  61.9733953 105.1121044  80.4009247  61.6327810 105.1702881  79.5082712
  62.3317719 105.9819031  80.5776978  57.1688080  85.4680729  44.2982340
  56.5717030  85.5147552  45.0449038  56.7319918  84.8839378  43.6783886
  84.7027397  98.1802082  42.2164583  85.1642990  98.3398533  41.3932323
  85.3274345  97.6888657  42.7499151  86.4115334 109.8082733  56.9342136
  85.9879112 109.0048218  56.6321564  87.3339939 109.5712948  57.0298529
  99.2422867 108.5694599  87.4272537  99.7515583 108.3218861  86.6555214
  98.5679245 109.1592216  87.0901203 109.4119358  21.8507218  48.3503199
 109.6804333  21.9961762  47.4431324 108.5357380  21.4713120  48.2828808
  75.2106857  98.7269497  79.7785664  74.9021530  99.4357681  79.2141151
  74.7138453  98.8332462  80.5897903 105.3414249  99.7554684  62.9430771
 104.4567204  99.6239758  63.2840061 105.6172276 100.5953217  63.3102512
  69.2938948  83.9208412  79.7596216  69.3759918  82.9691505  79.6981239
  69.9771833  84.2581177  79.1803122  73.6102390 108.1919193  76.4221191
  73.6323690 109.1047955  76.1350393  72.6783323 107.9792690  76.4726496
  12.4963880  22.3730659  77.3543406  11.8476999  21.6947818  77.1662903
  11.9803631  23.1214762  77.6540661  52.8965902 101.4607239  35.6167555
  53.7930679 101.3046837  35.9137487  52.3823977 101.5096855  36.4226365
 115.8750343   8.9495391  55.1266766 114.9924088   9.2079556  55.3920555
 116.1985779   9.6917409  54.6160984  70.6701469 104.9013042  29.0832496
  70.2181578 105.5208874  29.6560121  69.9692869 104.3725395  28.7018943
 117.7608585  11.3082647  63.3760023 117.9432011  10.6660318  64.0619469
 116.8076992  11.3011158  63.2884550  91.9744968  83.8810158  80.6915665
  92.7464867  83.6960888  80.1567078  92.2982311  84.4482231  81.3913536
  72.7891541  70.9175730  40.7649612  72.3515558  71.6726208  40.3717136
  72.1827984  70.1900911  40.6259155  79.0628815  63.1832647  88.9662552
  78.4094238  62.4997282  89.1146088  79.9012470  62.7218390  88.9876652
   5.1309001 104.3320084  49.8563766   5.4281396 103.8034534  49.1157675
   5.9026986 104.8346615  50.1169586 106.6936970   9.3874311  74.9390078
 106.4938927   9.3032610  75.8713293 106.1285210   8.7424719  74.5137596
  63.7960005  81.8551922  70.5426121  63.9480400  82.7957344  70.6347275
  63.8816643  81.5105343  71.4314890  86.7837715 109.1296577  87.6931477
  87.3597527 108.4164906  87.4177265  86.5280247 108.8996124  88.5863972
  88.9978123  80.8197403  63.3799219  88.4250832  81.2124634  64.0386868
  88.6237717  81.0946560  62.5428200  97.3679733  79.8971748  88.8414478
  97.0866108  79.1251945  88.3504200  96.5866661  80.1746559  89.3197918
  70.9376955 102.7562714  78.2949257  71.3538265 101.9045067  78.4274387
  71.0206795 103.1974888  79.1403103  48.6623478  36.5710068   7.0244688
  48.7739658  35.6304526   6.8861490  49.4516754  36.8392563   7.4948239
  87.5584412  89.2249584  61.2835598  88.0902386  89.2085552  60.4878521
  87.5617409  90.1428699  61.5549660  77.2083712  21.7899156  66.5336847
  77.9289007  21.1862922  66.7145348  76.8248272  21.4675379  65.7180882
  71.0434580  97.8003597  56.5585327  70.3170967  98.0350208  55.9809828
  70.7687044  96.9797421  56.9676065  71.1576509 105.3471088  37.2685671
  71.9025707 105.0878716  37.8108954  71.0896063 106.2938976  37.3918676
  77.4287081  32.9718041  77.4872494  77.3747492  32.1722674  78.0107594
  77.3877048  33.6812210  78.1285572  91.3105392  12.0462251  57.2585583
  90.9506989  12.1948981  56.3841200  92.0364761  12.6663113  57.3274374
  65.3013945 104.4015980  55.9820366  65.3949499 104.2238808  55.0461435
  66.0890913 104.0275002  56.3767815  86.1191273  80.2914429  48.2696009
  86.8049240  80.9025192  48.5388565  86.4278030  79.9373388  47.4355984
  51.6383028  69.8009300   7.7552569  52.1326971  69.0973043   7.3348773
  52.1795464  70.5807257   7.6319534  68.7841606  91.2378883  88.1764889
  69.1337538  90.3828049  88.4271812  67.8390837  91.1573696  88.3052540
  98.2965374  86.3322830  50.6115961  98.0864334  87.2316742  50.8629560
  99.0848446  86.4116478  50.0744677  78.2031441  85.4361343  33.8088632
  77.3055029  85.7669640  33.7768292  78.7463045  86.2223244  33.8646388
 116.2434006   5.5337745  80.4890537 116.9387150   4.8841918  80.5930328
 115.7391071   5.4768312  81.3006401 108.7877560   2.4265663  79.0752459
 108.5735130   3.1256059  79.6930456 108.0208302   2.3670119  78.5055876
  63.0743980  73.9229107  88.8747311  63.1719065  73.1191730  88.3641148
  63.0739784  74.6228886  88.2218361  48.3279097 111.5000270  65.8032036
  49.2689097 111.4770022  65.9770012  48.0297720 110.6078009  65.9800720
  39.2528296  84.0366173  42.6449347  39.7065544  83.8109875  41.8328667
  39.7001863  84.8224640  42.9588556   0.1284002  12.0737457  66.4548874
   0.9833477  11.7543232  66.7434454  -0.4710715  11.3495338  66.6348362
  20.4673839   5.5288184  62.4956036  21.0851598   5.9986657  61.9353962
  21.0038662   4.8821071  62.9540586 101.7080975  14.9886847  85.5217934
 102.6053905  14.7108448  85.3376579 101.6305256  15.8437502  85.0986195
  71.8124151 108.7129784  41.1835337  72.1296644 108.3395386  42.0058107
  72.5975800 108.8058853  40.6439829  96.5491772  91.7211246  79.5625162
  97.1200275  92.4268150  79.2585993  96.3985538  91.1833191  78.7851477
 114.6244907   4.2830053  73.3531237 115.2038956   4.5380449  72.6351595
 114.7061348   4.9925566  73.9903831  88.0237007 106.3506031  62.0439005
  87.1670246 106.6609192  62.3372364  88.1158257 106.7029095  61.1586761
  68.1095600 109.1860008  35.8914828  68.7121773 108.5440826  36.2669969
  67.5617361 108.6785507  35.2926373 100.5379677 109.3199825  22.4675870
 100.1473808 110.0205612  21.9452262 100.0325871 108.5400581  22.2383618
  53.3294773 103.7403393  48.3463144  53.8361025 103.4407711  47.5914526
  53.2311916 104.6826839  48.2100916  12.8803849  16.1040258  43.8827372
  12.0731175  16.6172218  43.8483906  13.5796010  16.7508376  43.7880564
 106.5374660 104.7410679  68.8788652 106.1308956 104.5313168  69.7196627
 105.8008289 104.9235916  68.2955265  69.3641901  88.5291290  59.4036484
  69.3311977  88.1749535  58.5149956  70.2860451  88.7476158  59.5403337
  61.8468571 107.6660347  94.4843197  60.9377956 107.6691151  94.7840500
  62.1733379 108.5394478  94.7006321  55.7996798  89.5503426  48.6517048
  56.6086960  89.0886021  48.4314442  55.9626818  89.9181271  49.5202637
  10.9538162  39.7287035  72.3209667  11.1178041  38.8109922  72.1038342
  11.5667272  40.2179098  71.7721033   3.9187479   7.4817538  41.5863085
   3.3007890   8.1970179  41.7371559   3.4377086   6.8610638  41.0389709
  31.3082433 108.6765003  35.4747033  31.2837911 108.9839458  36.3808560
  32.2402668 108.5770702  35.2805853  14.9124908   5.6139374  27.7872443
  15.4873681   5.2909034  28.4810710  15.4888368   6.1207718  27.2152519
 115.8340645  28.3797526  32.6703453 116.5642548  27.7765250  32.5319076
 116.0382652  28.8173175  33.4968257  67.9404354  80.3388977  50.8218575
  68.5646915  79.7354841  51.2248755  67.9773283  80.1331329  49.8877668
  80.4841423 108.6851120  92.8787231  80.9980965 109.0863705  93.5794926
  80.2859974 109.4077492  92.2831154  71.4539719  93.3916283  85.6702614
  71.3891983  92.4368763  85.6923389  71.0115099  93.6802292  86.4684963
  92.5472355  81.8189049  27.6992536  92.5103664  82.6150990  28.2293010
  92.8600407  81.1442375  28.3019161 107.2960567  40.3175306  60.9994745
 106.3953972  40.0924397  60.7662773 107.8104973  39.5565414  60.7302523
  17.5347853  20.5584359  50.1155090  18.2956803  21.1378050  50.1555204
  17.1500087  20.6076288  50.9905863  94.8787975  98.1986809  48.9749575
  95.4416561  98.7739754  49.4930840  94.2089748  98.7799168  48.6147642
  15.0371778   8.0693907  59.6537304  14.6211016   7.2108293  59.7310877
  14.3124223   8.6729270  59.4903183 113.8284016   3.7608078  33.1417847
 113.7111187   4.2520094  33.9549255 113.8185501   4.4279265  32.4554276
   4.7440237   1.5138458  40.2557468   4.2644089   1.9828120  40.9385920
   5.2005059   2.2002448  39.7692180  71.2258244 104.9194336  90.1413250
  72.0596409 104.6177483  90.5018425  70.5620718 104.4706917  90.6650639
  89.9033737 104.4274330  72.8292322  89.3706322 104.7306824  73.5644007
  90.8010101 104.6500874  73.0760145  67.3943472  96.0626698  62.2128963
  67.6713467  96.0902596  61.2970686  67.8424931  95.2986526  62.5757551
   6.2132269  37.5975418  44.9066019   6.1807042  37.6069522  43.9500046
   6.3859355  38.5072017  45.1493454  97.6490784  98.8785648  66.1552763
  97.4455738  98.0648994  65.6939983  97.2505951  99.5640182  65.6189919
 107.6945972 102.4069500  69.8918819 107.2778606 101.9387436  69.1684580
 106.9692421 102.6598454  70.4629660  84.7390079 105.8973980  41.1053610
  83.9616299 106.4037323  41.3410521  85.2680206 105.8855247  41.9030094
  83.7590408  82.4599743  84.8971081  84.1372490  83.2805920  84.5812416
  83.6375427  82.5981617  85.8364582  59.6642637  82.4870682  40.8238268
  58.8078976  82.3430061  41.2264585  60.1474142  81.6781712  40.9926319
 107.0935440   8.4997815  30.4958320 106.9926262   8.1693310  31.3884950
 106.4579964   8.0009842  29.9825025  99.7259903   1.9492470  36.7516923
  99.8039341   1.7650734  35.8156180 100.6067657   1.8061620  37.0981002
  94.8371792   8.6221975  58.7802744  95.3343868   8.9988858  58.0542421
  93.9209557   8.7629366  58.5416079  62.3004007 105.0519466  64.4569731
  62.2399473 104.4546032  63.7114763  62.6096153 105.8754635  64.0795708
  53.1555367  63.1655741  13.1145477  53.9564037  63.6811161  13.2097173
  52.6695395  63.3265400  13.9233315  77.3910379 103.7891769  56.0050678
  76.7863846 103.1003571  56.2810326  78.1412792 103.6988258  56.5926075
  90.3176785  80.3005505  67.3753834  91.0122395  80.9261608  67.1693802
  89.6471119  80.8233356  67.8150082 114.0245438   7.4177319  45.3686810
 114.1589069   8.3128560  45.6800175 114.3892097   7.4146938  44.4836712
  91.7734909  90.4709053  82.5876045  91.6395092  91.4171505  82.5337505
  91.9723511  90.3092670  83.5098648  91.1045742  69.1474247  51.7911816
  90.2728081  68.9549351  51.3583565  90.9080982  69.8830128  52.3713017
  88.6343288  97.9505539  35.0717020  89.4413757  97.7049637  35.5240226
  88.2700634  98.6605740  35.6002903  75.1697111  63.7411737  68.7735939
  75.9864712  64.0564632  69.1605330  74.7866106  64.5145226  68.3595991
  95.7125854 107.8604317  50.7390118  95.3810596 106.9806099  50.9185600
  95.1613808 108.4367371  51.2684250  84.6832371  63.7274075  20.4958415
  84.4849777  62.8475714  20.8164907  83.8267708  64.1164303  20.3187490
  99.6793365  33.2537889  57.2523928  99.9492645  32.6188874  56.5888643
 100.4973412  33.6526895  57.5489902  98.3491039   3.8823226  65.0060272
  97.4217415   4.0241492  65.1960707  98.4056282   2.9575199  64.7656584
   7.1234405   4.9482039  73.6016989   6.7229038   4.0820098  73.5274649
   7.3302919   5.1944923  72.7001524  90.6722641 105.3467369  59.7487020
  90.2275181 104.9653149  60.5056381  90.6780243 106.2878323  59.9234200
 103.6803436   8.2649791  48.5637617 104.1539574   8.0985636  47.7487612
 103.3751678   9.1686428  48.4832001  88.3725834  95.4320335  76.4007568
  89.2962265  95.6769943  76.3449764  88.2328701  94.8524189  75.6519222
  17.3144603 104.0173626  62.5844383  17.9413080 103.6983204  63.2336712
  17.5917768 103.6104679  61.7636013  94.4563389 109.7334766  63.3374119
  94.9364948 110.1624393  62.6291275  94.0407372 108.9779854  62.9218006
 116.0794067  19.2341280  64.7699738 115.1931190  19.4670439  65.0465298
 116.3912010  20.0030136  64.2926598   6.8949848   2.2449920  88.6545944
   7.6892585   2.5377446  88.2077599   6.3445342   1.8899633  87.9566002
  15.3735876  18.0475271  52.7529764  14.9420333  17.5575113  52.0530653
  14.7062027  18.1302035  53.4341478  81.7195129  97.6020432  55.7602882
  81.1745548  97.8028393  56.5211678  81.0985756  97.3196411  55.0887823
  52.0721292  91.9118023  81.1402702  52.1776628  91.7475700  80.2031898
  51.9187355  91.0463428  81.5193272   6.4496928 108.3065987  53.5269976
   7.2454876 108.1750202  54.0423918   6.4366311 107.5710869  52.9145622
  80.3930187  81.3877487  59.7183895  80.2030945  81.2888145  60.6513309
  80.8538151  80.5830097  59.4811201  66.5928030  91.2883186  57.1096277
  65.7507610  90.8872223  56.8943882  66.5285873  92.1792889  56.7657089
  29.8199081  10.2686310  46.5443897  29.9803853  11.1428475  46.1891079
  29.9712515   9.6785462  45.8060598  55.2800512  80.4677963   0.8121727
  55.0648546  79.8106384   1.4740363  54.6354246  81.1626053   0.9460614
   8.8515347  12.6691282  67.2352791   8.5641277  12.5243461  68.1367588
   8.5247767  13.5419393  67.0169640 114.4998264   1.1707468  55.0776577
 113.5806751   1.3723458  54.9023199 114.9357605   2.0229155  55.0797606
  76.6510534 103.2936096  75.1515102  76.3867903 102.4653149  74.7510862
  76.0698509 103.9453411  74.7594929  63.2856035  93.2955933  70.0560904
  63.1590891  93.5860825  69.1528511  63.1154919  94.0753746  70.5845213
  13.5119605  92.0180130  72.1121740  14.0898907  92.2344398  71.3804722
  12.6422572  92.2898197  71.8189621  78.7959385  64.8446369  34.5051956
  78.1893730  65.4842234  34.1320586  78.4242392  64.6332932  35.3615856
  84.0296078   6.3138223  57.5723648  84.4032383   5.7823086  58.2753038
  84.1046524   7.2145689  57.8874159  59.4508696  94.0632153  16.2659192
  60.0209188  93.3391190  16.0071540  59.5483017  94.7072029  15.5644774
  64.1714907 105.7036400  44.6681356  63.4568310 106.1686516  45.1031780
  64.4052601 106.2629414  43.9273453  41.3379145  75.9767914  39.4721365
  41.4359999  76.4904404  40.2738714  41.1039352  75.0999737  39.7765589
  59.2324162  98.8373375  42.4808884  58.4968328  99.1735363  41.9689131
  58.8249016  98.4171772  43.2382727  62.2360086  73.4156179  38.5379887
  62.4894142  72.5038004  38.3944440  62.6680994  73.6582136  39.3569374
  95.9377098 107.7720165  35.8191013  96.0741615 108.3790779  35.0917220
  96.8076801 107.6568127  36.2013483  74.2050648  91.7715836  62.1365166
  74.8270607  91.8645477  61.4149094  74.3945265  90.9093380  62.5064564
 109.6980190  12.1571171  52.0478964 109.6498203  11.4069223  51.4553452
 110.6251526  12.3949254  52.0583057   3.4907407 105.5778027  39.7972751
   4.0476614 105.5074501  39.0219545   2.5976479 105.5451107  39.4544220
   2.8948081  22.3002505  89.5626926   2.6518053  21.9961047  88.6882401
   3.6759335  21.7932606  89.7841358  61.9536018  96.2772179  44.7791481
  61.9124126  96.8066311  43.9827394  61.3711405  96.7234993  45.3938007
 104.0750217  55.6298208  61.0574627 103.4121323  56.3100386  61.1762714
 104.8656654  55.9937096  61.4558268  94.9476719  82.8269768  68.1641769
  94.2955494  83.4801197  67.9104805  95.7890987  83.2590294  68.0173063
  24.8784041  10.1822364  56.8493080  24.2486691   9.9515259  57.5322676
  25.3090072  10.9716702  57.1773386  99.0385151  81.8415737  43.8819647
  99.0806293  81.5502167  42.9711628  99.9351883  81.7504025  44.2043018
  88.9652634  88.5260677  34.1773891  89.1213226  89.4447136  34.3964052
  89.4780636  88.3788681  33.3826542 110.5662727  41.3306856  79.2311764
 111.0772038  42.1382713  79.1764832 111.2022018  40.6335831  79.0703249
 101.0101032  30.8533645  29.9715352 100.0775433  31.0134530  29.8267984
 101.1831093  31.2149453  30.8407664  77.9016829 109.4427967  68.8460827
  77.0340204 109.0430927  68.7858200  78.0340862 109.8574924  67.9935980
  16.4922488  10.5268645  68.6408663  16.9348371  11.3637412  68.4995031
  15.5689490  10.7122564  68.4694624  80.8373070  94.3286228  48.1687450
  81.1622620  94.0783501  47.3038769  80.1931190  93.6550140  48.3867121
  45.1410723  64.8658514   4.3797243  44.7298288  65.0196457   3.5291618
  44.6358728  64.1493607   4.7639737 105.1113605 108.1359482  74.7230577
 105.4872894 107.7495670  75.5140209 104.6275902 107.4190140  74.3129253
 116.5934181  19.1973066  37.1367741 116.4226913  18.2958925  37.4097848
 116.0803413  19.7322536  37.7424288  42.0641756 106.4665508  73.9859104
  41.4262819 106.2581539  73.3033466  42.8684187 106.0313129  73.7030745
  75.1104450 104.4132137  37.4062419  75.2892971 105.0270653  36.6938996
  74.3985796 104.8201942  37.9000545  44.2786884 100.2042294  87.8507042
  44.7413969  99.5783138  87.2935963  44.5905638 101.0608387  87.5588417
  88.3677673 106.7160702  40.4119968  89.0039444 106.4079571  39.7665715
  88.7016869 106.3949680  41.2496281 112.7263546 106.5828991  58.6704969
 113.1771564 106.6159630  59.5142460 113.4262562 106.6581631  58.0218792
  70.6139421  61.7571926  52.0671749  70.7767010  61.0117435  51.4892101
  71.4403534  61.8837976  52.5332737   1.3299613  29.6691442  56.2508106
   1.0222295  28.8174653  55.9406805   2.1799189  29.4855261  56.6509199
  10.0038147   3.0327633  37.4852586  10.0621283   3.7711546  38.0915666
  10.6323147   3.2404053  36.7938066  97.4799538 103.2283783  49.0834045
  98.0379486 103.0251503  49.8341274  97.8943443 103.9889526  48.6759138
  49.1706324 111.5147877  46.6094685  49.2276430 111.7785072  45.6910849
  48.3465147 111.0315704  46.6691828  64.4190741 111.6598701  35.9443927
  64.1979074 110.7807732  36.2518239  65.3139067 111.8032837  36.2525105
 112.3347569  99.2794418  56.7139959 111.8601036  99.5276165  55.9206820
 112.1805000 100.0028133  57.3215818  92.7382851  78.6607695  36.9615340
  92.4506760  79.5186853  37.2737741  93.6939240  78.7000895  36.9994807
  10.7646263  11.4486599  75.9017515  11.0218298  12.3697710  75.9421396
  10.0840783  11.4192808  75.2292728 113.6138725   8.4154069  51.3471174
 113.4455490   7.5331241  51.6779900 113.2858849   8.4006399  50.4479837
  64.0380812  66.6884375  73.3096170  64.1984653  66.7441463  72.3675919
  63.7585020  65.7841063  73.4519053  88.6805439  70.7324409  58.8630390
  88.4267044  70.7565737  59.7856522  88.1237888  71.3888121  58.4441948
   0.7151972   0.5338027  70.5702305   0.3309523   1.4094907  70.6121922
   0.6948935   0.3076463  69.6403503  71.4943075  72.2425270  63.9799881
  71.9326067  71.9496346  63.1810284  71.9802952  73.0225468  64.2475939
  10.9043360   2.0458424  61.5965271  10.1268029   2.2166005  61.0650063
  10.7334828   1.1972889  62.0051765  81.6067410  90.9808636  60.0476074
  81.0589790  90.2379990  59.7939444  82.2195625  90.6190300  60.6877232
  75.8215332 104.8457336  96.2526512  76.0939884 103.9310837  96.3262367
  75.6008673 104.9562645  95.3278160  48.5486412 106.5530014  39.2333674
  48.3980370 105.7178116  38.7906480  47.7570009 106.6951656  39.7523332
  66.3380909  54.3306303  51.6507435  66.6424942  53.5736656  52.1513224
  67.1402884  54.7784758  51.3821554  96.4921951   3.9033321  81.2671471
  96.3601017   4.7127131  81.7607880  95.9236526   3.2647818  81.6975498
  53.4794617  96.6725826  42.3873138  53.1587791  95.8705616  42.7998066
  53.3409071  96.5321064  41.4506674  65.7286596  75.4135799  59.7233725
  65.9385252  74.6212673  60.2177620  64.8519373  75.6564522  60.0210428
  80.1139927  80.4806232  62.3783302  80.7866287  79.8631573  62.6656246
  80.4646301  81.3410091  62.6085901  36.2594366  39.6142292  89.1920948
  36.9669223  39.9848485  88.6645222  36.6981006  39.2581296  89.9647522
  64.9362326 101.8557644  53.8010454  64.5299673 101.2112045  53.2216263
  65.8766699 101.7065907  53.7032747  63.0003023 101.7707443  34.1816497
  63.3565617 101.0416222  34.6892738  62.6365280 102.3646164  34.8383212
  91.6485500  80.9723854  84.2959785  91.1943531  81.1283016  83.4679508
  91.2930202  80.1415157  84.6114159  53.4309006 104.6614742  62.5880432
  53.0273914 103.8001728  62.4804544  54.3714666 104.4847298  62.6062346
  62.9250336 106.6337490  74.2505503  63.1803799 106.8283939  73.3488035
  63.2485342 105.7461739  74.4048119 109.4059658   4.9406645  80.8747768
 109.8062420   4.1847092  81.3043594 109.2831135   5.5784452  81.5778923
  57.0963478   0.5203770  45.4077816  56.5369511   0.6733300  46.1693001
  56.8251276  -0.3369588  45.0796890 102.9102421 102.9193878  61.0618305
 102.4474621 102.3058033  60.4912281 102.3266506 103.6755753  61.1237860
 113.7300873  17.2091973  57.5831413 114.0471935  16.5518451  58.2024622
 113.4722042  16.7059326  56.8108368  89.8286438  85.4010677  67.4034739
  89.1146469  85.6340027  67.9969263  89.4108677  85.3208256  66.5460062
 113.8936996  18.0262148  23.3812976 114.2370224  18.8991559  23.5719204
 114.5179081  17.6541436  22.7582669  47.0580912  64.9517250   6.5772730
  47.4392223  64.2657280   7.1253359  46.6850901  64.4824839   5.8310086
  15.9671140   8.1218958  89.7119427  16.8842578   7.8573805  89.7834301
  15.8740306   8.8362253  90.3422642  80.7751560 106.9544315  65.8875895
  81.6963768 106.7630863  66.0635900  80.5974483 106.5265942  65.0499725
  42.7884340  46.0084581  21.3503194  42.4074745  45.4356241  22.0158768
  42.0855236  46.6194820  21.1294198   4.1306901  26.8257999  91.8327999
   4.4314009  26.3863850  91.0373688   3.5484397  27.5175977  91.5187359
  67.4619865  12.5984383  41.9088030  66.5491962  12.4655938  41.6530704
  67.5328970  13.5405040  42.0628023   7.7652508  15.2824938  49.3258047
   7.2238684  16.0680234  49.4037819   7.4972254  14.7328198  50.0621796
  43.9311647  95.2943134  27.2480059  44.6060896  95.9155178  26.9744849
  43.3303022  95.2505684  26.5041757   9.8730302  34.2320895  37.5332880
  10.7035756  33.7946534  37.3460054  10.0307882  34.7061658  38.3497405
 106.4542961   9.9922919  64.2356968 105.8262920  10.5226398  63.7452126
 105.9271049   9.5527530  64.9028587  75.1679611 100.3372765  66.6900206
  74.5124102 101.0158253  66.5286064  75.9866333 100.7134151  66.3667297
  95.8596039  57.5851965  91.9509983  94.9048615  57.6382971  91.9944572
  96.0416603  57.2638130  91.0679436  53.8495302  69.1945314  12.1938312
  54.1880846  69.6074438  12.9882598  54.0888405  69.7974062  11.4899099
  71.5248489  76.9244099   9.7171074  72.4724531  76.9920969   9.8341680
  71.2119055  77.8274775   9.7697514  37.3136950  10.7966268  59.8499393
  38.2498980  10.9123683  60.0122976  37.0238566  11.6418290  59.5066309
   9.2396003  37.0985627  72.1063995   8.6278629  36.8231249  72.7891445
  10.0953186  36.8045640  72.4187183   1.6148459   2.3608594  13.2712257
   0.8760630   2.9660985  13.3353317   1.2201773   1.4921877  13.3478665
  67.6965189  81.8884850  55.6605148  68.6357546  81.9971943  55.5113697
  67.4307966  82.6910973  56.1093235   1.7211916  14.3383825  46.6367960
   2.0345435  13.7593079  47.3315716   2.2994165  15.0999308  46.6807604
  59.9962807 108.9143085  46.4714098  60.6389999 109.0860176  47.1596336
  59.8723793 107.9653645  46.4907551 111.1080933  47.5218821  89.9034500
 111.2257576  47.7211905  90.8322525 110.6196404  48.2691479  89.5581436
 111.4846802  17.8206122  76.0340071 110.7328510  18.2094979  76.4809465
 111.1136436  17.1016479  75.5224848  58.0419922  91.3781548  22.3084354
  57.8757906  91.7872620  21.4591742  57.3351002  90.7407475  22.4096775
  38.8018346  83.8507175   1.7555523  38.7637639  83.3691216   2.5818983
  37.9798508  83.6354923   1.3148105  67.5731087 105.4483414  53.2242393
  67.0662880 106.2380981  53.4130669  67.2181225 105.1285553  52.3948097
   4.0473819  34.8402333  43.1423378   3.1971771  35.2341604  43.3377981
   4.3774319  35.3408074  42.3961973  75.4812098 101.1954689  74.0695381
  74.7183466 101.5867901  73.6439371  75.2119875 100.2980900  74.2656708
  13.4355378   9.3072879  55.8543015  14.0323997   8.6477470  55.5007553
  12.9019380   9.5733929  55.1055098 100.2679253  26.6267061  77.4695969
  99.4825554  27.1389222  77.6621056 100.2772427  26.5520310  76.5153599
 107.0047951   2.9412469  96.1331749 107.3969173   3.4176672  95.4013920
 107.7198696   2.8351822  96.7605877  54.7063875  17.1145177  52.8032112
  54.2658186  16.7026663  52.0598984  55.3525209  17.6980150  52.4053717
   4.1684020  20.8875322  74.1750526   4.7557306  21.5887403  73.8929510
   4.1453153  20.9636784  75.1289415  84.8232365  72.2087908  61.4676905
  84.2976475  71.4832783  61.1306143  85.7189465  71.9986248  61.2035513
   1.6861032  16.1784780  77.2820091   0.7543509  16.0820842  77.0850849
   2.1310879  15.7536590  76.5486956  90.3448105  95.2249908  93.9861298
  91.0638523  94.8869038  94.5198917  90.2959538  94.6246624  93.2421875
  85.5122280  85.5678272  53.8763475  84.9540806  84.9903011  53.3556175
  84.9580193  86.3230705  54.0730429 100.3458881  30.8938384  77.9715919
 101.0334587  31.3564587  78.4506130 100.2511597  30.0608087  78.4334564
  14.8924792  18.3193505  80.0350571  14.2671490  17.7186859  79.6296024
  14.6518230  19.1811275  79.6949768  61.6205120  50.8876228   9.2494220
  61.6098356  51.8447590   9.2524856  61.8253469  50.6474876  10.1530874
  27.9236603  52.9199934   6.6638881  28.3672214  52.8651333   7.5103366
  28.4806991  53.4942341   6.1383533  52.0423365   7.4512172  71.4810038
  51.9047260   6.8122792  72.1803236  51.2486839   7.3981601  70.9485245
  11.5486932  17.4106455  64.8503494  10.9999347  18.1191659  65.1866436
  12.1239090  17.1855152  65.5815649  11.4043260  11.9434035  67.0289278
  10.4933739  12.2333360  66.9805908  11.7749655  12.4389470  67.7591991
  47.7983713 100.5563450  23.9578581  48.4030724 100.0207233  23.4443569
  47.1507168  99.9347115  24.2900491  78.1637764 107.1108913  66.9251013
  78.9622498 107.2767639  66.4239502  78.3005333 106.2472820  67.3146152
 111.8857861  28.1469274  52.9531384 111.1884022  27.8064203  52.3928404
 112.5438309  28.4781337  52.3419857  19.5893288  22.9761577  57.6363897
  20.0210047  22.8741693  56.7881632  20.2659512  22.7577925  58.2772732
  88.5491562 106.4003468  93.3283043  88.5438442 105.4516602  93.4555817
  87.6390934 106.6204071  93.1293392 110.6742859  36.1171150  16.0156810
 111.4246750  35.6556201  15.6412983 110.0986958  35.4209971  16.3324594
  95.8787346  90.3830051  77.1162224  95.1385975  90.8744907  76.7600393
  96.2704659  89.9548149  76.3550186   7.5976568  21.5558457  49.7051334
   7.9915541  22.2290277  49.1502428   8.0555415  20.7500648  49.4657755
  65.1219225  10.0174141  55.2048588  64.6328545  10.8098686  55.4263544
  64.5466185   9.5401776  54.6069431  21.9086838  58.0992651  14.4889128
  22.2053719  57.6735783  13.6845493  20.9539890  58.1030035  14.4198179
   3.1706315  45.4739475  95.4928589   2.8179231  44.8474121  96.1247444
   2.7733099  46.3098431  95.7370853  12.1734893  30.9806442  70.9048510
  12.6948011  31.6135645  70.4110098  11.6379237  30.5431533  70.2430296
 107.7131081  18.3697045  43.6035204 107.5564289  18.6026800  44.5186186
 108.6655617  18.3909297  43.5106659  70.7498646 102.4337101  73.2817507
  71.2418270 101.6364098  73.4780264  70.1766014 102.5539017  74.0388203
 116.7443466  11.9692802  20.0119281 116.7945576  12.4566627  19.1896343
 117.2165680  12.5134504  20.6421065  74.3246365 110.1096344  66.3193846
  74.6688175 110.7951069  66.8920088  74.7569656 109.3092632  66.6172647
  30.9330368  52.7879047   6.8558228  31.6402793  53.4275341   6.7726535
  30.6558108  52.8548193   7.7695519  24.2511034  31.9028974  25.1457810
  23.9564276  31.0399961  25.4369903  23.5358381  32.2284079  24.5992732
  65.0417328  96.9717789  51.8596601  64.3940878  96.2739944  51.7602587
  65.7492685  96.7286968  51.2625551  75.2877140  91.3979912  57.8010321
  76.1089563  91.1277294  57.3902464  75.5580187  91.9289780  58.5501766
   3.9362288  31.0085130  61.7203188   3.8144577  31.9495320  61.5942812
   3.1767562  30.6097174  61.2955904  14.0387297   5.5476815  59.5760012
  13.4987032   4.9116668  59.1068649  13.7577450   5.4739761  60.4880571
  38.2077551  70.4528332   7.5189471  37.4486446  70.0740957   7.0756197
  38.7392616  70.8197880   6.8124932  18.0279040   6.2426829  77.5113249
  17.3591530   5.5655974  77.4085712  18.6910081   6.0257941  76.8559742
  11.8943429  58.5928631  61.9851589  11.6218114  58.0087471  61.2775135
  11.2445438  59.2956877  61.9792557  47.0468187  18.0508518  43.1900215
  47.6616335  18.7836421  43.2253647  47.2703266  17.5894547  42.3816967
  71.7094374   4.0066341  69.0408230  72.4087477   3.5740545  69.5307970
  70.9051275   3.7420660  69.4872761  57.1249294  21.1793852  44.5708895
  57.9429102  21.5980721  44.3028498  56.4430904  21.8013692  44.3169928
  86.1005974  91.9022942  82.8867340  86.8925381  91.6758728  82.3991013
  85.3827953  91.6859245  82.2916126  17.6492798  21.2166810  71.4871836
  16.8796659  20.6645513  71.6253138  17.5746465  21.5086484  70.5786610
  15.9946370  13.2884026  39.2073703  15.6632972  14.1200006  39.5463228
  16.9134700  13.2697260  39.4750071  30.2893424  23.1412196  88.0497074
  30.0445819  22.9190683  88.9480305  29.8101592  23.9486766  87.8636169
 107.6679802  28.3346009  71.9293547 107.9823875  29.0663075  72.4603748
 108.2962322  27.6315451  72.0943975  71.7973948  91.6522121  35.2948833
  71.8651915  91.8783092  36.2225223  72.6739931  91.8113327  34.9448919
  70.4698610 108.8751698  18.4349930  71.3627481 109.1572952  18.2365143
  70.5707932 107.9907894  18.7870133   8.0991304  31.0842705  64.7258663
   7.5465345  30.4964685  65.2409935   7.9702425  30.8019352  63.8203812
  10.1605976  30.0899124  35.1057220  10.2060413  29.3790078  34.4663620
   9.4260293  30.6290889  34.8125815 105.4008389  15.5818009  45.8814621
 105.4081535  16.1304009  45.0971079 105.8072758  14.7609818  45.6034470
   6.9373357  17.2982216  24.6275449   6.4898705  17.8222823  23.9631915
   7.5880027  16.7953253  24.1376901  91.7037296  99.0057945  43.9013863
  92.6585102  99.0522766  43.9509487  91.4317894  98.7270737  44.7758007
 111.0298061  15.3690910  81.4819717 110.7928467  15.7411385  80.6324673
 111.8561935  14.9134064  81.3217735  28.5219216  11.6797602  64.7893047
  28.5754991  10.8514035  65.2659464  27.6702380  11.6506147  64.3533945
 112.8989506  63.5797644  66.9592333 113.0631638  63.9976072  66.1138535
 113.3003807  64.1677570  67.5990295  39.7947741  86.7426872   0.9528250
  39.7247314  86.3364506   0.0889423  39.3359947  86.1404991   1.5385875
  31.2683201   5.0469601  69.7007036  30.9277177   5.9145457  69.9186850
  30.5187511   4.5817652  69.3292570   9.8018920  15.8335543  57.1056843
   9.9984431  16.0274446  58.0222034   8.8963628  16.1209857  56.9889307
  23.7035275  11.7670190  60.7925510  24.3018079  12.3580861  60.3354597
  24.1945457  10.9500647  60.8803940  93.0511379  25.7541728  88.2173538
  92.2969055  26.1696696  87.7993584  93.2210159  24.9762845  87.6860714
   3.6438906   2.4895556  24.4905448   3.5957512   2.9729795  23.6657929
   2.7819416   2.0831543  24.5806193  98.9577293  12.7940857  24.7775292
  99.3853951  12.6421380  23.9347720  98.4242725  12.0121574  24.9198365
 111.5923309  29.9184990  90.2442265 111.9028568  29.1382074  90.7035160
 112.0712948  29.9151182  89.4154835  77.3552465 101.4259434  63.2600641
  77.6762152 100.5802727  63.5732031  78.0256510 102.0524216  63.5326433
  19.5570087  19.8570526  58.6074209  19.3027425  20.6981230  58.9871311
  19.7211134  20.0507426  57.6845026  78.8948250 103.2737350  65.2046394
  79.4793558 103.7491798  65.7949829  78.6995029 103.8986588  64.5063877
 104.1357422  11.3573527  63.8872004 103.5790062  11.8190181  64.5142126
 103.5265064  10.8359194  63.3645391 116.1397648  97.3799038  36.9412470
 115.3222942  97.6682091  36.5352201 116.4331913  96.6495514  36.3965249
  10.4519320  65.0252438  45.8894205   9.5502013  65.3419733  45.9422874
  10.3845179  64.1852570  45.4354239   3.4758592  10.1986754  35.1910019
   3.9919323   9.4098014  35.0249338   3.5994104  10.3737295  36.1239123
  21.0616064  36.9099832  83.2579422  21.3643479  36.1888003  82.7061558
  20.2989841  36.5570545  83.7162876  18.8287771  68.8574314  79.8342514
  18.9474821  69.4071150  79.0596628  18.4391534  68.0504322  79.4978333
  20.0423098   9.5971715  83.4905243  20.2273178  10.2302122  82.7967930
  19.1414225   9.3184358  83.3263969   4.5028943  21.7391682  79.7438669
   4.5472631  21.9166851  80.6834126   4.1715336  22.5519204  79.3619442
  80.4733276  77.8654575  81.2388802  80.1744556  78.7661123  81.1134434
  79.8304987  77.4805593  81.8345737  32.9394650  47.6728201  69.1104269
  32.0359135  47.3962355  68.9576960  33.1086469  48.3246517  68.4301853
  19.6975887  34.1692090  55.8803034  19.5307541  34.1603565  54.9377966
  20.5495667  33.7436891  55.9767342  69.3214130   4.9324772  37.5135517
  69.2672634   5.8390743  37.8158450  68.8318920   4.4325554  38.1667614
   8.4314215  27.9429722  60.4119158   8.4240329  28.8915467  60.2839136
   8.8809872  27.6005316  59.6393490 112.0149040   7.2540116  35.8147764
 111.9536114   7.4046010  36.7580676 111.1230278   7.3849809  35.4928684
  69.9978352  88.5598087  38.9376068  69.3217039  88.0246353  39.3531394
  70.5042171  88.9154720  39.6678925  39.5853043  19.0325165   3.8214284
  39.9621320  18.2013726   4.1102785  38.6738110  18.8239503   3.6167052
   8.7795168  21.3637924  55.8549833   8.3513319  22.1444225  55.5035448
   8.9132500  21.5608406  56.7820835  15.4499054  12.8325152  47.2160387
  15.0157022  12.6713061  46.3783550  15.5627847  11.9624066  47.5986624
  84.6033478  83.6869240  48.3248901  85.4237747  83.5046864  48.7830591
  84.5779800  83.0455494  47.6148033  54.6697569  99.3244553  50.2385998
  54.3126583  98.4364414  50.2264786  53.9122438  99.8849487  50.4066753
  45.2601099  39.4573331  71.5170193  44.8328686  39.1322899  72.3095131
  45.2505875  40.4096413  71.6131878  76.5975094 104.3298340  44.1176224
  75.9010792 103.8179398  43.7063169  77.2493887 104.4462013  43.4264278
  36.4691615  34.9990582  91.3287926  36.9094062  34.1551471  91.2276459
  36.4707422  35.1584196  92.2726345 105.9454250  18.9685774  94.6164322
 106.6038036  18.3838522  94.2411137 106.3689518  19.3411601  95.3897572
  69.6297073  78.6098433  71.1780071  70.3173351  77.9879761  70.9399271
  69.3376350  78.3241510  72.0436287  77.9205322  98.9364052  74.6119642
  77.1415758  99.4427490  74.3815947  78.4823084  98.9963150  73.8392735
  18.4036660  27.8602648  64.0654039  18.3330274  27.6519561  64.9969864
  17.7051377  27.3523140  63.6527586   7.2670305  16.3654017  56.1193800
   6.9966805  17.0426965  55.4993677   6.7852354  16.5685523  56.9211483
  56.0943556  92.7322769  37.5096154  56.5573359  92.2276688  38.1783795
  55.2169132  92.8596210  37.8703284 116.1374569  13.0564356  82.9056454
 117.0905113  13.1217170  82.8451443 115.9794140  12.6346517  83.7502480
 110.5873489   9.7880650  69.5102119 111.2960052   9.8248625  70.1526213
 110.9292603   9.2348504  68.8078690  31.6909099  69.2990494   8.8305795
  32.6320863  69.4468880   8.9231181  31.6241312  68.4703064   8.3562827
  22.3134875  29.0811157  89.8878574  21.3901758  29.1170907  89.6379852
  22.6375961  28.2724500  89.4913197   8.7304658   2.8527287  46.8685532
   8.0187553   2.7685219  47.5030661   8.2888401   2.9606873  46.0262060
  32.1114397  42.3793554   5.1052487  31.6527963  42.1861935   5.9229070
  32.7747273  41.6928387   5.0347328 116.9942379   8.4328753  72.2508430
 117.7874660   7.9665434  71.9870901 117.2838593   9.0241951  72.9456043
  91.2233257 103.6614704  29.8310447  90.8798981 104.0601254  29.0314412
  91.9372082 103.0989838  29.5307136  31.1985326   8.5832173  81.2870312
  30.3654075   8.3189768  81.6773033  31.3747120   9.4468087  81.6604042
  56.3617754  90.6262589  63.7322474  56.3196754  90.1162910  64.5411968
  55.7572460  90.1823139  63.1375265  82.7561283 107.5498486  70.4527283
  82.5351715 107.1362877  71.2872219  81.9112682 107.6990891  70.0282574
   0.8631693  89.0950680  56.3669825   0.3570162  89.5287323  55.6799793
   1.6537844  89.6275520  56.4543343  94.7399902 107.8619671  88.0184746
  95.5622959 107.4165821  87.8143120  94.5769501 108.4231758  87.2603893
  10.7096577  76.6836548  19.9664557  11.5071380  76.2421608  20.2585840
  10.0235081  76.3434696  20.5406547 105.9106827 101.9058132  21.0290504
 105.3266144 101.7245579  21.7654228 106.7611885 102.0755482  21.4340901
 114.5473385  94.1743279  92.9272461 113.8464546  93.8110542  92.3859119
 114.1432285  94.9174118  93.3753014  56.9858122  32.2008133  65.2692270
  57.6152420  32.8723454  65.0063705  56.1436224  32.5231385  64.9482012
 108.2856846 108.1295872  39.4201207 108.4724617 109.0483665  39.6129632
 108.6880684 107.6467419  40.1420450  33.9030790  16.7497051  60.5004501
  33.4315348  16.5733790  59.6863317  33.5462403  16.1185980  61.1254311
  19.7073984  18.2799613  73.2599449  19.3276811  17.5756323  72.7346230
  19.8857331  17.8759241  74.1091728   9.1428351  15.5927563  42.5054884
   8.9438158  14.6568716  42.4782372  10.0169933  15.6630003  42.1218920
  21.2062049  21.2378335  82.8750038  20.4811525  20.6879258  82.5781250
  21.5163422  20.8138394  83.6751747 113.7962246   6.7193478  78.3832884
 113.2183456   5.9605348  78.4638500 113.2738876   7.4535602  78.7062883
  14.9829686  13.3306992  54.8460484  14.4227338  13.5612690  54.1049671
  14.4096458  12.8424084  55.4369020 111.6392517  45.4345798  65.7988214
 111.3946056  45.4043484  64.8739100 112.5296783  45.7858133  65.7996893
  92.8447437  10.5028689  53.0995464  93.3747292   9.9931931  53.7123919
  93.4813786  11.0144949  52.6003885  22.4482083  36.0105896  33.6945844
  21.6910052  36.4239883  34.1092873  22.8463531  36.7079210  33.1735849
  48.2974625  45.8365917  91.0548687  49.1673851  45.8148193  91.4536095
  48.1882906  44.9667406  90.6705952   1.0553834   7.0350349  29.3402004
   0.2901097   6.4858705  29.5105124   1.6527517   6.4685941  28.8518071
 115.0954914  90.2322292  55.5916977 115.1834583  89.8795319  56.4771891
 115.2489281  91.1717415  55.6917715  65.8433580  98.8991833  56.1345243
  65.4790068  98.2432842  56.7288971  66.0646582  98.4085178  55.3430033
 110.9850025  16.7497253  68.4716988 111.5145206  16.6480601  69.2625904
 110.1865578  17.1838057  68.7721968  72.1033478  87.9601955  47.4222136
  72.4010897  87.1737003  46.9650459  71.3163853  87.6815701  47.8905010
  19.3428683  18.5222709  65.9183216  20.1767755  18.1511366  65.6300640
  19.5598125  19.0106606  66.7124510   8.4229040  22.6577187  76.3515282
   8.3989775  23.6095071  76.2527418   8.7805313  22.5168204  77.2281599
  81.1359787 101.5109539  79.6177864  80.4811287 100.8415890  79.4194078
  80.6294155 102.2478008  79.9593687  91.3467216  86.5613842  58.0842686
  91.6884804  86.0992241  57.3188686  90.4077721  86.6412926  57.9163027
  88.2876778  98.9982510  80.6604004  87.7688217  98.3119488  81.0799313
  87.8835487  99.1119766  79.8001766  91.4577198  10.6137919  40.3878689
  91.5010834  10.5691898  39.4326925  92.2840881  11.0218823  40.6463480
  30.7251024  11.3873637  52.2024250  31.5129781  10.9311414  52.4979687
  30.1458931  10.6902218  51.8946266  80.9050846  83.3594322  25.5559325
  81.5196037  83.9575672  25.1306963  80.7387161  82.6814651  24.9010181
  34.7959733  13.3523142  16.8245494  35.1084971  12.5301230  17.2021222
  34.4479156  13.8412809  17.5702035  31.9386935   2.3882021  63.1650877
  31.6997218   2.4826509  64.0871525  31.2521386   2.8568658  62.6905060
  21.9898772  22.9062796  53.0871058  21.2639070  22.7179551  52.4923515
  22.7703142  22.8590536  52.5349140   9.4467515  18.5548210  41.1377954
  10.1162255  17.8725183  41.1877966   9.1385835  18.5220909  40.2321482
 116.2219238 104.6139145  44.1230345 115.5276108 104.1040230  43.7056923
 116.2301540 105.4433441  43.6453295 113.4468842   1.6391127  48.2977152
 114.1386127   1.3217679  48.8782597 112.6774025   1.1226932  48.5373783
 105.3485680 104.9047279   2.8319222 106.0199070 105.4804993   3.1980103
 105.6734371 104.0203381   3.0008903  10.7782125  12.6992357  46.6794348
   9.8800886  13.0095363  46.7948389  11.3091731  13.4956634  46.6835594
  50.2471352  29.7868419  26.4223695  49.9517965  30.2362871  27.2142076
  50.4796410  30.4925942  25.8189750 115.3984928  84.4941044  34.3392134
 116.0228062  84.3237305  33.6339211 115.2081013  85.4296017  34.2697573
   0.3121013  29.0351033  59.9700212  -0.6317405  29.1761374  60.0442076
   0.6178206  28.9792728  60.8753633  51.1685562  23.3564305  36.5426826
  50.9030104  24.0072155  35.8929157  51.8113279  23.8104773  37.0875883
  -0.0460264   9.5677084  30.3877544   0.5133590   8.7969166  30.2918386
   0.5640040  10.3049707  30.4109764 115.2997017  86.7238998  20.1277876
 116.0550213  86.4763737  19.5944405 114.5613384  86.2683392  19.7234190
   4.2823136  86.8884754  25.9028244   4.0876767  87.3179245  25.0698066
   5.0023794  87.3990536  26.2730217  32.0379496  21.2290859  53.7004232
  31.3982129  20.5216861  53.7813759  32.7379251  20.9896684  54.3078327
  39.4067240  18.5364795  33.5273218  39.4432259  17.7364945  33.0029893
  39.1417909  18.2402325  34.3981147  38.0950236  36.0068154  83.3791065
  38.4174204  35.9786582  84.2799377  38.8867974  36.0412383  82.8423214
  14.7911990   0.6236132  13.4866416  15.7374775   0.4852165  13.5270929
  14.4155979  -0.2436536  13.6383116  92.6080418  95.2034187   9.9726367
  93.0107498  94.9193001  10.7932091  92.6690388  96.1584377   9.9939793
  92.8359413 108.2650757  34.5433187  93.7511921 108.1965256  34.2715836
  92.5910282 107.3724842  34.7873092  33.3541775  34.4135165  67.9859591
  33.5409498  33.4877062  67.8303146  32.6275802  34.4098115  68.6090755
 106.4256096  77.6897907  65.2765846 106.2956429  76.7951012  64.9621487
 105.7064438  78.1873035  64.8873425  19.3781137  20.6736851  45.5115128
  18.4672034  20.7020664  45.8042049  19.8409200  20.2154779  46.2130070
  29.4930267  27.9367471  81.7473602  29.3005347  27.3771381  80.9950161
  30.1109457  27.4280500  82.2723675  37.8050089  27.2670984  40.8564901
  38.0993748  28.1412959  41.1121511  37.3076367  27.4079299  40.0508738
  35.2374291  12.7502537  42.4941254  35.5274391  12.6277399  43.3980703
  35.7315040  13.5095310  42.1848965 114.2718506  27.4918342  54.4855213
 114.0885735  26.5998530  54.7804976 113.4950733  27.7432323  53.9858723
  16.2173367 107.2731495  16.4197397  15.5836201 106.5875626  16.6309321
  15.7078040 107.9341412  15.9510219  91.3412476  98.0350876  46.2827539
  90.4272366  97.7509212  46.2749767  91.8150139  97.3070049  46.6848469
  85.8535767  72.8520823  76.2033367  85.8001041  71.9956446  76.6274643
  86.7781162  73.0923271  76.2644672  81.5398216  78.2227373  91.1740780
  81.9464397  79.0755129  91.3279152  81.3814163  77.8713608  92.0502472
 110.3494835  95.1483536  50.3568459 110.0051022  94.9710369  49.4815207
 110.1283073  94.3672752  50.8640099  65.9641647  29.4358325  12.3717153
  65.5135584  30.2562094  12.5721395  66.0233355  28.9833140  13.2131171
  14.5510566  24.0349174  71.6802263  15.0726843  24.6883583  71.2142324
  13.8605809  24.5407963  72.1086693  25.5259514  10.7983804  27.0632386
  24.7408009  11.2123203  27.4215961  26.1185384  11.5273619  26.8797731
  16.1330307   8.2899052  41.9830847  16.0522902   8.1932563  41.0342026
  16.3196087   7.4057686  42.2988749  23.2610321  96.4203739  64.8209763
  24.1884685  96.3861752  65.0553322  23.0293822  97.3462009  64.8945856
  82.2201729 104.4813633  80.6693935  81.6145897 103.9884472  81.2230492
  83.0874252 104.1645718  80.9218693  42.2256088  20.4277039  70.5826712
  42.9562473  19.8111272  70.5353689  41.5516853  20.0439811  70.0215912
  24.3610454  10.0110996  71.9396019  23.9085102   9.2018396  72.1773911
  23.7734103  10.7084632  72.2304678   7.7482218   7.4633116  27.8382206
   7.4127883   8.2952863  28.1721878   7.7069044   7.5532663  26.8861532
  89.8675919 105.6839848  68.5363674  89.2082024 105.7244110  67.8436947
  89.4760323 105.1249409  69.2074728  16.4994633  94.6349049  29.5883703
  16.5888345  95.0035572  30.4671979  17.3840666  94.6669197  29.2241120
 109.2233467  34.1520452  21.2229133 109.3754673  34.5939016  22.0582914
 109.1308689  34.8633432  20.5890894  21.5628672  20.7570815  23.6850119
  20.9891319  21.4146781  23.2917857  20.9977508  20.2776742  24.2908502
  51.8159294  17.3750043  56.1953402  51.4705133  18.1730711  55.7953262
  51.0381269  16.8816984  56.4559221  79.1443539  99.6227264  40.9006262
  78.5029125  98.9127541  40.8736706  79.8987436  99.2468452  41.3543224
  25.1100707  95.3310394  16.0897589  26.0083413  95.6541157  16.0193336
  25.1833487  94.5311832  16.6104198 108.5839653  36.9419193  69.1151953
 109.1882420  36.7559814  68.3965111 107.8046417  36.4242768  68.9128637
  23.8818121  17.5499630  29.5815015  23.7056398  18.2062972  28.9073944
  23.9587474  16.7264509  29.0996909  97.6505375 108.8597488  48.1453943
  97.7167892 108.1894493  47.4652958  97.9652023 108.4273720  48.9392900
  91.6883850 111.4020634  21.3338757  92.3132038 110.6826019  21.4244270
  90.8819389 111.0700130  21.7283750  14.1698074  35.8028650  37.9161477
  14.9116826  35.7138920  38.5144258  13.5289931  36.3197446  38.4044337
  75.9639597  79.7007656  65.0058079  76.1636639  79.9171782  64.0950298
  76.6994190  80.0578308  65.5036354  70.6413841 110.1070023  54.1714525
  70.0828743 110.6143665  54.7604179  70.8644342 110.7169437  53.4682798
  21.5478301 106.1014652  24.4072914  21.4516068 106.7453766  23.7056088
  22.4263477 105.7420635  24.2837381   2.2506028  34.3711448  67.1318436
   1.4449212  34.1199493  66.6801691   1.9538333  34.7389674  67.9642296
  33.6862135  26.9900727  52.6249695  32.8506374  27.3379946  52.9364157
  33.4739494  26.5653706  51.7938232  15.8092487  14.8400521  45.0988817
  16.2576032  14.3610215  44.4019318  15.9449995  14.3064845  45.8818960
  93.0185127  67.0959568  44.2169762  93.7186146  67.2877264  43.5930347
  92.3255730  67.7190876  43.9984083 113.0834103  26.7314816  26.4055681
 112.6845264  26.8406963  25.5423164 112.7524090  25.8892512  26.7175341
  94.9548340 109.3388367  31.9738984  95.4372025 109.7757149  31.2719798
  95.5814934 109.2809582  32.6951361 115.1829624  54.1008759  81.6769981
 115.1452732  53.2130671  82.0328140 114.2665100  54.3631601  81.5900421
  92.1110941 111.3275306  87.3458767  91.5987301 110.8488144  86.6942978
  91.7957676 110.9983311  88.1875515   6.3564694  60.2854013  79.1257238
   5.5386329  60.0551510  79.5665884   6.6020000  59.4933891  78.6475325
  24.6157956  16.8100572  77.5825930  24.5009494  16.9204021  78.5264492
  23.8594270  16.2915063  77.3082876   1.7189378  16.0392594  41.0436535
   1.8436217  16.7723489  40.4409361   1.7630674  16.4347553  41.9142056
   8.7270564  24.1528273  30.4667807   8.8510668  24.0444613  31.4097071
   7.8316832  23.8544297  30.3071070  15.0512111   1.9184951  36.9074345
  14.2178392   2.2032070  36.5323853  14.8886585   1.8789703  37.8499031
 103.3822632 106.8725300  31.3102317 103.6125851 107.1372509  30.4196668
 102.8692436 106.0723686  31.1971402   4.0970287  26.9549322  62.2602415
   4.9046600  26.9390678  62.7737713   3.5088372  26.3561368  62.7203560
  23.5441613  42.5855255  58.9944267  23.4233546  43.1927633  58.2644272
  23.2474422  43.0728769  59.7629833  77.4589062  90.2359486  34.9728012
  76.7185688  89.6635532  35.1740479  78.0564499  89.6856117  34.4665408
 100.3551006  98.3864975  75.6400871 101.1717415  98.2380009  76.1168194
 100.6001472  98.3160019  74.7174740 116.9079922  26.4446521  62.9447508
 117.5432914  27.1317339  63.1461143 116.1596588  26.9117904  62.5732517
  10.1917362  24.6590495  72.1768665   9.4807190  25.2784324  72.3413420
  10.0542355  24.3706656  71.2745619  21.0061407  13.0455565  53.8083744
  20.5463672  13.2475603  54.6232605  20.5936646  12.2411406  53.4937143
  89.3685818  96.4372826  89.0635014  88.8988972  97.1035099  89.5652771
  89.9566841  96.9353485  88.4957886 101.6422081 100.9171963  48.8873482
 102.3982430 100.4971600  48.4772062 102.0141411 101.6425419  49.3891096
 113.6309814  56.3089657  61.0180473 113.1447506  55.9877157  60.2586985
 113.1041241  57.0360518  61.3497210  28.6852527  26.7687559  61.4053011
  27.8125048  26.4543104  61.1693573  28.7043643  26.7273974  62.3614120
 115.8388615 109.1333199   5.7675779 115.8897877 108.4615898   6.4475930
 116.4583588 109.8065376   6.0490561  33.6586213  31.2149239  24.1687322
  34.4047594  31.0581517  23.5899997  33.2408643  31.9995785  23.8137245
   5.1110691  89.4113827  59.9140692   5.6323403  89.7896767  59.2059708
   4.3921432  88.9627838  59.4689465  25.0090218   1.5294749  63.6792564
  24.1492295   1.4578319  63.2647038  25.4846478   2.1588014  63.1370783
 111.5811062  11.6611350  55.8503103 111.2253857  11.6673911  56.7389297
 110.9106064  12.0928109  55.3208637  81.0305786  92.8620815  45.7296658
  81.0264587  92.9609108  44.7775888  80.6464672  91.9987679  45.8825159
  23.9394474   9.9885833  45.4629755  23.2018900  10.5265939  45.1752567
  24.5883083  10.6191015  45.7754803  51.7040205  81.2555504  11.1986148
  52.1498489  80.5911827  10.6731832  52.0583105  82.0872402  10.8839476
   7.5918120   1.8830721  52.7745867   6.7240942   2.2654328  52.6438236
   8.1880277   2.4834691  52.3270559  14.1771281  13.8113356  67.9911375
  14.5304132  14.6986151  67.9266644  14.0665853  13.5309470  67.0826292
  26.5775847  18.6603022  66.8311548  27.3480868  18.8273907  66.2883520
  26.5890622  19.3593085  67.4849844 103.9654732   8.7567472  83.5682487
 104.7176743   8.9934331  83.0256557 104.0604210   7.8151262  83.7116528
  29.9896288  16.3073146  64.1437817  29.0347648  16.3520205  64.1934538
  30.2269578  15.5922258  64.7341633 103.6688614  97.4411488  41.2510586
 103.4717846  96.5129948  41.1248493 104.2480183  97.4615860  42.0128918
  35.2637553  36.0118842  67.2090054  34.3618417  35.7043862  67.2997093
  35.7422495  35.5587792  67.9032469  43.9606285  43.6198378  61.5420771
  44.5015574  42.8358984  61.6372585  43.4844303  43.6842155  62.3699188
  12.3946369  40.7841778  35.1267910  12.0342696  41.4574575  34.5496726
  11.7157936  40.6466293  35.7874608  82.8037071 109.3231487  63.6178875
  83.4786034 109.1643715  64.2778444  83.2912922 109.5582581  62.8284454
  26.9795656  21.5235496  76.4871407  26.7014623  22.4048114  76.7366743
  26.5465713  20.9481883  77.1177816  17.9335988  12.0386946  65.5753994
  17.3023760  12.6878250  65.2648830  17.8982234  12.1074963  66.5294647
  13.5834777   7.5403881  74.2838669  14.1092193   7.2971207  73.5218668
  13.7546515   6.8491614  74.9235058  94.4203663 103.8109303  36.7790604
  94.3188095 103.1903648  37.5007439  95.0428581 103.3894348  36.1865449
  89.0657139  94.9853516  38.2953882  89.2509651  94.5057201  39.1027713
  89.3928051  95.8694458  38.4615779  22.0415306  36.8822145  91.7775059
  22.5739384  37.2997785  92.4545765  22.6619291  36.3503218  91.2790871
  17.6476216 102.6617336  49.6074820  16.7561817 102.4208641  49.3553972
  17.5488830 103.4928513  50.0719500 118.1424522  43.9936590  41.2278557
 118.4980583  43.2767534  41.7530394 117.5423717  44.4486523  41.8187237
 117.0911121  85.5161190  42.6660013 117.4507141  84.6946239  43.0007648
 117.3203564  85.5168343  41.7366552  78.6121750  75.9180641   0.7540733
  77.9508114  76.2102270   1.3813469  79.1386175  75.2828741   1.2394857
   7.5180995  90.2213001  22.0460939   6.6977978  90.5229282  22.4364233
   8.1053478  90.9744072  22.1109152  43.2806301   1.8959413  48.3834124
  42.9204130   1.0863718  48.7454510  43.8718748   1.6054863  47.6889372
  90.4592323  99.5103645  41.6333866  89.7354412  98.9121246  41.8190384
  91.1889935  99.1716099  42.1519661  22.3826265  32.9158330  43.3230782
  22.7397227  32.2348499  42.7530098  23.1442022  33.2631302  43.7874269
  35.0863862  33.9563990  62.6089048  34.2513037  34.0552163  62.1516228
  35.0069809  33.1243873  63.0754709 105.9460354 102.3551941  64.1700363
 106.6256809 102.9426479  63.8395548 106.1527920 102.2480488  65.0984764
  25.6687593   7.2580671  31.9598246  24.8858666   7.6458257  31.5687346
  26.1336923   6.8621129  31.2227440  65.4980564  14.7999835  31.2495947
  65.6995392  14.0121448  31.7545199  66.2566805  15.3688431  31.3804269
  37.4110866  23.0723310  54.3873310  37.2611761  22.2508264  54.8551893
  36.7342925  23.0895352  53.7106609  54.6106482 107.8077984  33.3461285
  53.7897253 108.2838631  33.2209039  55.1555490 108.4016609  33.8625002
  24.2378139  18.6328793  86.4965916  23.7337470  18.4447610  85.7049084
  25.0767779  18.1939125  86.3563061   2.7443358  95.2978039  46.6403770
   3.4252927  95.2752209  45.9680510   3.1946552  95.6050873  47.4271536
  23.1113720  22.3358297  40.7841301  23.6378813  22.4586082  39.9942255
  23.6343622  22.7272034  41.4837980  56.1902714  95.3752232  36.0435700
  56.2490463  94.5662403  36.5518260  57.0478010  95.4589462  35.6265974
  36.4195704  29.9414277  42.5649548  35.5309391  29.6431398  42.3710775
  36.5341401  30.7214880  42.0221758 106.7206478 105.8347130  29.4183397
 105.7696915 105.9175110  29.3472552 106.8677235 104.9052143  29.5933533
  92.5697231 105.2344513  64.2719412  92.3340893 106.1606216  64.2178965
  91.7328453 104.7795105  64.3662739  74.7056580 109.3537617  62.8518486
  75.1996279 109.6293831  62.0796728  75.3744698 109.0726089  63.4762478
  80.1925755  19.9427950   8.0074942  79.4963169  20.4364395   8.4408212
  80.5453968  19.3747830   8.6924100  79.0957785 104.5596981  68.0491447
  78.2254887 104.3106842  68.3603096  79.5960712 104.7293186  68.8473749
 105.3863144 108.8766384  51.7682648 106.1321545 109.1295719  51.2242270
 105.7088852 108.1420708  52.2903728 104.1405392  93.9571667  78.6307478
 103.4568787  94.2214203  79.2463875 104.0822697  94.5953465  77.9197168
  30.0974536  97.0708084  51.5164900  29.2275882  96.7554188  51.2713480
  30.6115746  96.2747669  51.6515303 113.3555508   1.4299384  39.8835444
 112.7298546   1.9511314  39.3804693 113.7614536   0.8529145  39.2366147
   1.7210376   0.3623015  36.1833405   2.2091667   0.6716072  35.4202604
   1.8066916  -0.5905545  36.1523438  69.3031693 111.2178230  68.8304520
  69.7147274 111.1864090  67.9668140  70.0163126 111.0356236  69.4423819
  25.8915615 101.8882370  62.6630211  25.9533668 101.6827679  61.7301798
  26.7906666 101.8180180  62.9838228 117.1451473  28.7288737  51.5513849
 117.7830887  29.2575407  51.0720396 117.0396519  29.1813326  52.3882723
  80.2777481   7.3343104  39.1550231  79.7769642   6.5471935  39.3692517
  80.3447437   7.3230892  38.2002378  77.4616718 102.0420647  10.9477830
  76.5883303 101.7940807  11.2511170  77.9399633 101.2147522  10.8927274
 116.4175510  12.3165464  58.2052135 116.6122723  12.9694068  57.5328350
 115.4735184  12.3908281  58.3449078  44.1403008  21.8191171  43.2661200
  43.6503077  22.6249790  43.4295940  44.9058390  22.1016073  42.7657413
  12.4438143  20.9809971  86.6579914  12.3386168  20.2131295  87.2197247
  11.5505481  21.2234974  86.4140701  30.1063895  13.9336979  65.9220123
  30.2376866  13.6489236  66.8263912  29.6781540  13.1907415  65.4967356
 112.8065681  22.7319455  39.1913009 112.3488331  23.5409832  39.4197011
 113.6592197  22.8101754  39.6192098  74.7809112  90.5133753   0.2117032
  75.4960549  91.0909491  -0.0551539  74.3159354  91.0049706   0.8887262
  18.0863321   7.6811147  79.9384022  18.0021000   7.2509575  79.0874577
  17.4132788   7.2711480  80.4816818   9.6139145  10.5153716  45.1375723
  10.2444160   9.8801327  44.7981977  10.0329459  10.8743083  45.9197521
   4.6759537  21.0794187  38.0223513   4.4599161  22.0108080  38.0679059
   3.8324964  20.6435919  37.9004264 114.0751266  46.6089964  40.5849028
 113.6283493  47.2746944  41.1078405 113.4388638  45.8980274  40.5079508
  13.4148633  28.5203505  54.5957899  14.3413937  28.5972881  54.8235035
  13.3828413  27.8044844  53.9611673  28.5507441   5.4558015  49.0776491
  28.0819511   4.6275324  49.1797924  27.9299903   6.0283643  48.6270189
  61.0418749  20.4069996  45.2864742  60.9823799  21.3622475  45.3003693
  60.7153606  20.1592469  44.4214630  27.8753567  23.0730128  28.6996865
  28.6449122  23.0470324  28.1310582  27.5551200  23.9722323  28.6283922
  17.0894086  64.7878790  48.0289698  17.0333338  64.6994305  47.0775175
  16.3613856  65.3651285  48.2591772  56.2326384  17.5555825   0.8708477
  56.0798693  16.8974185   0.1928259  55.3922081  18.0044580   0.9626102
  35.5856705  29.1576099  31.1305404  36.3855362  28.6331034  31.0939384
  35.8723950  30.0465608  30.9212828  41.6723108  12.0552373  48.7134266
  42.6209402  12.0163798  48.5916805  41.3758564  11.1558998  48.5736418
  34.7387695  15.7626009  72.8002882  35.0881958  15.1040089  73.4006119
  35.5085421  16.2467360  72.5014639  37.4290061  25.8660722  28.6332822
  37.5003695  25.4423952  27.7779245  38.2653260  25.6833935  29.0615702
  37.4319577   0.3494786  41.2884665  36.6341591   0.2056193  41.7974377
  37.1200991   0.6385759  40.4309130  18.0102384  67.2460699  24.9810553
  18.6091208  67.2529364  24.2343807  18.4897542  66.7837000  25.6684494
  38.6073971  20.4709983  56.7605066  38.9165187  19.8396146  57.4101448
  39.1444421  20.3008103  55.9866524  35.6032300  22.0892954  66.6790438
  35.0442481  22.8394485  66.8816233  35.3101492  21.7984939  65.8154631
  38.2981968  28.2812357  80.7292366  38.7391138  29.0484285  80.3642178
  38.6291814  27.5464439  80.2127361  19.5112586   0.8888698  36.1086130
  18.6544085   0.7403810  36.5086007  20.1362824   0.7337969  36.8167996
   2.3337089  26.0124159  44.6470642   2.5778559  25.0896597  44.7187948
   1.8983915  26.2101507  45.4763031  98.8620949  39.1935802  36.4957881
  98.0145550  39.6327066  36.4245391  99.1121578  39.0072918  35.5908036
  53.9665413  35.1119685  46.1287355  53.1874657  35.5088091  45.7391262
  54.3988466  34.6671939  45.3996801  41.4479208  27.6469231  11.8810809
  41.6054392  27.3136473  12.7644527  42.1119165  28.3255076  11.7591631
  36.0262084  12.7613819  45.1074696  36.6918111  12.7639282  45.7953644
  35.3049135  13.2755685  45.4702044  21.3989592 110.6915855  51.6165733
  20.8604383 111.2282848  52.1981001  21.1538029 109.7905350  51.8269110
  68.6355877   6.9574291  57.9544926  67.8097820   6.4742613  57.9257011
  68.5224581   7.6632142  57.3178625  62.9112196  17.1511269  54.8767853
  63.8482475  17.1651816  55.0717592  62.7483892  17.9785073  54.4238377
  47.8045082  46.3074160  50.7258129  46.9386005  46.5401793  50.3907681
  47.6278162  45.7038069  51.4473867  70.2340508   7.6842099  16.7668784
  70.4909277   8.2116115  16.0105097  71.0595465   7.4725425  17.2027469
  20.9152412   4.5234457  25.4773402  21.5406609   3.9871645  25.9646654
  21.4146590   5.2977866  25.2180886  40.6111526  16.0960567  83.3358860
  40.0057650  15.3824508  83.1346321  40.9709787  16.3516140  82.4865055
  59.2495632  13.5481369  57.9608202  58.3752537  13.7264812  57.6144028
  59.7255135  13.1648433  57.2240782  21.1580849  87.8904057  36.9869018
  21.6698551  88.6977386  37.0372891  20.3321195  88.1552792  36.5821099
  35.4550600  49.1941023  71.1117697  35.4563165  48.5139322  70.4382706
  36.3807178  49.3918467  71.2542009  30.1029229  50.2220535  32.5714087
  30.0240541  51.1679363  32.6952076  29.4027567  49.8510170  33.1083727
  94.1422272  98.2817173  53.1774664  93.9492893  98.4915733  54.0912342
  93.5741043  98.8638592  52.6729155  40.3278065  60.7618999  40.5072737
  39.5659494  60.2729797  40.8183384  40.2263880  60.7834339  39.5557022
  30.2632833  28.3592796  56.0316372  29.6100378  27.6699114  56.1511087
  30.8667779  28.2472658  56.7661333  16.7575490  52.5684547  64.7251225
  16.5463197  51.7713690  65.2111959  16.4841175  53.2809067  65.3029442
  24.7942090  16.5949035  64.2718601  25.6377053  16.1428761  64.2922401
  24.2211771  16.0104203  63.7756300  40.6753016   6.8691880  24.1132092
  40.3803825   7.6630038  23.6669898  41.6229534   6.8569481  23.9788890
  47.9432106  49.4216681  38.8792920  48.5179329  50.0917149  38.5092092
  48.5405064  48.7674618  39.2419028   2.4374759  97.1560001  28.0981326
   3.2079563  97.6854706  27.8925967   1.7689934  97.7933216  28.3494782
  53.1809378  30.7913566  14.6706164  52.5320911  31.4658570  14.4699168
  53.0893230  30.1528859  13.9633715  32.8273392  33.2112670  22.6921082
  32.1112037  32.7292085  22.2785878  32.4052024  33.7203693  23.3840966
  12.3289573  33.7770057  40.2892065  11.4401245  34.1304278  40.2531242
  12.7139306  34.1761589  41.0694027  10.0098515  17.3283744  59.6414709
  10.0835049  17.1010339  60.5683565   9.0849608  17.5431466  59.5202971
 109.8117256   4.2488065  69.0727663 110.4606819   3.6749566  68.6655903
 109.3490696   3.6851484  69.6928167   7.9756469  41.0324001  24.6608114
   8.3091515  41.1460018  23.7708092   8.2989341  40.1725340  24.9297953
  20.0039959  19.3965638  70.8027887  19.8781824  18.9087558  71.6166973
  19.2798412  20.0222492  70.7841682  33.2762957   2.9243419  41.2203693
  33.9060450   2.4599560  41.7717266  32.4418759   2.8325614  41.6803122
 114.9948215  91.1804390  23.4390330 114.9733448  90.2254105  23.4997487
 115.5344296  91.3594055  22.6689553  12.7668190   6.7649609  16.3174450
  13.4715533   7.4099225  16.2574065  12.2153056   6.9411665  15.5552006
  21.8513370  32.5775576  39.0771770  21.7844129  33.5101390  38.8721395
  22.5562334  32.2584224  38.5137010  21.4841104  17.3372924  64.4191837
  22.0531535  18.0645573  64.1671753  21.6661572  16.6555107  63.7724495
  42.1873093  10.1003885  29.4885087  42.5676823   9.6720570  30.2553725
  41.2435341   9.9752313  29.5877695  22.9069185 108.4433937  57.4924040
  22.7313948 107.5047588  57.4261284  23.8227510 108.4970951  57.7655363
  31.9341779  72.1874666  46.8471813  31.1908078  71.5858221  46.8878555
  32.6679277  71.6859627  47.2026205 116.3999271 100.1331139   7.7074265
 117.0714378 100.2309608   7.0323557 116.7953682  99.5506763   8.3559811
   0.4073280  97.7120399  30.7536983   0.7389092  96.8149185  30.7155395
   0.9726718  98.1494713  31.3903117  26.8915701  46.1015558  30.2231097
  27.3879933  45.5653000  30.8413529  26.0755253  46.3020849  30.6814718
  38.9893079  43.0744648  19.8518610  38.3900118  42.8859901  19.1296744
  39.7385120  43.5012722  19.4362116  38.1810713   8.8809377  45.9231043
  38.9461637   9.4129658  45.7044458  37.9871178   9.1031861  46.8337154
  40.1745749  34.9144173  36.6936898  40.9478569  34.5655990  36.2503028
  39.7458529  34.1449785  37.0683813  19.4045365  30.4711957  96.4763825
  19.1570961  30.7616753  95.5985326  19.8314249  29.6257920  96.3374666
   0.9089188 107.2216511  44.5573044   1.5177634 107.0189476  43.8470554
   0.0450136 107.2000980  44.1456795  42.0646143  29.2280364  34.3648648
  42.3720407  29.9417949  34.9236751  41.1540222  29.0934682  34.6274400
  34.3728709  39.1718602  26.5995693  35.0216198  38.4776378  26.7153859
  34.8916340  39.9600625  26.4387822  33.8087273  24.8202181  25.6022525
  33.3604908  24.1375685  26.1015558  33.9999247  24.4126606  24.7575188
   9.9863690  17.1568573  33.0572033   9.2776465  16.8839061  33.6398196
   9.6682739  17.9653847  32.6555443  18.6784601  36.5110207  32.8358841
  18.4883189  37.3625827  32.4422860  19.3437600  36.1265326  32.2651148
  16.0145640  21.4846063   3.1695601  15.9310579  20.9795594   3.9783779
  16.7177498  21.0497737   2.6871875  40.6763077  40.6865549  10.0114906
  40.1784086  40.2412939   9.3258721  40.2860022  41.5590620  10.0626945
  40.9260607  40.9632301  35.7432485  40.6927729  40.3242254  35.0698376
  41.6510820  40.5569029  36.2180924  11.0912669  40.8041096  46.3670206
  11.5459955  40.4763937  47.1429443  11.3442731  40.2006578  45.6684065
   5.6490171  89.3116474  49.8794937   5.3756392  90.1909447  49.6180868
   5.0782609  88.7256813  49.3823910  55.7501173   2.4585652  40.3217268
  55.7225943   2.7875212  41.2202024  56.1300230   1.5833588  40.3986311
  46.2482119  24.0316534  46.0650206  46.3751173  24.1321540  47.0084333
  46.0467863  23.1032300  45.9480095  33.7234068  20.2209163  35.1974297
  34.3282008  19.7349656  35.7580614  33.7434411  21.1140800  35.5410719
  19.4068980  65.0778103  57.1547794  19.0435433  65.2681398  58.0196381
  20.2052975  65.6038618  57.1093607  40.9501839  58.8474512  12.0229411
  41.3204050  59.5347881  11.4691019  40.0553370  59.1379642  12.1992493
  23.3364272  16.3176358  57.6845837  22.6042700  16.1165655  58.2674646
  23.6104727  17.1986544  57.9394054  41.4836597  31.2760878  67.1743345
  42.0127726  30.4851055  67.0713043  41.8303013  31.8830013  66.5203285
  37.5090647  23.7660193  38.1699038  36.6899538  23.2809019  38.0701447
  37.6721787  23.7692308  39.1130972   6.1971211  40.2465153  45.6872272
   5.5427974  40.8704996  45.3730106   6.7901230  40.7715845  46.2247038
  -0.1818906  27.6439166  35.4522800  -0.2260802  27.9381824  36.3620520
   0.4760133  28.2103014  35.0490403  40.8061028  33.6048341  45.5985165
  40.6063843  34.3043995  44.9764585  41.5662432  33.9256454  46.0837984
  20.6502008  25.9959173  80.8611965  20.7091737  26.3895297  79.9906635
  20.6652188  25.0526667  80.6990814   7.2706598  23.7524867  39.4061899
   8.1008452  24.1960382  39.5802188   6.9216478  23.5484338  40.2738190
   9.9202812  36.8627048  67.8177834  10.6542611  37.4686790  67.7162981
   9.1829115  37.4194050  68.0679893  34.6598077  18.1669104  24.1881633
  34.8343420  17.8756285  25.0831056  35.5253625  18.2338119  23.7849617
  51.2267494   6.2416613  24.3822169  52.0803165   6.1917150  23.9519072
  50.7263088   5.5174136  24.0063787  23.7043786  53.5839415   7.1203572
  24.1059875  53.1449366   7.8701681  24.2844152  53.3825731   6.3860261
  13.8137126  36.3636994  54.2775917  13.7323821  36.5914083  55.2037477
  12.9883003  35.9283018  54.0646172  39.5866680  39.9587107  28.8976264
  39.5123339  40.2974892  28.0054712  39.1577101  39.1036081  28.8656354
  13.5393310  56.7158175  74.8665905  14.2827344  56.1515808  75.0792360
  12.9596376  56.6441631  75.6249142  45.8148813  28.0763841  29.9972773
  44.9952602  28.4831595  30.2783227  46.4891434  28.7190318  30.2177525
  50.1774549   3.3935767  69.0889311  49.6342468   2.6267517  69.2709684
  50.0967407   3.5254821  68.1443071  35.4108071 104.0559769  60.3410578
  35.5652332 103.3823013  61.0032940  36.2460637 104.1347504  59.8802233
   9.9515206  19.5834339  44.5929527   9.0833312  19.4194019  44.2247486
  10.1431477  20.4916477  44.3591547  16.0001373  27.9638124  47.2769690
  15.1703203  28.1432366  47.7190590  16.5993559  28.6305714  47.6125336
  45.4348946  40.7782793  59.6911669  44.7361803  40.4227209  59.1419792
  45.5433512  40.1321220  60.3889847  30.0465727  17.4986446  61.4239931
  29.9345899  16.7486000  62.0080519  30.3768969  17.1204245  60.6090927
 116.4441872  16.8436384  89.6934032 116.5016460  17.7622163  89.9563599
 116.6775322  16.8452036  88.7650871  22.2962713  46.6732645  44.0102625
  22.3707318  46.0771704  44.7554874  21.7921996  46.1829901  43.3608198
 113.5228539  33.7648845  43.3844757 114.4427490  33.5203910  43.4856462
 113.4607220  34.6333671  43.7821054   4.5639646 108.5525799  18.5180640
   5.1992041 108.4148312  17.8154051   4.1083649 109.3583965  18.2744837
  79.2122221 107.9143906  50.9800243  78.4985065 107.9095459  50.3422022
  78.9519262 108.5712910  51.6257477  31.0578680  36.7688036  70.6917000
  30.9883761  37.3924160  71.4145470  31.9035316  36.9635916  70.2877903
  36.6648364 100.0660896  32.4671650  36.2980747  99.1915131  32.3374748
  37.5893617  99.9117470  32.6612306  49.2607117  31.0002279  28.8701415
  48.3758497  30.6718659  28.7106752  49.1335106  31.7759681  29.4162917
  46.7595816  16.6138816  32.3377109  47.1122026  15.9994030  31.6940427
  45.8665609  16.7867649  32.0396280  52.6526070  14.0412104  36.9496918
  52.9120159  14.8962712  36.6064572  52.1591663  14.2420137  37.7449441
  15.4640639  40.3223848  46.1509466  15.4490983  39.8147583  46.9623184
  16.3782597  40.5880642  46.0514688  79.7781706 101.6797924  39.0785170
  80.6821728 101.4064312  38.9226651  79.4092846 100.9865284  39.6258283
 117.6783943   1.0280535  12.0461333 117.7524662   0.1164675  11.7637217
 116.7524624   1.1371656  12.2628713 117.8482628 101.7190075  50.6567287
 117.9810715 100.7929897  50.4540730 116.9580555 101.9043541  50.3577042
   0.4150407  42.8133535  31.3053775   0.3268689  42.1414948  31.9814396
   1.2718740  42.6468277  30.9125209  28.9158130 102.6556587  58.0868244
  27.9801941 102.7428150  58.2691717  28.9649129 102.5367546  57.1383095
  39.4839263   3.6276099  41.7742205  38.5306430   3.6848554  41.7093754
  39.6388674   3.0454737  42.5180912  39.8580861  55.8638000  66.3518047
  40.6591511  56.3875723  66.3380623  39.6193814  55.8154583  67.2774982
   7.0898753  45.6429672  35.6398940   7.4400806  46.1189079  34.8868537
   7.1520054  46.2639236  36.3656926 110.3581429  30.8071804  50.7505560
 111.2014961  30.9027934  51.1930943 109.9037647  31.6324282  50.9201050
  24.7555971  37.3716307  58.0025578  23.8816500  37.6296949  58.2955599
  24.6808696  36.4344668  57.8226280 116.5616322 110.9518909  54.1186571
 116.1818790 111.3612175  54.8961401 115.9751320 110.2214622  53.9218712
 107.6964283  10.1954162  67.3159599 107.9715443   9.8737389  68.1744862
 107.0124149   9.5855188  67.0395899  17.6074481  28.7742710  27.8338361
  18.4204018  28.4131551  28.1872940  16.9151533  28.2777023  28.2701588
  52.9287195  34.9537134  37.3259664  52.1741438  34.6481895  37.8294587
  53.5072517  34.1927743  37.2759175  51.2373924  19.2336333  38.7054157
  51.4441299  19.6369410  37.8623056  50.8142519  18.4058177  38.4775877
  30.1438260  41.0928631  94.8360825  30.3970170  41.7077875  94.1476059
  29.2706418  41.3793659  95.1038551  27.5379944  31.5041661  31.2440252
  27.6479363  31.1682630  32.1335816  27.7745700  32.4295640  31.3065004
  25.0727797  47.5099850  46.7657423  25.3145719  47.1253252  47.6082420
  25.3987455  46.8874168  46.1158276  38.1894469  22.1938562  20.2137136
  38.7484002  21.4846635  20.5312777  37.4848127  21.7503142  19.7414935
 116.4350224  10.2398634  60.2879000 116.1707687  10.9396851  59.6906948
 115.9306145   9.4781154  60.0023460 103.9994621  32.2780132  18.6125314
 103.2264042  31.7786670  18.8757038 104.3585873  32.6139736  19.4337475
  89.1697311  90.8588028  58.7342024  88.3634281  90.3466034  58.6728430
  89.8702526  90.2071667  58.7046957   9.2664909  25.4072118  40.1283598
  10.1852489  25.3489089  40.3904963   9.1924131  26.2617302  39.7034597
  65.0061655  12.0371222  47.6403809  64.1622400  12.4858320  47.5886536
  65.1763582  11.7431235  46.7454910  48.5976076  33.0550861  33.9587212
  48.9816952  32.8014731  34.7979999  47.8628492  32.4532104  33.8399363
  14.5282114  40.6913853  28.6397815  15.4396272  40.9776306  28.6999059
  14.0268242  41.5031004  28.5626054  70.3643131   9.2789102  66.8783760
  70.3612137   9.1988385  67.8322172  69.8039675   8.5641164  66.5761948
  22.8419757  19.5342648  42.5124121  22.2059250  19.9732757  43.0771589
  22.4226093  19.5109344  41.6522837  13.5459781  95.0998211  72.1093798
  13.7851250  95.2453423  71.1940289  13.4852934  95.9786987  72.4837112
  63.8890362  26.6094995  84.8656940  63.1939268  26.0399294  85.1953125
  63.7492371  26.6348267  83.9191055  63.2578135  29.1590118  47.3414564
  64.0338850  29.0339136  46.7952871  62.5215387  28.9880347  46.7541790
   9.6505201  23.0009532  35.8005476   9.0639991  22.3404336  35.4318476
   9.8157591  22.7021599  36.6947794  36.1682415  44.5261621  64.4757557
  36.8820071  45.1621723  64.5232630  35.5823731  44.7696495  65.1924849
   7.9855478  96.7618561  36.9145966   7.7143699  95.8921719  37.2084618
   7.7935106  97.3359013  37.6560974  12.1349347  12.8141856  26.7061663
  11.7839587  11.9278193  26.6201210  11.4079893  13.3848774  26.4569783
  21.2124658  46.9880438  65.2676964  21.5580058  46.2734842  64.7326803
  20.9258580  47.6451731  64.6334505  44.5648050  39.5234036  52.3898840
  45.2906132  39.4258761  51.7735052  43.7791348  39.4182420  51.8533230
  14.5955515  43.6106777  30.9809422  13.8290119  44.1839266  30.9864974
  15.3143883  44.1747236  30.6957102  39.5852733  43.5703325  53.0308247
  40.5157375  43.3458471  53.0392838  39.5295596  44.3798256  53.5386086
  20.3774428  31.4644384  44.8052454  20.6345415  30.6595039  44.3555641
  20.9727049  32.1309805  44.4622898  27.2309685  17.7960527  76.8682814
  27.2079873  18.1782031  77.7455854  26.5823746  17.0926547  76.8963623
  33.1563830  50.3852797  31.6429400  33.2828164  50.9678221  32.3918629
  32.2276402  50.1554823  31.6723537  49.6661806  28.3428168  63.0146742
  50.1990080  27.6991677  63.4816265  48.7767315  28.1962466  63.3365965
  23.0858159  45.8749914  78.5253572  23.6485481  46.6420221  78.4193802
  22.8319144  45.6391001  77.6330996  35.9496188  16.1540043  63.5735130
  35.2291059  16.7789173  63.6546135  35.5198288  15.3070486  63.4544420
 115.5939770  41.6321230  31.5941978 114.8339367  41.5315676  32.1673179
 116.3424492  41.4091635  32.1476388  35.4086709  36.5308094  60.4083157
  34.6894622  36.1263347  60.8934641  36.1159801  35.8870721  60.4476166
  42.7681696 110.9315823  46.4244747  42.4448359 110.6583447  45.5659676
  41.9768107 111.0880502  46.9397545  32.5792694  55.3074121  34.7334886
  32.3912477  55.2813768  33.7952995  32.2810650  54.4589233  35.0611639
  17.0933366  21.0334349  47.1326113  17.3786330  20.6524920  47.9631042
  16.4749694  21.7195845  47.3837137  20.4087138  95.6501484  62.3359585
  20.3747845  94.7206783  62.5621319  21.3409781  95.8666325  62.3518085
 115.5915165 107.5208759  15.5623734 116.3132477 106.9788647  15.2436829
 114.9247646 106.8927383  15.8400786  38.9988017  32.7351809  42.9432058
  39.2383647  33.4506941  43.5321712  38.5851097  32.0854783  43.5115147
  30.5136037  12.1955192  13.5118580  30.8541489  11.3031077  13.4497011
  31.0269904  12.5996041  14.2114151  99.3057060  75.3925991  39.0441871
 100.0852871  75.5273676  38.5053682  99.5752811  74.7480249  39.6984720
  48.7412310  35.6612754  25.0469780  48.2639217  35.7274795  25.8740354
  49.4366693  35.0272369  25.2218819  60.6896544  26.9240570  31.3395882
  61.4315796  27.5208902  31.4374280  59.9905157  27.3242784  31.8565559
  34.4282413  19.4750428  60.5690527  34.4103384  18.5315192  60.7292843
  34.2740512  19.8669267  61.4286375   8.8653052 109.9160194   2.8158286
   8.9764959 110.8456612   3.0149031   9.1306663 109.4659233   3.6178452
  28.2817698   1.5036191  42.0261240  27.7472711   2.2786224  42.1990776
  28.1245685   1.3053989  41.1029625  60.0143957  45.7697344  65.7952833
  59.2840528  46.1666584  66.2699223  60.3498507  46.4734840  65.2399111
  16.8420696  21.2095451  27.4159360  16.6911471  20.3368330  27.0528555
  16.7001283  21.1053562  28.3568025  51.1037016  31.4158893  45.6255960
  51.6451740  30.6935716  45.3073311  50.3025150  30.9952044  45.9376192
  72.5469828  24.8987055  26.4872336  73.4044313  24.9481916  26.0646701
  72.6699877  25.3347158  27.3304415  43.0520010  28.6076522  50.4293919
  42.4901485  29.0074897  49.7655487  42.4477577  28.1332946  51.0004473
   0.9521750  11.2118995  36.2537384   0.9833417  12.1324027  35.9930944
   1.4860477  10.7597780  35.6004429  19.4557166  28.7638807  48.6301565
  19.0489733  28.1210971  48.0491066  20.1717949  28.2875657  49.0503788
  19.4885576   7.1447331  36.9654942  19.6027076   6.3919115  36.3854408
  19.3638635   7.8865004  36.3734937  16.1915052  12.2604835  80.3473568
  16.0699797  11.7323279  79.5583582  15.5520284  11.9129491  80.9690666
 108.0324364   3.3790582  38.5809565 108.6347389   2.6375580  38.6413050
 107.4670219   3.2914296  39.3483281   7.6876003  41.1611223  58.3573627
   6.7752147  40.8808231  58.2851219   8.1887746  40.4510498  57.9562998
  25.1683402  50.0427294  63.0575132  24.2983389  50.2696180  62.7291059
  25.6666851  49.8094797  62.2742653 106.2643909 111.3689899  67.4132681
 105.7391262 110.9115982  68.0698776 105.6411457 111.5945911  66.7226887
  52.3852158  28.5806298  86.0697746  53.2089138  28.5252500  85.5853271
  52.5293303  29.2790914  86.7082214  54.2979622  36.5889740  35.2538514
  53.6082935  36.6545630  34.5933342  53.9077663  36.0694909  35.9567833
 112.0211411 103.1780148  76.5460205 112.6192856 102.9008484  77.2400236
 111.3869190 102.4643803  76.4772844  99.7667217  22.9826546  21.0381341
  99.1815948  23.3058262  21.7232800  99.9117279  22.0631433  21.2610722
  37.6776671  20.9373665  68.0104208  36.7416739  21.1326361  67.9654980
  38.0922723  21.7861724  68.1649017  38.6281157   6.6969824  64.9236631
  39.3153977   7.3442113  64.7656441  38.6965919   6.4980280  65.8574533
  56.2211084  19.9321973   9.3646264  56.7397690  20.6319928   8.9677536
  56.2740231  20.0990677  10.3056824  31.0594416  56.6919327  52.7193069
  30.7801986  57.5230169  53.1034374  30.3181696  56.1025906  52.8586817
  74.2273331   1.2863609  34.8990893  73.3279037   1.6089858  34.9554110
  74.1361141   0.3613802  34.6703482   4.6023354  39.5563936  56.2637568
   4.3813744  40.0583220  57.0482779   5.1757383  38.8581252  56.5797663
  25.2243018 102.1365738  78.1742239  25.2089381 102.6629257  78.9735603
  25.7981896 101.3996792  78.3836794   6.8575519  14.9316287  44.5978165
   5.9159523  14.9363959  44.4257736   7.2527975  15.2202654  43.7752008
  34.5142579  31.7701721  39.6665502  34.7621775  31.4316702  38.8062119
  35.0705910  32.5391221  39.7907996  28.1213260  23.3382607  53.4931850
  27.7040339  22.5043845  53.2769728  28.3321905  23.2662988  54.4240952
  47.5290632  41.9836044  49.5786810  48.3770847  42.1920490  49.9706507
  47.6615858  42.1110535  48.6393070  41.2494421   5.6621355  66.8366146
  40.8082962   4.8296079  67.0054960  40.6095409   6.3277787  67.0889616
  32.4969268  17.5871420  54.6750832  32.8057504  18.2535660  55.2888775
  31.6287851  17.8902733  54.4092417  19.7669280  20.5770826  13.3435297
  19.0736139  20.8252287  13.9550614  20.0789595  21.4080334  12.9852152
  68.3532906   1.1815734  78.9240980  68.8284206   2.0039989  79.0428305
  67.4404192   1.4464810  78.8112926   4.1615340  39.0260601  30.5323482
   4.8566774  39.6809626  30.5964637   4.2646557  38.6522079  29.6572304
  17.9307151  51.8577719  75.4219007  18.6665154  51.2456179  75.4120684
  17.2154748  51.3793135  75.0026846   2.9294753 110.0203037  34.7228837
   3.2855427 109.4865227  35.4331875   2.3967430 110.6818104  35.1642823
 111.1943245  24.9875045  39.2638159 110.5032539  24.4433999  38.8861823
 110.9892845  25.0207710  40.1982069 118.1482792 104.1715813  46.4536095
 117.7182484 104.4429970  45.6426525 117.8185081 103.2876587  46.6153526
  59.7772074  17.9708362  15.4749429  60.5513573  18.0770302  16.0277987
  60.0936794  17.4915981  14.7091699  54.7090530  35.1767969  69.2446518
  55.3833485  35.3210139  68.5807562  54.9776554  34.3720961  69.6879816
  15.0618112  26.9428205  29.4751620  14.3428111  26.7266941  30.0689268
  15.6359196  27.5094461  29.9904943 110.9030628  68.6562109  50.1244688
 111.4959717  68.3065462  50.7896185 111.3659859  68.5232687  49.2972660
  36.1334443  49.2220068  45.5447006  35.8012295  48.4021568  45.9103727
  36.5464592  49.6649075  46.2859726  49.6850061  46.1309242  23.9592528
  50.4502201  45.6583214  24.2868638  48.9861679  45.9117079  24.5755291
  40.6105852  38.0060697  54.8016644  41.1014557  38.7514734  54.4557667
  41.1983633  37.6099539  55.4449701  29.8025584  16.6300118  26.5104556
  29.0500760  17.0047915  26.9682121  30.5170655  17.2434580  26.6819096
 117.9147901  10.0232291  33.5195208 117.5144350   9.8216522  34.3652844
 118.6024932   9.3653363  33.4171867   8.2718325  36.5153146  46.3556528
   8.6615986  37.2871780  46.7661858   7.5675619  36.8644404  45.8094406
  22.6242304  45.5019045  46.5436983  22.4843979  46.4481926  46.5088034
  21.8035460  45.1511145  46.8896151  33.2070971  44.3663931  39.7557139
  32.8675032  44.8881817  40.4827881  32.8103232  44.7550631  38.9761400
  36.9465470  29.5498371  18.9129865  36.9029641  29.7949171  17.9887211
  37.4736810  30.2381444  19.3186903  55.8960533  22.7467680  54.5551348
  56.5681314  23.3688283  54.2765951  55.4692316  22.4754667  53.7424517
  22.2386765   6.5527642  14.4145560  21.5979719   6.0085398  13.9567912
  22.9187155   5.9393209  14.6928799  44.1578388  42.3562765  71.8477011
  43.6329365  42.6662350  72.5856972  43.5247469  42.2250795  71.1418581
  43.5046673  24.3800354  43.0163956  42.9903603  25.1634264  43.2113838
  44.4148493  24.6632743  43.1034088  30.6580496  13.6164129  76.0406017
  30.0315118  14.3400717  76.0403872  30.3679538  13.0482280  75.3269911
  14.8873973  55.3172302  41.0405874  15.3681171  54.5370436  40.7640982
  15.4535890  56.0479641  40.7922220  35.7533336  29.1595984  53.0627203
  34.9573684  29.6910810  53.0767107  35.4740644  28.3195806  52.6985693
  10.2830470  42.7955580  23.3983040   9.7688532  42.8620958  22.5936890
  11.0709524  42.3172235  23.1401658  20.8320856  24.5963097  71.4165354
  21.5465140  24.0655756  71.0641956  20.9877205  25.4722500  71.0633564
  59.9603128   1.0262002  72.1378946  60.2856350   1.6481140  71.4870310
  59.6054316   0.3026577  71.6213894  25.6635308  29.3975496  69.6844959
  24.7762036  29.5506239  70.0092316  25.8497024  28.4876490  69.9161243
 116.6396904  63.0980301  67.3644018 117.3545456  62.4709415  67.2549915
 116.1957741  63.1055307  66.5163946  36.9473004  31.6559577  63.1404638
  36.2432289  31.3005447  63.6828613  36.7592502  31.3302445  62.2602463
  45.7834196  45.3157377  59.1289043  46.7030716  45.3658152  59.3895960
  45.7091141  44.4775867  58.6725998  33.5172057  53.4035063  66.8189096
  32.7086878  52.9045486  66.9353962  33.6341357  53.8671064  67.6481485
  67.4939775  35.2374959  45.3468990  68.2284594  35.5920792  45.8479309
  66.7612171  35.2385330  45.9627628  40.6665277  22.4091864  77.2607136
  40.3865147  23.3018374  77.0582294  41.6192627  22.4674606  77.3323488
  39.2999530  10.5762112  28.6012912  39.5837569   9.7581279  28.1933379
  38.5847306  10.8855343  28.0454040  61.0741043   5.7555217  77.4655581
  60.9082842   5.4185736  78.3460140  61.7142248   6.4555722  77.5936317
  59.1824770  60.0311995   2.2083904  59.6894932  59.7139168   1.4610654
  59.2354012  59.3240309   2.8513086  23.0138111  42.6879072  49.5100641
  22.2448730  42.4326658  49.0003395  22.9114890  42.2291613  50.3439140
  30.1311922  15.3926134  51.6679192  29.5426154  14.8985326  51.0972261
  30.8477378  14.7863209  51.8555450  52.2806454  38.1387997  45.8752108
  51.8856430  37.2761464  45.7485723  52.3229408  38.2456994  46.8254805
  47.8126097  33.0128336   0.5823238  47.8294373  33.6949301  -0.0890126
  48.1576395  32.2356439   0.1428229  52.4515057  41.0713100  56.5986729
  53.3258152  41.1512089  56.9800282  52.3302317  40.1302147  56.4727211
  26.5441799  39.2262673  40.5009890  25.9797096  38.5857105  40.0682116
  27.4063444  38.8109279  40.5209589  33.3418965  49.0917444  60.0275230
  32.4766970  49.3037415  59.6772099  33.1878424  48.9151859  60.9556007
   2.4766369  31.8273282  12.1698976   1.6046204  31.4686251  12.0051193
   2.6415145  31.6410422  13.0942059  44.4525433  40.3932095  10.9447122
  43.9313126  41.1939049  10.8860636  45.2095699  40.5585241  10.3827357
  38.4749722  71.2701607  38.3493114  38.1073785  70.3946924  38.2282209
  38.0192518  71.6173172  39.1161442  24.9339771  49.1568422  60.2878904
  25.4956985  48.4445906  59.9822760  24.1918159  48.7159538  60.7014656
  34.0093946  32.1464944  50.6108618  33.1248260  32.2039843  50.2496672
  34.0412045  32.8331542  51.2769794  14.7921634  25.9371567  53.8050652
  14.7526729  24.9966550  53.9786339  15.7208574  26.1143255  53.6554956
   5.7775986  26.2881494  28.3881593   5.0188410  26.5544820  28.9073753
   6.3604176  25.8622456  29.0167785  33.0830622  66.9668913  62.9409075
  32.3211884  67.0277309  63.5171700  33.3555102  67.8747368  62.8074169
  50.5498981  42.0802498  54.7780275  51.4478111  41.8042898  54.9619579
  50.5232286  43.0000210  55.0417376  50.1095724  42.3369646  50.0849056
  50.8522463  41.7424154  49.9791479  50.0647736  42.4989939  51.0272264
  61.1889601  28.5054970  42.7543783  61.7857075  27.8134489  43.0393267
  61.4475393  28.6877751  41.8509722  56.6863585  23.4506392  57.2867823
  57.3306370  24.1428113  57.1383333  56.2382412  23.3562589  56.4462376
  23.4753323  27.3094869  45.2423000  23.5540342  28.2503080  45.4000807
  23.4462309  27.2281122  44.2890072  26.6631532  14.5444059  22.9316545
  25.7137418  14.4369030  22.9890418  26.7953110  15.4918385  22.8979063
  30.9181023  28.3118653  33.1039119  31.1833620  29.1573048  32.7418327
  31.6930437  27.7577376  33.0109501  20.8440685  40.5666733  32.8507018
  20.9949589  41.4462376  33.1968665  21.1350799  40.6144953  31.9400644
  39.4102025  53.6324310  40.3669882  39.7738147  54.5174503  40.3394127
  39.6993732  53.2290745  39.5485020  22.5406766  24.5753670  43.1931829
  22.0095921  25.3382301  43.4216976  21.9201517  23.8466573  43.1804705
  51.5381384  62.6158857  44.2995119  52.1829796  62.6053810  43.5921907
  51.0308170  63.4135580  44.1492796  37.2065043  31.7074370  78.4199476
  36.9303703  32.1732664  79.2092419  37.0052934  32.3096681  77.7036619
  47.7410030  28.1560636  48.1432533  47.2290468  28.5961008  47.4646521
  47.6699972  28.7294102  48.9064503  63.5958958  37.8422999  78.0801916
  63.1175232  37.4902463  77.3295593  64.4885302  37.9674554  77.7580500
  51.2199926  20.3079748  60.2263927  51.2934017  20.7598829  61.0669994
  51.8080759  20.7886720  59.6438789  21.3426447  53.4738302  33.7216330
  20.5296683  53.1079960  33.3731174  21.8970037  52.7111912  33.8868499
  25.1176310  27.6590228  66.3712502  25.8326554  27.2098017  66.8219948
  24.3235302  27.3198080  66.7842484  61.6746712  28.3571577  16.4318907
  61.0025311  27.7967429  16.8197036  61.3490438  28.5480762  15.5522609
  56.9208717  22.3505306  17.3047733  57.4676275  21.9004917  16.6607547
  56.3491011  21.6665459  17.6533079   8.8389534  38.2970786  40.5436611
   9.3645054  37.8143525  41.1816311   8.7990868  37.7203512  39.7807550
  35.8869696  39.9152923  38.4147930  35.7498121  39.4660282  39.2488074
  36.8130803  40.1571417  38.4224844  18.3643687   2.7266607  30.7868934
  18.5730064   2.2292969  29.9961138  18.9548051   2.3754998  31.4534545
  25.7469773  32.1499634  64.4972086  25.3824091  32.9665446  64.8385525
  25.5981469  31.5112925  65.1944733  31.4708757   3.3111584  21.7957807
  31.8678761   2.9109237  21.0221958  30.5891848   3.5546336  21.5136933
  35.8469963  42.2723341  40.4322386  35.6989431  42.7284145  39.6038055
  35.0165105  41.8331194  40.6155968  66.1139917  20.5653858  43.8321400
  66.5140438  21.0106969  44.5790577  65.9172106  21.2674832  43.2120085
  45.2303553  30.5770946  40.0289249  46.1775684  30.7148266  40.0217485
  45.0051451  30.5097318  40.9568119  33.2370853  34.1765738  42.8927708
  32.5559354  34.7029734  43.3113050  33.7796521  33.8666010  43.6178732
  10.2554190  56.2912369  32.7348089  10.5436301  56.5010834  31.8464780
   9.3075311  56.4231634  32.7165198  52.0576239  34.6618772  58.6681747
  52.5598335  34.2334485  57.9750156  51.6340637  35.4025197  58.2342625
   7.9014277  94.0191364  40.9262562   7.5983614  93.1489849  40.6669903
   8.7727457  93.8697720  41.2933111  50.7209682  31.5405774  61.6808319
  49.8990631  31.0534549  61.6224384  50.4854536  32.4371839  61.4423847
  42.3514032  38.4293985  47.8758192  42.7464342  39.2589664  47.6074886
  43.0346727  37.7773499  47.7202415  49.7258520  38.1792498  53.6327314
  49.5684195  38.4143043  52.7182961  49.4803762  37.2557330  53.6883211
  32.3223710  13.6237776  70.1427031  33.0456877  13.3183134  69.5952177
  32.1969128  14.5373368  69.8859882  51.3458347  46.1744404  38.5277772
  51.5001011  46.5322208  37.6534605  51.7701912  45.3165627  38.5138154
  40.2066755  47.7637291  26.1987805  39.4705915  47.1692276  26.0539436
  40.9792805  47.1992874  26.1720228  39.3707323  27.4074864  74.4137669
  39.0964103  28.2469773  74.0446663  38.5515666  26.9495773  74.6022320
  53.0715752  56.5040970  35.5857754  52.6802349  56.9971085  36.3069034
  53.4778118  57.1710920  35.0323081  38.0797577  38.9884639  54.4653034
  37.5017476  38.2949877  54.7834635  38.9626908  38.6663818  54.6467447
  48.2873297  40.8331299  53.9452553  48.7158966  39.9859190  53.8236094
  49.0065527  41.4451313  54.1014767  37.1354270  84.2896366  32.1833372
  36.9082856  83.8654995  31.3558412  37.5397277  85.1178741  31.9248939
  60.5592346   1.4513282  43.2250786  59.8703814   2.1096444  43.1337786
  60.0882959   0.6232072  43.3181763   8.6339444  46.6464472  27.3313332
   8.0730498  46.5200567  28.0966139   8.6008257  45.8088779  26.8691540
  57.6693821  30.5765486  45.2814054  57.7623415  31.3770938  45.7978535
  58.2110357  30.7270575  44.5066833  49.7970390  47.6218462  40.3953409
  50.3186226  48.2083654  40.9432268  50.4435587  47.0992994  39.9208021
  16.2356734  45.1787615  29.7285461  15.8547020  45.7447767  29.0571880
  17.1205735  45.5206728  29.8561454  40.9269190  51.6008663  48.5885429
  41.8355656  51.3291883  48.7181187  40.4762650  50.8040667  48.3088017
  41.5859509  45.6307554  42.8964996  41.8412971  44.7169495  42.7700520
  41.3537979  45.9380293  42.0201874  41.8243647  32.9541588  52.0751476
  41.7006111  33.8016224  52.5026131  42.0398855  32.3547268  52.7896166
  30.0980139  43.3612204  68.7318325  29.9585962  43.1788731  69.6611023
  30.5978107  42.6098490  68.4126663   1.4465338  64.0840101  74.0422487
   1.3211390  64.2023516  73.1007099   1.0089432  63.2559633  74.2399454
  21.0198021  38.0631423  48.6551189  21.3642406  37.5978637  49.4174290
  20.8250403  38.9425325  48.9791155  21.3877416  27.2772598  49.9182749
  22.2094178  26.8949413  49.6101999  21.5874505  27.5972271  50.7980299
  39.4381905   3.8106537  49.2543077  39.7415566   2.9686931  49.5938730
  40.2340317   4.2471361  48.9504147  27.6729393  43.8933134  65.5622005
  28.0018091  43.0502272  65.2503014  27.0988774  43.6702347  66.2949467
  78.7710285  22.0136023  61.0869837  78.3985519  22.8019214  60.6919575
  78.0691862  21.3648438  61.0344648  44.9702644  51.0337067  32.7411819
  44.2791224  50.3869438  32.5988865  45.7522106  50.6370783  32.3571515
 112.1650696  97.5874138  24.9822712 112.0116043  98.0893135  25.7827568
 112.2191525  96.6781139  25.2763605  64.2795944  13.0417097  58.9056921
  64.2940760  13.9392328  58.5733128  63.4600496  12.9812670  59.3965292
  26.0007858  41.0577917  59.0612268  25.1247501  41.4107752  59.2167759
  26.1365867  40.4318571  59.7725582  14.1161919  56.9343901  71.2124825
  14.7876430  57.5595140  71.4856243  13.5728276  56.8111944  71.9908237
  46.3667440  57.9802942  29.1413975  46.6960382  57.9118633  30.0375628
  45.5320740  58.4408998  29.2274427  48.3309269  13.2805324  21.0000682
  48.0911779  12.8645086  21.8281245  48.8316727  12.6121378  20.5323744
  31.9603562  57.0849895  65.9581423  31.9028211  57.1273851  65.0036144
  31.0771489  56.8480349  66.2410355  43.0486345  37.6052427  50.4426765
  42.7550077  37.4125290  49.5522356  42.3223782  37.3258448  51.0000992
  31.7800689  17.7654934  51.4195824  32.1890974  17.7001119  52.2825146
  31.1109853  17.0809793  51.4191818  62.4062157  58.7588453  43.1131363
  62.1314812  58.4162903  42.2626019  63.3149481  59.0287304  42.9804564
  56.3443041  23.0563045   5.1435566  56.1681032  22.4996138   4.3850848
  55.4990911  23.1323814   5.5863404  68.0332851  62.3875284   2.3209055
  68.3895111  63.1097317   1.8034571  68.2359791  62.6194477   3.2271951
   2.9569119 106.9912434  49.8054218   2.1595263 106.4877033  49.9692965
   2.8066128 107.4084854  48.9571571  20.7168508  42.4641657  76.1966324
  20.6720853  41.5955782  75.7969046  20.5607295  43.0696774  75.4719162
  49.2501640  26.8766594  43.4624720  49.4294834  26.3301444  44.2275858
  49.6409464  27.7238655  43.6763954  19.5193374  26.5732121  16.9251454
  19.3615472  27.5090337  16.8003631  19.9559331  26.5151620  17.7749956
  34.4384146  56.8046856  28.2602286  35.2158546  57.0444298  28.7645531
  34.3661427  57.4869299  27.5927305  30.6602478  24.2568064  66.8630838
  29.7925830  23.9169550  66.6442442  30.7589412  24.0773296  67.7981138
  23.1393886  22.9137683  82.0146561  23.0893517  23.6947203  82.5658798
  22.3913908  22.3812985  82.2852230  18.7500679  11.1159146   8.7115282
  18.7527418  10.8255529   7.7994347  18.5842419  10.3194833   9.2159396
  33.0383348  21.4069915  50.6423092  32.9105258  21.3369727  51.5883493
  32.5263476  20.6852341  50.2773809  45.0492477  43.4609652  56.4562559
  44.5749569  43.1520653  55.6843328  44.4521046  43.2963705  57.1860218
  65.3691721   9.5271993  57.6696587  66.3083839   9.7118199  57.6753235
  65.1062393   9.6509981  56.7576456  31.2612987  18.8930893  64.3149281
  31.3244724  19.4254887  63.5219669  31.0822344  18.0085599  63.9959049
  31.8688393  56.5345287  22.3647261  31.2583399  56.2783146  21.6734409
  31.5878630  56.0333157  23.1302786  34.9805427  49.0736914  36.9464064
  34.4463110  48.8694954  36.1788559  35.8775592  49.1010523  36.6134715
  42.2966480  31.4086556  36.4793015  42.2370386  31.7574620  37.3686910
  42.4144697  32.1811366  35.9264684  35.2290010  66.5204763  40.9046316
  35.6077719  67.2604084  41.3792515  34.4140625  66.3298512  41.3691378
  40.1829147  53.3242655  31.5909386  40.9819889  53.8235664  31.4223909
  40.4578781  52.4086905  31.5424776  52.5696707  14.7146010  62.3867035
  52.7132845  13.8085449  62.1134472  51.6630077  14.7315013  62.6931477
  60.4602098  23.6868095  23.1872320  60.3460073  24.4515848  22.6230454
  60.7555676  22.9947066  22.5956345  44.3565893  43.8280869  42.6610279
  44.8401690  44.3922472  42.0576096  44.3391848  42.9742479  42.2287273
   5.2033716  60.8954287  38.1883883   5.9238815  60.4470491  38.6311674
   5.5212891  61.7888212  38.0579782  64.8381233  22.4327779  37.0080185
  64.4084787  22.5891733  36.1670804  65.6610107  22.0003319  36.7797947
  67.4908161  27.6865101  26.4736295  68.3791113  27.3330331  26.5206575
  67.5718164  28.5822463  26.8012428  47.8383398  16.0101151  47.3690605
  48.1450462  15.4175925  46.6827059  47.1259737  15.5340087  47.7957773
  31.0363173  27.1220517  87.8716564  30.7953954  26.8327403  88.7517071
  31.8181801  27.6587367  88.0016232  32.0996523  39.2128229  58.1783295
  32.7097559  38.5208797  58.4337091  31.8484116  38.9916492  57.2815657
  60.1851749  38.8903427  67.6343775  59.5917368  38.8526630  68.3844709
  61.0470772  38.6924314  68.0006886  67.8209496  29.9793124  18.4412766
  68.2024288  30.7627201  18.0450773  66.8794155  30.1513362  18.4535122
  51.7388153  43.4255981  38.9327383  52.0854473  42.6953840  39.4454408
  51.7040730  43.0932713  38.0357528  38.1857491  36.6386485  39.0146470
  37.5553441  37.1564794  39.5153213  38.5413289  37.2512746  38.3708429
  95.4855537  41.6823387  62.3196125  94.6063614  41.3073730  62.2681570
  96.0717964  40.9373331  62.1872568  47.2803783  55.0115395  29.2226672
  46.8535757  55.8051872  28.8998771  48.2090425  55.1448631  29.0328264
  44.2573833  39.4800520  29.3633342  44.5945740  40.3753376  29.3317056
  44.4298506  39.1906714  30.2592945  55.5028868  26.3017416  57.7298737
  55.5028152  25.6077337  58.3891010  54.7686672  26.0859990  57.1548891
  16.7509735  38.0937552  56.7244864  16.9476461  37.7792120  57.6068783
  15.8973575  37.7125001  56.5190220  44.8009539  22.5497460  23.0772686
  44.6790409  23.2541847  22.4407673  43.9329433  22.1567941  23.1688190
  16.0953081  57.2071791  46.6381454  15.8577991  56.6746283  45.8790588
  15.6074381  58.0223322  46.5209293  62.0719433  31.9145584  46.1522245
  61.2386799  32.1335649  46.5692806  62.6583529  32.6298976  46.3984919
  58.4254408  31.3891459  50.2934122  58.0023575  31.8742800  49.5849752
  57.7340126  31.2622833  50.9430790  12.6704776  52.9363918  62.7013540
  13.2267606  53.1784725  63.4417486  12.7784324  51.9887495  62.6204395
  93.3586884 106.2126064  45.8358860  92.6572609 105.6498146  45.5080175
  93.2063770 107.0569992  45.4115725  28.1734633  90.9620953  50.0022125
  29.0887976  90.8755112  49.7359419  28.0574822  90.2970314  50.6807947
  44.3824148  19.4598281  38.8700819  44.7303963  20.3403449  38.7292647
  45.0446606  19.0234458  39.4060206  57.5289392  42.8673410  70.7276392
  57.6365805  42.0092154  71.1378336  57.0296812  43.3769417  71.3658285
   3.6801007  56.4010286  43.6500788   3.5779715  55.4999495  43.9564371
   4.5494282  56.4208889  43.2499456  48.5603857  20.2531934  43.0755568
  48.8897562  20.3633785  42.1835899  48.7391186  21.0912514  43.5021114
  47.9965639  34.8385000  22.4841070  48.5815191  34.0810990  22.4640703
  47.9793119  35.1035428  23.4037185  64.8855305   1.8580517  41.1801481
  64.5743656   1.7427233  40.2823114  64.2864323   1.3327606  41.7106009
  24.0689445  16.2240410  33.0802417  23.7404919  16.3667440  33.9679289
  24.6027493  15.4322958  33.1467676  47.8765488  45.8859253  41.5872812
  47.6543808  45.0413179  41.1954689  48.5941410  46.2186718  41.0482264
  88.7907124 107.8995419  64.2442036  88.5152340 107.4199200  65.0254202
  88.4410191 107.3889637  63.5139608  48.8762283  21.3290048  82.7996349
  49.0720844  20.8512235  83.6056137  49.2336226  20.7791543  82.1023846
  35.1226521  37.9260969  18.0620813  35.1470900  37.4006009  18.8617611
  35.0601244  37.2837377  17.3551869  45.2904320  45.2318907  45.7904625
  46.0613489  44.9025154  45.3284836  44.6144772  45.2925920  45.1154566
  49.2199898  26.5518260  37.9554415  49.5322847  25.8379221  37.3995233
  48.3079815  26.3288546  38.1418514  38.3782625  24.2429328  56.7487860
  37.9954267  23.7452936  56.0262728  37.9479742  25.0968933  56.7059135
  39.5501614  52.7264357  34.2390418  39.3239331  52.7568769  33.3094573
  40.4752398  52.4809027  34.2524981  17.1309459  60.3485632  25.4386735
  17.7419388  60.8618498  24.9100351  17.4271786  59.4441032  25.3365421
  46.3873911  25.1717210  34.4004846  45.8933830  24.3638873  34.2605066
  45.7195330  25.8558393  34.4471574  31.1780286  35.7634377  20.9675288
  30.4109836  35.2281761  21.1709237  31.3279152  36.2782645  21.7604494
  43.1065321  49.5093584  38.8383913  42.4745941  50.0894642  38.4137011
  43.9498043  49.9467516  38.7208962  72.8264570  51.2857723  45.0764513
  72.9008436  50.4854202  44.5567083  72.5568914  50.9838724  45.9438753
  39.9881053  57.4717093  35.6375504  39.8603964  56.5230703  35.6351757
  40.6606293  57.6245117  34.9737763  71.3560295  50.2691269  47.1683836
  70.6890154  50.4050398  46.4954424  71.2579298  49.3510628  47.4208879
  47.7198792  52.4638987  31.1036325  47.7525043  53.1898308  30.4805803
  48.2485151  52.7602386  31.8445492  77.2638655  66.6374493  27.8582764
  78.1433487  66.7588091  27.5004911  77.3005438  65.7899809  28.3017612
  60.2325821  52.1337032  33.7745237  59.3150902  52.1896172  34.0415645
  60.2854013  52.6719666  32.9847646  54.4628143  73.4012556  54.4576406
  55.3004265  72.9388618  54.4288540  54.5747757  74.1373444  53.8560867
  61.9561863  57.6852942  37.6570034  61.6330957  58.1898642  36.9105101
  62.1907234  56.8341064  37.2872758  56.8588018  71.7326164  51.0924149
  56.6428328  71.6100883  50.1679802  57.6069212  72.3297071  51.0864973
  31.6902494  66.5387964  26.9601297  31.8580866  67.4142313  26.6113091
  32.5521898  66.2167788  27.2239447  22.8296137  66.2011242  37.0757103
  23.4241128  66.7698240  36.5864444  23.3969545  65.5275059  37.4506736
  54.1331816  38.0029202  43.8588667  54.9925613  38.2342982  44.2112350
  53.6473656  37.6684141  44.6127367  33.2434869  15.3563178  57.7848482
  32.5594950  15.2870214  57.1188259  33.9115000  14.7290111  57.5083017
  60.1690769  60.1575899  43.8970947  60.9851503  59.6864414  43.7289524
  59.9485540  60.5617189  43.0578804  65.6781960  56.3788557  37.0989513
  64.7694826  56.1081696  37.2300982  66.1087036  55.6047630  36.7360878
  59.7814608  61.4666319  48.9621305  58.8439369  61.4763403  48.7692928
  59.8905945  62.1197557  49.6533298  81.4778233  71.3686371  44.8080540
  80.5488396  71.1530590  44.8902559  81.9278049  70.6791687  45.2962971
  19.4741035  24.5864058  93.7165451  18.6737442  24.9588609  94.0865898
  19.1662312  23.9259577  93.0958462  52.2278976  62.4125433  26.1907029
  53.0635977  61.9788980  26.0180950  51.6005802  61.9551611  25.6307864
  86.3761997  64.7634697  62.3502636  85.8077240  64.1658354  62.8359652
  86.0208893  64.7627115  61.4614534  74.2072821  53.6041927  45.6842422
  73.6626339  52.8360319  45.5124474  74.3194008  54.0148878  44.8269272
  67.0285988  80.7791328  60.1585340  67.4133062  80.7359409  61.0339546
  66.5637779  79.9481964  60.0599194  60.5074310  59.3302822  70.9559917
  59.7153902  59.5813370  70.4807281  61.1290312  60.0353003  70.7748985
  85.2732468  57.5714636  49.6202803  84.4160748  57.9954481  49.5787430
  85.5963898  57.5957918  48.7196064  75.9299850  80.3192616  62.1910334
  76.7039061  79.8583555  61.8672371  75.1922750  79.8596430  61.7900801
  80.8503246  74.3695450  61.4171028  81.3026333  73.7352133  61.9732189
  79.9574232  74.0320206  61.3460922  69.2600965  72.4542236  53.6839914
  68.6106634  73.0275536  53.2768488  69.8386717  72.1993494  52.9652977
  62.4518871  73.3475924  61.1817360  62.9088449  72.7778244  60.5630398
  61.6441488  73.5924196  60.7302380  77.1186304 102.5996780  40.2236223
  77.8971767 102.1856022  39.8512816  76.6047001 101.8720722  40.5739021
  82.7040863  64.5335770  58.3111668  83.2759285  65.2993011  58.2573938
  82.8215981  64.0875101  57.4724483  88.9373302  86.8305111  21.5400243
  88.1832409  87.2847080  21.1641335  88.6215687  85.9432793  21.7113447
  64.3578100  95.9342194  40.5350494  64.8298645  95.9679413  39.7030282
  63.4361744  96.0199738  40.2911758  68.7097597  63.2969427  43.6088085
  69.5024586  62.7822399  43.4573555  68.9716101  63.9566803  44.2510080
  25.5078363  85.6809235  47.1839666  25.7776189  85.6234360  46.2673759
  26.2330580  86.1288548  47.6194525  58.8461256  58.1997633  62.9085016
  57.9637957  58.5631180  62.9839993  59.0671444  58.2979393  61.9823599
  71.5358496  86.8658733  52.7608061  71.3674641  87.6973057  53.2042027
  71.7607880  87.1138954  51.8640804  74.0748739 100.4199409  47.6303005
  73.3912659 100.8391857  47.1076632  74.2468119  99.5926952  47.1804810
  65.4351091  51.2865162  51.1615324  64.9302340  50.7014132  51.7263269
  66.0870504  51.6773605  51.7432880  70.0831795  70.8853388  74.5520687
  70.1152515  70.4898262  75.4231405  70.7907677  71.5299606  74.5555067
  58.2190418  59.3786812  45.7026339  58.8159132  59.8973465  45.1632261
  57.3532772  59.5453691  45.3299379  93.6006451  73.5171843  55.6568813
  92.7080536  73.6306047  55.9834480  93.9535522  74.4057560  55.6108332
  58.6349440  79.9083328  51.9028997  58.5532188  80.6753063  51.3360643
  58.6479092  80.2667046  52.7903891  61.7996311  68.6179161  27.3633122
  61.9871378  68.6902142  26.4274454  62.6601410  68.5351658  27.7742958
   6.5604299  53.2578230  47.4699783   7.1509111  53.5327339  46.7685604
   6.1711806  54.0722895  47.7883625  23.4027886  65.0151348  42.4936056
  23.3090782  64.0635014  42.5365877  24.3325758  65.1564407  42.3153925
  75.3042316  87.8982735  41.9500542  74.9132824  87.7138424  42.8040886
  75.8931351  88.6356354  42.1104288  59.7632504  70.2659607  34.4654703
  58.8859177  69.8835802  34.4480371  59.8091888  70.7218027  35.3059053
  67.6250458  52.5468111  43.7221766  66.7701721  52.9550505  43.5852003
  68.1428051  53.2184076  44.1661596  99.9188805  99.8193073  41.3227177
  99.8558998  99.8725891  40.3690815  99.2316628  99.2022133  41.5740299
  64.1722441  83.6614895  42.5922871  63.3866930  83.1884098  42.8667545
  64.1074419  83.7000942  41.6380644  55.4066372  59.2317295  12.6851666
  55.6268740  59.1208696  13.6100662  56.2423229  59.1406298  12.2273803
  41.5444613  55.3393650  37.4733686  42.0695829  55.5495930  36.7011738
  40.7054901  55.0442934  37.1194005  64.5573616  49.2804909  53.4104013
  64.3765831  48.8794661  54.2605352  64.5138311  48.5539389  52.7887392
  53.9516783  68.1664228  49.8596239  53.2570219  67.8925037  49.2607450
  54.6265888  68.5362387  49.2904472  64.2921352  56.3310385  53.6077499
  64.1945076  57.2430086  53.3338690  64.0681362  55.8217478  52.8288507
  79.3193293  72.9444599  56.6244078  79.5604944  72.1050453  57.0161390
  78.6653900  72.7206707  55.9622049  92.8229427  68.3763742  60.3474617
  92.0145702  68.4591961  59.8415995  93.5157585  68.3417320  59.6878767
  77.6598787  54.3983412  49.6090603  77.2606134  54.2073631  48.7603235
  77.0901585  53.9651394  50.2446651  26.3013673  62.9534292  49.1247559
  26.7990971  62.7553940  48.3314896  26.6076446  62.3121786  49.7660255
  82.0365143  87.4006748  63.8304234  81.7472076  87.0339012  64.6658993
  82.9903316  87.3233509  63.8523579  65.1986170  51.4872837  44.8884535
  64.9080658  50.8562899  45.5469799  65.3891802  50.9560347  44.1153479
  59.2922258  65.8618927   4.5534629  60.2462244  65.9400654   4.5539495
  58.9850664  66.6751385   4.9541068  72.7860546  76.2457371  69.8815060
  72.4009562  76.7261887  69.1486359  73.7004280  76.5283060  69.8991060
  70.1836300  64.3719864   4.0568390  70.2409983  65.3273153   4.0737945
  69.3178129  64.1776228   4.4157490  69.5711470  50.5712461  45.0353861
  69.3010855  50.7449102  44.1336441  68.7631559  50.6372690  45.5443287
  62.2934675  57.8187466  45.6193304  63.2238150  57.8572321  45.3975105
  61.8427467  57.9813623  44.7906971  57.0143461  64.5129585  49.6091986
  56.8662643  64.0119696  50.4112673  57.5517941  63.9385605  49.0638065
  20.1905107  87.0386600  19.9397957  19.8872387  87.6235390  20.6341863
  21.0206413  87.4186325  19.6521509  73.2407618  52.6323175  42.5764036
  73.9558458  53.2589340  42.6870394  72.9587841  52.4307060  43.4686327
 102.2847652  96.5412140  95.8654881 102.4861240  97.3178673  95.3434849
 101.8605900  96.8845463  96.6518879  56.1301804  76.8568277   5.1321208
  56.2843513  77.7971697   5.2227652  56.0956955  76.5319443   6.0318404
  95.8050060  58.5817289  42.9425001  96.5755653  58.1679821  43.3314466
  95.4116344  59.0779877  43.6602879  71.4238501  67.6654863  45.0977707
  70.4764605  67.5290871  45.1066923  71.7862701  66.8519735  45.4485989
  69.0208197  72.3257685  65.0719595  69.1486502  72.3660040  66.0197306
  69.8887396  72.4956799  64.7057915  84.8017406  65.3977013  69.4087315
  85.4335976  65.4911661  68.6958170  83.9859295  65.7505465  69.0535212
  70.9200335  64.9392176  59.7936392  70.1973867  64.3949318  59.4809628
  70.9503746  64.7783566  60.7367373  32.9807281  86.3780880  30.3582811
  32.8228712  86.2740326  29.4199395  33.0117273  85.4832172  30.6966305
  74.3260479  65.0028706  42.2996855  73.9650154  64.5087862  43.0357361
  74.3315983  64.3800497  41.5728521  81.0417175  63.7631941  48.3798075
  80.3312874  63.1353378  48.5114193  81.7090702  63.5066319  49.0162373
  69.2811537  54.4901466  44.4680977  69.8981380  54.6849823  43.7626886
  69.8233175  54.4487381  45.2558661 100.2423573  45.6413746  55.9914351
 101.1696243  45.4652023  55.8321428  99.7921848  45.2502680  55.2427006
  62.1659184  69.4847345  57.3554993  62.2583246  70.4367399  57.3926592
  61.9580793  69.2290115  58.2541895  52.9483795  71.9213343  10.0627255
  51.9928551  71.9547510  10.0170481  53.2193756  71.6229200   9.1945428
  61.2123871  61.3624144  33.4611297  61.3072729  61.0371208  34.3563461
  60.8239651  60.6313753  32.9805660  66.3243246  86.6675091  55.9975147
  67.0395994  87.2469902  55.7351875  66.7558861  85.9471989  56.4570141
  73.6995983  59.9051619  47.2930479  72.9127026  59.9760103  47.8334188
  73.4922123  59.2210531  46.6564751  76.6333055  76.5405846  42.9656982
  75.8846045  76.1377096  43.4054422  76.6641808  76.1163139  42.1082163
  60.3030634  74.5360899  42.4216938  59.5596457  74.7490883  42.9857826
  60.0200653  73.7622786  41.9344950  55.3441477  89.6450996  40.5717325
  55.4652977  89.6770573  39.6227694  56.1842823  89.9312782  40.9302139
  70.0515509  73.4005213  68.4989595  70.8929014  72.9605007  68.3775568
  69.9504375  73.4662294  69.4485331  52.9154348  55.1045132  66.4438534
  52.6637983  54.8845863  65.5468893  53.2919502  55.9821320  66.3786364
  72.6773834  82.0607662  68.6602688  72.7172089  81.1066055  68.7252378
  73.4780979  82.3027802  68.1949472  81.7569447 103.5552502  18.5774088
  81.7123413 104.4881153  18.7871945  81.7243671 103.5229492  17.6213086
  69.7264624 105.9333801  17.3546231  68.9362240 106.3076782  16.9651890
  70.4321480 106.1957264  16.7635143  58.0284214  78.8768911  43.1188202
  58.2204390  78.1617260  42.5122738  58.8227510  79.4109964  43.1185102
  86.5653038  66.1338377  44.3636799  85.6360626  66.1872196  44.1402960
  86.6912651  65.2291250  44.6497917  51.6642475  56.2241030  32.7649689
  51.3768625  57.0936966  32.4866724  52.5774097  56.1719275  32.4827528
  84.3649578  71.8548870  57.9722834  84.2379093  72.7198458  58.3620739
  84.0873814  71.2421703  58.6532831  61.5535069  93.5232544  45.0421381
  61.8140173  93.5101128  45.9631109  61.4705658  94.4529438  44.8299313
  70.9354353  56.2533283  55.2212954  70.8678293  56.2662268  56.1760187
  71.6862297  55.6872988  55.0419760  67.5379419  52.0775604  49.3332434
  66.8453121  51.7551756  49.9099255  68.3366776  51.6685724  49.6663857
  22.2513723  87.7965832  48.7274790  21.4415240  87.8888416  48.2256174
  21.9723439  87.8379917  49.6421719  66.6437054 105.8626556  19.0044975
  67.2862005 106.1157608  18.3416522  66.8476105 106.4152336  19.7590232
  55.7158756  73.8015127  30.0010324  54.9891186  73.9907694  30.5945301
  55.7374763  74.5485687  29.4029713  77.4622822  61.2602711  67.3161650
  76.7263937  61.0739136  67.8992367  77.8410721  60.4018784  67.1266794
   0.3367623  99.8808289  23.3339381  -0.2717299  99.3998146  22.7730465
   0.6950654  99.2170429  23.9232159  83.7667942  96.8435478  39.5232248
  84.7189999  96.8086815  39.4320083  83.5025120  97.5939465  38.9909768
  64.9773169  63.3733559  56.1367369  65.0431824  62.8958845  55.3097486
  65.7100582  63.0484152  56.6599321  66.4634180  58.8786459  32.2064257
  67.0502567  59.5910168  31.9526958  65.8435249  58.8088894  31.4804101
  92.1037674  68.5260201  20.1167583  92.3622894  69.3596220  20.5098343
  91.6334724  68.7724113  19.3202972  60.0588036  47.5045633  35.2952647
  59.1482306  47.2239733  35.3867102  60.0092554  48.3196592  34.7958684
  75.6690311  62.4594879  48.9348125  74.7510433  62.1902275  48.9027023
  76.1519814  61.6466331  49.0840054  57.1753502  56.4335299  53.0453491
  57.5413752  55.9012985  53.7517405  57.9124498  56.5865707  52.4541664
  58.5923719  54.3234062  36.8140888  58.8535261  53.5524750  37.3177624
  58.9619970  54.1771126  35.9433389  67.2763777  36.6426969  84.5912838
  66.5949202  37.2241497  84.2539978  67.2945976  36.8157506  85.5325317
  65.0650215  71.9117069  25.9536123  64.3923759  71.8791199  25.2733755
  65.8853912  71.7517805  25.4870892  82.4754429  83.5165787  64.8606873
  81.5883541  83.8586903  64.7498894  82.5186348  83.2564354  65.7808447
  69.3301249  69.8090315  63.9579391  70.2575874  69.8293304  63.7220669
  69.1468668  70.6897116  64.2851210  84.7596645  62.9401112  40.4870510
  85.1359081  62.2701788  39.9162078  85.2103329  62.8228426  41.3233376
  85.0537872  66.5746260  56.5256166  84.6404743  66.5453959  55.6627369
  85.4510307  65.7100677  56.6303205  76.8491125  78.8911915  29.2880225
  76.6525888  79.6424389  29.8477054  77.7535915  79.0313625  29.0078449
  68.4040689  67.8901339  44.9362135  68.2628679  68.5519266  45.6132078
  67.6343870  67.3236990  44.9907494  57.3633671  55.6195164  41.3691902
  57.6491594  55.9173584  40.5055666  57.7847767  56.2221575  41.9819450
  36.8846083  58.1421375  28.8316679  37.4028587  57.3588896  29.0165257
  37.3256445  58.5508919  28.0869293  91.6333199  93.6308575  36.9705534
  91.1320591  94.4256496  37.1529555  91.9673824  93.7569141  36.0824418
  63.1527615  83.7047291  15.4160058  63.2375193  82.7597713  15.2890921
  62.5134516  83.9783382  14.7582412  28.5352588   4.1515237  55.0537205
  28.9321566   4.9161214  54.6364737  28.8052011   3.4133929  54.5073462
  54.4062614  96.9659042  46.9588470  54.7975492  96.3650417  46.3247395
  55.1095772  97.5785446  47.1738720  46.7443991  90.9090137  21.5838361
  45.8835220  91.2676144  21.3681412  46.6756678  89.9778652  21.3729763
  44.5344353  97.2059250  21.3063145  43.8471031  96.5425587  21.2449718
  44.0962887  97.9710484  21.6789389  59.4977617 103.0858612  44.2787933
  58.5899019 103.3650494  44.3974352  59.8256111 103.6338043  43.5657024
 108.3040810  70.1420069  22.5656295 108.2923317  69.7499084  23.4387565
 109.1717529  70.5396843  22.4933100  63.3276463  55.0673723  46.8825150
  62.6345301  54.7062206  47.4351358  62.8619480  55.5162764  46.1769342
  67.2164202  64.7296619  52.0198202  67.6667500  65.5583668  52.1831846
  67.1677494  64.3101311  52.8788042  62.8353405  50.9729576  41.1437893
  63.0863857  51.7043829  40.5796719  62.7446795  51.3616371  42.0138121
  92.7057934  67.9048061  30.5817723  92.9911709  68.7439871  30.2204347
  91.7564583  67.9017448  30.4593658  63.8981533  73.3874750  68.1618452
  63.2810926  72.9581499  68.7544298  63.7800837  72.9369402  67.3256016
  60.7306385  73.1513834  68.3097124  60.8691168  72.9196024  67.3913813
  60.8752203  74.0970325  68.3424854  24.4901538   1.4381662  57.8344774
  24.1987348   1.4843136  56.9238853  24.4955277   2.3483753  58.1306601
 100.2580261  53.2742500  47.5546885 100.2813625  54.2218113  47.6881742
 100.7233906  53.1370783  46.7295504  62.0394325  63.1525564  56.0295630
  62.6812649  63.8626575  56.0358858  62.2215509  62.6579809  56.8286037
  61.9062948  60.0338697  63.0452824  61.7568493  59.1429853  62.7287102
  61.4801121  60.0582647  63.9020252  54.4000483  55.6299400  38.6920261
  53.4694719  55.8326387  38.5962510  54.4431543  55.0593615  39.4593692
  61.0833788  56.2489367  41.4275408  60.4111958  56.4900875  42.0649147
  60.6869316  55.5430984  40.9168005  52.0814753  71.9823313  18.0326402
  52.5818443  72.4981737  17.4003685  52.7286530  71.7048454  18.6810184
 110.5490875  62.5394440  61.8257713 110.8896732  61.7741442  62.2889614
 109.6455193  62.3072577  61.6115808  77.5464916  58.7469101  49.2153168
  77.4949360  58.5643673  48.2770967  78.4821987  58.8511753  49.3879700
  58.8146830  98.5027885  72.2725201  59.4045496  98.9756489  71.6854191
  59.3215036  97.7436829  72.5608253  91.4176750  68.9146948  42.9466486
  90.6539154  69.3281555  43.3490801  91.6264153  69.4740343  42.1984529
  57.4904490  83.5598278  52.4997997  57.8976488  84.4147968  52.3603249
  57.3213863  83.2283211  51.6178942  74.6863413  61.7636633  45.2928066
  74.4457150  61.2059450  46.0325909  75.6432533  61.7817783  45.3078079
  66.7623234  51.1612701  41.0466146  67.0943642  51.3530874  41.9236517
  65.8328390  50.9741306  41.1780405  62.8020144  63.6699867  69.7513103
  62.3525047  64.1601849  69.0629196  63.7268400  63.8881350  69.6357918
  49.2503023  85.8135414  37.6761127  49.6703482  86.3196182  36.9806433
  49.8033428  85.9569168  38.4441113  78.2444668  69.3626070  47.5031757
  78.2550907  68.4674120  47.1644354  77.3275995  69.6307707  47.4425459
  59.4350338  81.0771656  49.4434881  60.1104069  81.3401413  48.8182306
  58.8556767  81.8367195  49.5038223 100.1074028  26.5855098  55.2055502
 100.9616947  26.6580200  54.7799253 100.2243042  27.0164180  56.0522413
  67.5689650  71.9098425  25.1265788  68.1064177  72.5681591  25.5670333
  67.9571486  71.0732460  25.3828073  52.4374342  54.6911526  41.1518049
  53.1261969  54.0574026  40.9512949  52.8506947  55.3123045  41.7514896
  77.2855902  85.2550888  25.8072329  76.9664764  84.8171902  25.0181532
  78.1124735  85.6567574  25.5404711  66.0864782  62.2999334  44.3019056
  65.7827187  62.8637695  45.0132799  67.0213413  62.4913931  44.2270660
  57.3532009  60.2290726  50.6778908  58.1299162  60.0977039  51.2216663
  56.7126656  59.6057987  51.0206366  99.5754910  73.4450960  27.7262306
 100.3223896  73.1407499  28.2417393  99.8818588  73.4150553  26.8198824
  69.5303202  76.9682217  47.3209333  69.0164232  76.4053345  46.7418814
  70.0779009  76.3621712  47.8200197  54.3754911  64.7659874  25.9983659
  53.6752748  64.5305157  26.6070318  54.3900442  65.7230234  26.0086918
  61.7994022  70.5745888  37.8343391  62.6817703  70.4892302  37.4732733
  61.6628408  69.7652817  38.3268905  44.5860672  64.9678230  26.1921501
  43.6840630  64.7221947  26.3977861  45.0589180  64.8551035  27.0167327
  61.1517715 107.2993088  41.5254688  61.4016199 107.0435905  40.6375408
  60.2863836 107.6960754  41.4258957  77.0310783  68.1872511  52.7409410
  77.8822565  68.2521009  52.3079014  76.7569923  67.2816563  52.5960016
  62.9606199  62.9492760  51.1971378  63.7619591  63.3626032  50.8758163
  62.2900486  63.2010603  50.5621767  55.6365728 110.8454227  56.6512918
  56.5680695 110.6519699  56.7567587  55.2979469 110.1165295  56.1314011
  83.1574917  90.1835823  38.5557342  82.5784302  90.3430271  37.8104138
  83.6585045  90.9940243  38.6474586  66.9533825 109.1236115  57.2060156
  67.7104044 108.5565376  57.3529053  66.5832186 109.2596722  58.0781937
  56.6965151 106.8119526  69.5428038  57.5300980 107.0874023  69.1613674
  56.0409498 107.0617962  68.8916206  16.4973021  22.5415850  92.9871655
  17.4529541  22.5027776  92.9490185  16.2672746  22.0252538  93.7596512
  95.5038643  59.5894766  37.1049857  95.2809906  59.4578457  36.1834502
  96.4608574  59.6023226  37.1204805  85.6902790  76.6943932  56.9368458
  85.1399136  76.7020321  56.1537266  85.6740379  77.5988293  57.2498322
  61.6048765 107.1658134  55.1949263  62.0499802 107.7089310  54.5444345
  61.1564207 107.7919674  55.7633066  81.7614651  67.7853489  49.0058899
  82.6826096  67.8842402  49.2465925  81.2978363  67.7492428  49.8425341
  63.4469652  65.7068062  56.1249542  63.3010626  66.1415529  55.2847528
  64.1705656  65.1024485  55.9594488  60.9532833 106.2430000  50.8427906
  60.9541512 106.2255955  49.8857498  61.8797112 106.2610817  51.0828543
  76.6392136  84.4571400  72.3981094  76.9660854  85.2221680  72.8715181
  75.9022427  84.1467857  72.9242182  72.2320318  89.9600792  45.5933332
  72.4313927  90.7670879  46.0679007  72.3354435  89.2669964  46.2453985
  82.7910805  84.0306091  41.4765739  82.5754070  84.3213558  42.3626804
  83.7200260  84.2383194  41.3757944  75.5345106  87.5593662  54.4022417
  76.1422682  88.0098343  53.8157749  74.6668434  87.8290558  54.1011524
  69.6572971  66.5310764  55.1620483  70.4006481  66.1578655  55.6357336
  69.6443272  67.4517107  55.4237604  64.5432711  91.8746185  49.3204927
  64.1005516  91.1210155  49.7107744  64.9545527  92.3206425  50.0608587
  83.3997536  72.1124268  65.6563473  83.9989281  72.7600622  65.2851534
  83.9714241  71.4736032  66.0821772  75.2589512  78.3087683  47.3277473
  74.7073746  78.8644648  46.7771149  76.1345577  78.6874008  47.2491217
  79.0903664  83.3437061  35.5236316  78.5679913  83.8508034  34.9021769
  79.8123932  83.9257431  35.7605672  81.9863033  72.4429131  63.2809639
  81.6416168  71.5546799  63.1889343  82.4835682  72.4233341  64.0986252
  97.5856495 103.1273079  52.4932766  98.0563164 103.8910580  52.8270388
  96.6609383 103.3569908  52.5848293  89.4698620  92.4855137  44.1993189
  88.5722828  92.8164768  44.2315578  89.3998814  91.5750599  44.4863892
  62.5803471  86.6653538  34.4994354  63.2511759  87.1641541  34.9657130
  61.8465376  87.2738075  34.4125867  65.2287579  63.9013672  50.2424908
  66.0777092  63.7738609  50.6658792  65.0033808  64.8130751  50.4274797
   8.5163337   5.5307913  59.1769409   7.8173351   6.0986406  58.8526249
   8.4424049   4.7351089  58.6500072  65.6819582  93.7724400  42.3698187
  65.1906109  94.5601463  42.1367264  66.4079714  93.7497807  41.7464209
  82.2743034  74.4970989  34.8883772  81.9485855  74.7492695  35.7524085
  81.5265274  74.0765190  34.4638968  72.0121908  89.6512222  26.9128036
  72.8883410  89.7896576  26.5530396  71.4475250  89.5710945  26.1440635
 117.8042037  63.8620949  60.0343847 117.4971743  63.0454922  59.6405268
 117.2220706  64.0014553  60.7813358  75.7612228  60.8639050  73.9296341
  75.8620930  60.5691671  74.8347235  75.0281954  61.4787912  73.9582586
 116.0259056  89.2098427  36.8732214 116.2426662  89.7181129  36.0916162
 115.1574707  89.5213127  37.1282506  80.6116676  71.3100672  60.0821972
  80.8965302  70.5856609  59.5251322  80.7409096  70.9906387  60.9752226
  88.3097553 102.8451061  79.7256088  88.9428329 103.3150387  79.1828346
  88.1394196 102.0338726  79.2469501  58.9333200  85.6739998  50.4571295
  58.7747192  85.4081249  49.5513773  59.4437075  86.4804840  50.3841352
  10.6675088 110.5438042  39.3947196   9.7710133 110.8420372  39.2411566
  10.6962299 110.3431034  40.3302050 106.3768101   2.6327386  53.8437319
 105.6858063   2.2244926  53.3221197 106.0545635   2.5894794  54.7440147
  74.3556881  77.9105759  57.6307011  74.5851612  78.8155508  57.4195290
  74.0818739  77.5317526  56.7953825  49.5296097  94.9831390  27.0306492
  50.3070450  94.8269749  27.5667810  49.5506859  94.2902088  26.3706255
  74.7234631  93.2283211  38.8018107  75.1171064  93.9188671  38.2684875
  75.3502083  93.0870533  39.5113587  68.4198093  72.1805811  48.8103676
  67.5355387  71.8542719  48.9771652  68.9958572  71.5049553  49.1680384
  38.1052828  70.9931374  27.6107121  38.6304426  71.5659428  28.1695747
  38.2386112  70.1172209  27.9729676 112.1112823 100.0355148  20.0943351
 112.0600605 100.9890652  20.1603675 111.3564110  99.7916317  19.5586836
  82.5147724  87.5203896  42.1060371  82.8772545  86.6684151  42.3489237
  81.5761471  87.3616123  42.0059967 108.5046959  57.2772980  53.0000353
 108.6222744  58.0454397  52.4411392 108.3914280  56.5505075  52.3875141
  76.9741869  64.2532682  46.7792749  76.5041304  65.0869513  46.7952490
  76.5925312  63.7493134  47.4980259  26.3988614  61.4458084  36.1121869
  27.1477866  61.5414762  35.5238056  25.7413435  60.9860420  35.5901527
  92.8072262  67.2676754  57.3850775  92.9288864  66.4019775  57.7749443
  93.5926914  67.7549076  57.6338148  77.0152807  78.5367155  50.8883619
  77.1563625  77.5924349  50.8200979  76.0769653  78.6273050  51.0544491
  51.3299942  52.7730608   4.3873078  51.2077141  52.2743845   5.1951468
  51.6745234  52.1354198   3.7620515  40.8875036  90.0271416  25.6911802
  40.6888199  89.0947247  25.7768774  40.1119041  90.3997517  25.2718425
  58.7431812 109.0129757  54.1752768  58.0010605 109.5608139  53.9196205
  58.7852049 108.3361626  53.4997177  92.5411701  97.5113487  75.4353905
  92.3628998  97.3171520  74.5152044  92.3366356  98.4418583  75.5277872
  79.7407007  77.2546053  54.0690041  79.7459412  78.1058931  53.6313868
  79.0139008  77.3087645  54.6895409  85.3214550 100.8634090  54.0893316
  84.7221088 100.1171494  54.0782595  85.2200317 101.2390995  54.9638605
  61.9723892  59.3919134  74.2064857  62.6433420  58.8584137  73.7805319
  62.0701218  60.2589035  73.8127804  81.1956596  61.0674667  51.0361671
  80.8444786  60.5281544  50.3276110  81.5873051  60.4397106  51.6434288
  81.5722752  87.7885914  46.6498327  81.0432053  87.9432583  47.4323893
  81.6150570  86.8353462  46.5741920  78.1383944  69.1100597  24.3009424
  78.7011671  68.6265135  24.9056768  77.3000240  69.1795588  24.7576046
 108.1051731  62.1290731  36.3382149 107.4365044  61.7002153  36.8722558
 107.9594231  61.7907476  35.4547405 112.4398232  51.5578222  20.9839892
 112.4059486  51.5913343  21.9400024 112.0991707  52.4068594  20.7023454
  71.4214659 101.2374115  59.7969818  70.7924318 101.6161156  60.4110956
  71.5345955 100.3351593  60.0959301  93.4425735  78.6629629   0.2678154
  93.9789677  78.5631895   1.0543017  93.7802124  78.0029583  -0.3376825
 111.0418415   8.7618643  63.5490608 111.3999748   9.6024382  63.2637358
 110.7136250   8.9288652  64.4325829  77.1070051  75.0300217  72.4562550
  77.7205849  75.1502180  73.1810331  77.3010588  74.1547775  72.1208048
  61.9372511  89.6906090  34.6613622  62.1575594  90.5083561  35.1074338
  62.7598286  89.4058037  34.2632532  66.5272045  86.0347366  77.1149826
  66.6884470  86.2035751  76.1866903  67.3707485  86.1957455  77.5377560
  87.8476524  80.4145813  45.9598446  87.9476929  80.1424980  45.0476027
  88.5860825  81.0031223  46.1166048  62.9429293 102.9005051  16.5090370
  63.5317612 103.5271835  16.9294918  63.0633354 102.0897961  17.0034909
  51.2482691  81.3255405  51.5872812  50.3831053  80.9516811  51.7544556
  51.4475727  81.8301773  52.3758650  92.1903515 101.7020130  19.6881592
  92.4485493 102.3123837  20.3788137  91.3839340 101.3008595  20.0122094
  72.0456553  64.0406036  55.1026249  72.0487881  63.3600616  55.7757425
  72.5764370  64.7459698  55.4727077  98.1731033  93.6894703  21.5915370
  97.2856140  93.7995243  21.2502408  98.4948444  94.5825481  21.7145967
  64.3239689  73.0802345  42.0292473  63.8573837  73.8841057  41.8005085
  63.9610386  72.8257990  42.8776455  49.1255665  82.0361805  20.7793498
  49.8739958  81.8710995  20.2059150  48.7480307  81.1705685  20.9355998
  77.2803545  80.8825588  43.7825775  78.1953907  80.7051468  43.5647202
  76.9911861  81.5039253  43.1143522 107.9854012 104.8427010  84.2897606
 107.7385712 105.5290031  84.9096680 108.8899612 105.0476933  84.0531540
  96.6037178  74.9828911  57.0638323  97.1835518  75.7427120  57.0118618
  95.8337402  75.3009844  57.5351954  65.2038908 109.5389938  24.2306232
  64.8657894 109.9373531  25.0326395  64.4214964 109.2882347  23.7394905
  98.8069916  85.6186581  42.5869083  98.2630730  84.9137974  42.9384232
  99.5673180  85.6468487  43.1677294  28.5776496  93.5482025  44.8633671
  28.4954047  94.4939613  44.7409153  27.7931833  93.1844234  44.4528675
 101.1380672  83.4793186  59.0697718 102.0501518  83.2157326  58.9478922
 100.7599545  82.7889061  59.6143723  79.4514656  66.8586636  36.5444303
  79.7983122  67.6085043  36.0610342  80.1684284  66.2244987  36.5494323
  29.5077062 101.0176945  24.9124455  28.5532784 101.0005665  24.8417091
  29.6907783 100.6430531  25.7740498  81.1443424  75.0226974  54.0118504
  81.3767910  74.8826170  54.9297714  80.6399632  75.8362246  54.0139627
  61.5453482  75.5114889  57.6471567  62.4687052  75.4772377  57.3972225
  61.5573215  75.7325792  58.5783958  72.9909658  69.7715616  37.2601748
  72.3658609  69.8603487  36.5407395  73.8478279  69.7654724  36.8335748
  69.1755295  84.6157455  61.5991831  69.5723915  83.8197327  61.9528913
  69.4030142  84.6040535  60.6694841  82.1392155  95.2271271  51.7793751
  82.0115757  94.3220615  51.4951134  81.6673088  95.7504559  51.1315584
  62.9423857  86.1530972  24.4884610  62.3526812  85.6885529  25.0823331
  63.5623312  86.5982151  25.0661922  49.9452019  60.0707674  34.2078924
  50.7485247  59.6073389  34.4448185  49.9550247  60.0933027  33.2510090
  95.0495911 102.0011902  61.2493992  94.6828079 102.2706509  62.0914793
  95.6769276 102.6900482  61.0299587  72.0360851  97.2584343  48.8823032
  72.4310398  97.0169544  48.0444908  72.7801418  97.4739742  49.4445753
  69.5339155  58.6880350  86.4511776  70.0441074  59.2699814  87.0144463
  69.1914940  58.0197382  87.0447731  68.3177376  69.3596268  50.4747486
  67.4785089  69.7154903  50.1827097  68.6084843  68.8062048  49.7498846
  55.3662682  69.2424583  42.2898245  55.9990692  68.8117743  41.7151070
  55.2619410  70.1181459  41.9176435 100.3412247  58.8457346  29.5887327
  99.8431301  58.6875677  28.7867880  99.6992397  59.2013931  30.2032137
  46.4137506  67.2758532  38.7658238  46.7793036  68.0339575  39.2217660
  45.9057522  67.6510143  38.0465007  95.3440857  62.6504850  48.9185667
  96.2144470  63.0449820  48.8631868  95.4186535  62.0032644  49.6198368
 106.8884754  90.7821178  78.6547804 105.9500885  90.8528423  78.8299131
 107.2540569  91.6083431  78.9708757  94.2827415  84.8257065  18.9680052
  94.4664955  85.5618000  19.5516384  94.8427773  84.9779606  18.2068205
  75.7367992  84.4206238  45.2064371  76.4532137  84.8093033  45.7083464
  75.3614902  83.7643719  45.7935572  49.5347548  90.3094673  53.3639193
  50.0869226  90.7303524  52.7049828  50.0953054  89.6379757  53.7526655
  72.7433872  93.1803989  30.1057601  73.3649015  92.5493431  29.7428226
  73.2001495  94.0202999  30.0592613  68.3782721  88.6591816  62.1755028
  68.7656069  89.2604065  62.8116894  69.0955973  88.4480572  61.5779257
  57.8744316  59.6774340  40.1197100  57.7032614  60.0440311  39.2522168
  58.2753420  58.8259649  39.9450612  78.0956030  53.7224531  77.4646187
  78.6439657  53.4022617  78.1808615  78.3860302  54.6237993  77.3251152
  76.3271904  71.9601059  44.1636992  77.0293188  72.4172592  43.7008286
  76.0744095  71.2497616  43.5739946  89.0144157  69.4930124  18.4624827
  88.6808205  69.1502571  19.2916179  88.4214592  70.2121782  18.2446980
  75.6317234  82.0219612  51.0238647  75.4455328  82.9608727  51.0204649
  76.4932251  81.9501114  51.4348316  26.3320231  37.4378610  89.7589397
  26.2615561  38.3664823  89.9801445  26.9328427  37.0807791  90.4129601
  98.7954235  48.7894344  68.9422655  98.8362980  49.3247461  69.7347307
  99.7028828  48.7356091  68.6425161  94.7756672 105.3737259  51.6034317
  94.7625256 104.4986153  51.9910336  94.6572018 105.2221680  50.6657600
  55.3567982  68.0332565  20.7697225  55.2783203  67.4989223  21.5600157
  56.2834644  68.2700729  20.7317662  68.6850786  77.4946070  51.0397053
  68.6546469  76.5731478  50.7823706  69.5330858  77.5945950  51.4722776
  67.6217175 100.9276867  52.7386379  67.3008204 100.9301662  51.8368340
  68.4421492 101.4194298  52.7022696  91.8905735  83.5370922  25.2057219
  91.9131374  82.9932404  24.4183564  92.0995998  82.9342747  25.9192681
  64.0385151  74.0208960  49.5017147  63.9796638  74.9762487  49.4932747
  63.3205032  73.7417078  50.0698185  66.0457325  72.6003695  16.5886438
  66.1109447  72.4835920  15.6408346  66.9278288  72.4197483  16.9134748
  49.6867895 104.7387028  70.1159048  50.5031347 104.2469406  70.2052689
  49.1045761 104.3578720  70.7733440  52.1881342 109.6964264  44.3157768
  51.3222504 109.4280529  44.0084410  52.6385546 110.0000095  43.5276270
  82.9490852  45.3021145  95.6802082  82.4077702  44.6535158  95.2301788
  82.4420261  46.1125231  95.6315613  44.3170309  78.1266546   9.0956175
  44.9510860  78.0757856   8.3803397  44.5030880  77.3585796   9.6356893
  89.4355965 108.8202286  70.2634621  89.7710514 109.4110012  70.9377670
  89.0510845 108.0925846  70.7522535  62.2395182  60.3097391  51.2337875
  62.2433758  61.2653589  51.2886524  62.7120018  60.0230551  52.0153284
  20.5744338  19.4734538  68.1774664  20.5265045  19.4527614  69.1332388
  20.7398367  20.3921843  67.9657793  54.3998194  73.2036257  47.0924187
  54.4209337  73.1628275  46.1363220  54.5898247  74.1191244  47.2973299
  73.2549572  60.0852585  69.1409349  74.1223478  59.8318720  69.4566298
  73.1825590  59.6709347  68.2810926  96.9207001  80.6944847  10.8768225
  96.2902260  80.4406357  10.2028120  97.4081135  81.4205360  10.4875779
  57.7373695  55.6572676  29.9881172  57.1898270  56.4384222  29.9092317
  57.2538137  54.9774408  29.5188165  69.7590971  68.9807320  56.2236404
  70.2270317  69.8154879  56.2449074  69.5185614  68.8176870  57.1356678
  72.4880934  74.3090296  56.6978455  72.0946598  75.1791048  56.6314507
  72.4623585  73.9657450  55.8046913  75.0357676  94.5058918  46.0281944
  75.1190805  95.4557991  46.1116505  74.8011112  94.2079067  46.9070387
  98.8008499  91.1995029  82.6224232  98.9664936  91.7415333  83.3937836
  97.8524685  91.0698509  82.6199722 102.6035023 106.3895893  79.4526386
 101.7673016 106.8414497  79.5658207 102.4514580 105.5126190  79.8048258
  56.2006664 104.4144917  65.5265713  55.6700706 105.2077866  65.5998802
  55.5788612 103.7332535  65.2706242  93.5364628  56.1430931  63.7183332
  93.9935303  56.2717056  64.5494604  92.6555538  55.8656645  63.9698648
 101.5460014  96.2706757  14.5891881 102.0691299  95.9181786  13.8692486
 101.1390972  97.0575905  14.2266691  65.2854967  74.0848160  53.7956667
  65.9607935  73.8499737  53.1592226  65.2862358  75.0419807  53.8034868
  60.4375792  83.8436604  38.4272909  60.8814716  83.0824852  38.0533838
  60.1267433  83.5439491  39.2815638  73.4934187  74.0535736  41.4655924
  72.5836372  74.0500069  41.1680841  73.8724422  73.2604885  41.0866594
  88.5697556  82.0337963  26.5050817  89.3145180  81.4533234  26.6619754
  87.8667355  81.4498329  26.2205124  67.9290724  66.5175152  49.6218300
  67.2317457  65.8970928  49.8340654  68.6646652  66.2484837  50.1720667
  83.8225460  98.3754444  45.0488901  83.9649010  97.5830746  44.5310974
  84.2781544  99.0635395  44.5639372  61.7641163  66.3583422  61.6237783
  61.7924690  66.4873314  60.6757307  60.8577299  66.1093569  61.8046188
  33.6942291  96.4683723  30.8260155  33.1222582  96.3385391  30.0695610
  33.1895733  97.0300770  31.4142609  39.2094779 102.6770878  16.5582490
  38.5632372 103.1894779  16.0723901  39.6292996 103.3107662  17.1399999
  84.5574951  67.0760632  26.5467238  83.8114548  67.4720097  26.9971442
  85.2325249  67.7545977  26.5593219  62.8934479  85.5805111  51.3971233
  63.1962252  84.7478294  51.0349226  62.9400826  85.4602337  52.3455906
  70.8293629  80.8975601   1.8185340  71.0538006  80.0483322   1.4381701
  70.6853819  80.7137012   2.7468112  95.7910061  69.8323679  60.5931377
  96.7342281  69.8843336  60.4386902  95.7124519  69.5830631  61.5139580
  31.1085010  94.7695446  56.5618515  30.9029675  95.6925297  56.4132452
  30.4324794  94.4683647  57.1689081  28.9542437  21.8929267  48.0901337
  28.9821315  21.9732594  49.0435505  29.2739820  21.0078907  47.9148912
  63.3383083 107.5878906  16.4967608  63.5008717 108.4968281  16.2445009
  62.5140333 107.6178837  16.9824588  72.8338242  79.3510437  36.0685468
  73.3322716  79.6352530  35.3023839  72.5445747  80.1647282  36.4814377
  55.4480124  86.8535900  34.4797993  55.2372265  87.7490807  34.7441888
  56.1042070  86.5647888  35.1140141  72.3671818  80.3731060  47.0923758
  72.2928667  81.3270664  47.1181679  73.2352352  80.2103806  46.7232847
  91.5086079  92.3119259  51.1075783  91.5780544  93.1403637  50.6331301
  90.6829166  92.3790359  51.5871191  90.4736328  10.3839004  34.0843368
  91.1070347  11.0035539  33.7223077  89.7809792  10.3369367  33.4253597
  60.0836802  92.6507378  34.1126585  59.9306917  91.8803787  33.5655093
  59.2845058  92.7380466  34.6322083  69.6494579  64.2603445  50.9119654
  68.7321043  64.3908024  51.1521149  69.8552179  63.3785343  51.2222958
 112.3699379   1.8154407  44.3543959 111.9819260   1.2475674  43.6886644
 111.7640209   1.7663676  45.0937748 110.6734276  81.6579819  86.8588734
 110.2279091  82.0695210  86.1183357 111.1218548  80.9025192  86.4788437
  98.6129284  57.5207138  55.5389786  99.4178486  58.0318642  55.6229448
  98.0526447  58.0480242  54.9695444  77.4990082 109.1787052  35.4704714
  78.4484863 109.2949104  35.5053425  77.1620417 110.0365925  35.2121520
  62.2827864  10.9336305  93.0934238  62.3840284  11.0504949  92.1487999
  62.2304535  11.8240845  93.4406853  77.8442097  67.8469896  43.0637789
  77.1993780  67.5225210  42.4351692  78.4355593  68.3893824  42.5419140
  85.3571701  96.0340405  44.2065334  84.6787643  95.4918003  44.6089840
  86.1114597  95.4507542  44.1224909  97.2626209  77.4030209  54.0587854
  97.0058632  77.4195194  54.9807596  97.9681015  78.0468130  53.9950705
  82.3866463  55.3561020  66.2071896  82.6728153  54.7663498  65.5096722
  81.5692425  55.7331419  65.8817291  77.4153519  68.2618475  74.8126125
  77.8836823  68.4915066  75.6152058  78.0448675  67.7481222  74.3066263
  89.4865227  82.5033665  55.9569836  89.0064335  83.3253288  56.0575914
  88.8432312  81.8239784  56.1590719  77.9334307  60.9590864  45.6628561
  78.0781269  61.2884235  44.7758198  78.4496021  60.1541710  45.7066631
  77.3751783  77.3369551  45.5963230  77.2712040  77.3375416  44.6447849
  76.7152786  76.7180824  45.9089899  72.0408964  96.1753559  39.3075681
  71.8998528  96.7804337  40.0357294  72.5750685  96.6694164  38.6856389
  74.9401331  74.7671747  37.8806376  74.8483324  74.0552378  37.2474313
  75.1772070  75.5289841  37.3517966  65.5217791  54.3361712  86.4298725
  65.4104710  53.4170294  86.6728210  66.4543915  54.5073032  86.5609550
  95.8232594  85.3353977  16.8306208  96.2689018  86.1055851  17.1833956
  96.3099861  85.1205730  16.0348964  81.8786430  92.1120644  36.4000559
  81.9694519  91.9129848  35.4682016  82.7753925  92.2542953  36.7030883
  83.4705734  64.1910934  46.3379860  82.7881527  64.8595476  46.3989067
  83.5530186  64.0177631  45.4002285  88.5459137  75.3516865  67.2678947
  88.2340336  75.1924562  66.3770485  89.1953754  76.0484600  67.1733284
 100.3958416  97.7944088  48.9239883 100.3977489  98.4659195  48.2418585
 100.3882027  96.9659805  48.4445286  88.4499073  67.4853849  61.3500500
  88.9867401  67.6133919  60.5679703  88.0578613  66.6201067  61.2324619
  85.4101086  89.0185928  22.4171448  84.7590351  89.3066502  23.0569530
  85.2871704  89.6042156  21.6700459  25.0399995  51.9459057  27.6874089
  25.9722757  52.1124363  27.5482726  24.9409533  51.0045767  27.5448322
  67.9965115 101.8024254  72.2022200  68.9523649 101.8528175  72.1963739
  67.7214336 102.3888683  71.4974880 101.7417526  76.9149160   9.5134962
 101.1155319  77.2797537  10.1387715 101.1996365  76.5808105   8.7988514
  61.2687874  59.1241407  66.1395693  60.8784103  58.3266163  65.7820845
  62.0871067  58.8312912  66.5405989  47.6934671  81.6822338  64.5045757
  46.9306326  81.9452381  63.9896536  48.2426834  81.1973858  63.8885260
  70.8659887  92.7623844  55.1879740  71.7331553  92.7584553  55.5932331
  70.3379059  92.1921539  55.7467175  46.9553471  83.1657696  13.0962682
  46.6734791  82.3576832  13.5249543  47.7764416  83.3942223  13.5319889
  98.3275795  83.1368160  24.4681025  98.2970428  83.8817596  25.0683999
  99.2209911  83.1425095  24.1245651  76.1413240  62.8885794  78.7193966
  75.5688429  62.3455000  79.2612123  77.0201111  62.5450087  78.8804150
  72.9723263  80.7624435  19.0977120  72.8923178  79.8710299  18.7582850
  72.9912710  80.6557941  20.0487638  72.8934193  88.6323357  50.2331018
  72.5141191  89.4994736  50.3760338  73.0755377  88.6024284  49.2938614
  59.5701885  93.8446903  25.8097172  59.9642706  94.6201324  26.2092400
  59.2311525  94.1541004  24.9697471  50.4809952  80.0413990  49.3495274
  51.1411381  80.6493282  49.6824884  49.6981049  80.2312660  49.8664999
  88.2342815  74.3349838  72.9349804  89.1478252  74.3785048  73.2174158
  88.1031036  75.1339531  72.4244213  76.6330719  92.3664761  71.7822838
  77.4827051  92.2554970  71.3556290  76.5915775  93.2989502  71.9944429
  97.3699665  93.0867290  36.6138887  97.0618153  92.8332043  37.4839497
  96.9457912  92.4676037  36.0197568 117.5692940   7.7909267  62.6980114
 118.2995033   8.3239734  63.0124569 116.7875099   8.2563990  62.9953194
  62.5096083  81.7029667  21.4088178  62.4369049  82.6565742  21.4486527
  63.4203434  81.5423107  21.1618710  99.7549915  68.3439112  46.1268997
  99.5160770  68.3556986  47.0537329 100.6466961  68.6912012  46.1049843
 109.8294437  82.6835868  96.0397814 110.3617323  82.6881692  96.8353188
 109.0058458  83.0959651  96.3002854 112.0789814  62.0063305  14.7064066
 112.3218155  62.9317427  14.7359765 112.8016376  61.5837908  14.2422378
  85.7249832  98.2549191  66.3225222  84.9753094  97.8519917  66.7605495
  86.1674118  97.5266838  65.8864546  70.7926369  81.4955807  29.7585082
  70.6527090  81.9377613  28.9211750  70.1524878  81.8927479  30.3490186
  68.5716867  90.7941055  64.0515232  67.8115654  90.3762245  64.4562721
  68.2056952  91.5225124  63.5498142  56.1460972  47.6329422  37.5187564
  56.5711403  46.8902588  37.0898080  56.6292953  48.3981895  37.2070718
  82.5764084  59.0407324  52.3467684  82.6203060  58.4727001  53.1159544
  82.5024509  58.4373760  51.6073608  92.3113251  44.8626852  27.0675302
  92.5703430  44.5244169  26.2103748  91.7139626  45.5840063  26.8698215
  46.8278313  66.6353941  10.1311707  46.7819262  66.2542200   9.2543405
  47.4224806  66.0595512  10.6118321  10.1715493   3.3815753  41.8497610
   9.9085689   3.6671147  40.9748125  10.7028019   2.6001078  41.6970825
  63.1921291  81.6758633  60.9391212  64.0795612  82.0343971  60.9267139
  63.1604815  81.0886383  60.1838779  64.8602962  81.0248470  39.9361300
  65.3592348  80.2079678  39.9332881  65.4682350  81.6756058  40.2870750
  90.5045986  94.9244499  16.1787450  90.5370712  94.2658424  15.4849029
  90.4573917  94.4167805  16.9888496  92.3393726  65.7574987  74.3899393
  92.1050835  65.4174566  73.5263968  93.2897186  65.8662224  74.3547726
  90.0666618  71.5241957  22.0986581  90.9098721  71.1825562  21.8011284
  89.5228577  71.5389824  21.3110733  91.8798161  76.5874624  34.7873831
  92.4704838  77.1018028  34.2371082  92.4484348  75.9485769  35.2171946
  99.5560741   7.0521086  58.7048197  99.6729088   7.2864765  57.7841377
  98.6079693   6.9804847  58.8152885  62.2935867  77.7061987  38.0341506
  62.3814440  78.4468269  37.4341655  62.7486229  76.9873285  37.5955129
  93.7284756  71.8125200  13.6628866  94.3248081  72.2202587  14.2908740
  93.3209133  71.0962963  14.1498649 114.0587711  24.9317908  55.4948235
 114.5323849  24.5135260  54.7758150 113.6542130  24.2057204  55.9695625
  84.3074226  87.0768833  10.3735638  84.2983627  88.0131340  10.5725241
  83.6730576  86.9767094   9.6637893  68.9581347  99.5271873  24.7110367
  68.4944105  99.8442936  25.4860449  68.4856939  99.9144173  23.9740944
  46.7137241  24.1982412  85.3141022  46.7474794  24.2084742  84.3575573
  47.6285887  24.1225052  85.5852509   5.7327241  17.2026980  46.7542648
   6.5000796  17.3956215  47.2929430   6.0766321  16.6910899  46.0219955
   5.3458047  92.7167320  49.3818998   4.6629530  92.2030544  49.8132753
   5.2433705  93.5989666  49.7388363  81.1827755  69.1275787  37.4756432
  81.6444016  69.9617910  37.3906207  80.2810955  69.3728542  37.6831102
  66.9513178 109.4127560  39.0703678  67.7955866 109.1028786  39.3981099
  66.9012833 110.3234577  39.3608022 101.1767197  41.8983221  32.0821357
 100.9377384  41.1532021  31.5308452 100.8269405  41.6792011  32.9457760
  90.0356388  37.3911405  59.3035316  89.1589260  37.4615860  58.9258480
  89.9643517  37.8204250  60.1560974  49.1783905  29.2685509   0.8666676
  48.4497976  29.5874834   0.3340648  49.8716354  29.9155664   0.7362168
  64.2574596 102.1402168  43.9635134  64.4180298 102.8437233  43.3346033
  64.4085169 101.3359451  43.4669542 110.8325577  13.8568354  49.0941429
 109.9164200  13.7260854  49.3387508 111.1675262  14.4761956  49.7425365
  63.6943865  65.6079149  52.8610802  63.6600351  64.6600819  52.9901791
  62.8332329  65.8330441  52.5089979 103.1728840   1.6047190  62.3631001
 102.5126743   1.1078352  62.8462839 103.2352161   2.4377485  62.8304386
  31.7801666 108.8838673  44.6523380  31.6528654 108.5718441  43.7564182
  32.7021813 108.7068748  44.8388624  92.1175766  91.2200451  33.5727811
  91.6687298  91.8688107  33.0306792  91.4564610  90.9372044  34.2045712
  94.7856331  77.6561117  13.5069978  94.3001175  77.8699923  12.7102733
  94.4250584  76.8153906  13.7887847 102.4874878  80.2198887  17.7285731
 102.5267506  79.9626875  18.6497343 103.0522346  79.5905972  17.2799134
  57.9409266  85.1113701  47.9767227  58.5597181  85.5780697  47.4150085
  57.5174379  84.4806957  47.3943663  85.3504848  10.1933253  32.5318241
  85.0187492  10.7334185  31.8145490  85.0016117  10.6047153  33.3225703
  89.0051746  97.6973343  38.8774991  88.7267399  98.5904408  38.6748648
  89.9319839  97.7804852  39.1018748  79.2387247  99.5246601  69.2158079
  78.3323765  99.2180634  69.1881323  79.7518682  98.7847900  68.8909817
  85.3868866  97.4971199  28.0430579  84.6274471  96.9461441  28.2325435
  85.0305367  98.2334614  27.5460219 109.0772820  94.3426514  72.3119688
 108.8386917  93.4877968  72.6704788 108.7338638  94.9724674  72.9457188
  25.3306985   9.1942310  64.5665693  25.4726887  10.0356781  64.1329384
  24.5041704   9.3035787  65.0368118  64.6394396 102.2950745  27.6613641
  65.0561619 103.0545425  27.2542024  65.3531694 101.6702366  27.7894354
  67.5596285  97.1288109  33.8938498  66.9495201  97.8036022  34.1915989
  67.2957230  96.3408375  34.3689013  79.7700548  92.7942753  71.0159874
  80.2720356  91.9843960  70.9246445  80.0426960  93.1509972  71.8613577
  87.7686882  79.8882866  43.3192968  88.4090996  79.4596004  42.7515411
  87.1612644  80.3155231  42.7153587 117.2885895   2.2617832  48.8712645
 116.7129326   2.7048790  48.2479525 116.7147827   2.0229189  49.5992184
  71.9325352 101.5741062  46.3489151  71.0101748 101.3557339  46.2155008
  72.1642303 102.1091270  45.5897760  12.5578773  97.7978706  32.7580118
  13.1000710  98.4973145  32.3932791  12.9957366  96.9903469  32.4888968
  53.8964367  80.2252007  18.2462442  54.5838833  80.6752872  17.7552533
  54.3691874  79.6759129  18.8715637  67.6722145 106.5191650  36.9042110
  68.1295347 106.8034935  37.6955700  66.7503691 106.4846420  37.1596384
  38.8915563  93.1766605  47.3698521  38.6295748  92.6198578  46.6366625
  38.2852316  93.9166164  47.3372555  44.5770550  12.8634596  37.1447110
  44.9120998  13.5685515  37.6986265  43.7887907  13.2286191  36.7427993
  75.4943943  95.6725693  42.5536013  75.6750584  95.7652569  41.6181850
  75.3384590  96.5668583  42.8571844   4.2102373   3.3343953  62.0042229
   3.3313099   3.2230073  61.6418552   4.4258344   4.2509985  61.8322086
  92.1922302  84.9695110  55.7132053  91.6692257  84.2642593  55.3319979
  93.0402946  84.5658684  55.8978367  94.9374676  98.7672806  62.5504971
  94.4310284  99.5249748  62.2578382  95.6211853  99.1373634  63.1088781
  97.5822151 111.5483704  91.5241146  98.4244168 111.4591261  91.9701672
  97.3537267 110.6562515  91.2630558  73.4308767  98.7522602  65.1713848
  73.8238001  99.4345474  65.7157421  74.1692209  98.2057667  64.9022532
   5.3975546   0.3677426  57.0103073   4.7444719   0.1916765  56.3330221
   6.0016137  -0.3730008  56.9588995  61.9665384 110.5202007  68.2268715
  62.6651621 111.0361385  67.8244257  61.8301010 109.7898483  67.6233721
 116.0034466  63.9728308  55.0499964 115.5360794  64.1275263  55.8708954
 116.2096596  63.0382156  55.0642490 112.7843094 102.8860283  50.8634949
 112.4893188 102.2475719  50.2141953 112.0966625 102.8856754  51.5293503
 112.6293468  83.1595802  28.1281209 112.4718475  83.1234455  29.0715837
 112.5972462  82.2458458  27.8447700  33.2734132   1.1753100  55.7619333
  32.4869514   0.6718467  55.9722471  33.2614017   1.9071293  56.3788033
 112.0901108   5.2077925  44.7710323 112.3022747   4.4885623  45.3659439
 112.7111149   5.8992392  45.0001240 102.7749062  69.6955061  28.9874768
 101.8682480  69.3960667  28.9200759 103.0321312  69.4804859  29.8840427
  68.3052444  79.5826578  29.7893786  69.0525675  78.9904451  29.7056055
  68.0969620  79.5747948  30.7236099  99.5555878  79.8582983  16.8780077
  99.4563293  79.0554094  16.3663983 100.4935932  79.9110937  17.0612943
  86.3240814 106.0146713  58.4438372  87.0022678 105.3781223  58.2177877
  86.0264015 106.3569927  57.6009607  48.0360556  29.3002295  90.8236599
  48.0976391  29.1720319  89.8770809  48.8362408  28.9063931  91.1712551
  22.5352978   0.5922268  52.7428389  23.1286549   0.9313343  52.0726442
  22.9650139   0.8026932  53.5718632  67.9728508  83.4756565  36.5256691
  67.2412586  83.4719849  35.9084272  68.1001520  84.3996525  36.7407298
  76.5301609  89.8523808  31.2666345  76.9461918  89.2953396  30.6087136
  77.1135187  89.8050404  32.0240569  96.1010361  49.5937157  20.9378982
  96.5029716  50.3680563  20.5440998  95.8193302  49.0644217  20.1917648
  74.4201183  77.6642036  31.2288976  74.1205502  77.6693487  30.3197980
  73.6149979  77.6463127  31.7462873  15.5702019  76.8055725  25.6572032
  16.0191846  76.5033007  26.4466834  16.0662770  76.4178324  24.9362302
  51.4857340  39.1658163  83.0034637  51.7749119  39.7208357  83.7277317
  50.7855606  38.6304283  83.3767605 113.5733700  29.0337324  11.8895984
 112.9852295  28.4215856  12.3318553 114.3480968  28.5122371  11.6796732
 108.9309025  83.8104153  37.9924107 109.3506241  83.7850094  38.8523054
 109.5315838  84.3189716  37.4476266  85.4032993  58.5180092  52.6144123
  84.5865440  58.8655424  52.2561359  85.6582165  57.8270721  52.0029736
  52.0082808  67.6703501  46.7822027  52.1652222  68.6141729  46.8105793
  51.5151882  67.4854040  47.5815058   2.6253483   2.9386342  47.1680927
   2.2416958   2.9599819  48.0447817   3.5180855   3.2619604  47.2893858
 108.7395287  86.1318016  28.0474973 108.8180161  85.5688763  27.2773123
 108.1889725  85.6346416  28.6524367  80.1654434  84.2008877  63.6553288
  79.8237705  85.0652790  63.8840580  80.0366020  84.1351128  62.7091265
 108.1408119  69.2437363  87.7911186 108.9315987  69.3501711  88.3198643
 107.5782490  69.9728680  88.0521202   4.1329291  85.4421711  33.4560537
   4.1990831  86.2560272  33.9555478   4.0772197  84.7565079  34.1216326
  66.9463015 104.6123028  50.6887770  66.5745497 105.0591469  49.9282694
  66.1853504 104.3253422  51.1935949  33.9455318  93.8710403  32.0061350
  34.1660929  94.4445896  32.7400422  33.7037182  94.4691372  31.2990022
  97.6077747  90.9624481  44.5798445  98.4522438  91.4052010  44.6639252
  97.6645660  90.2216911  45.1834059   5.7361114   6.4798230  33.4666514
   4.8338655   6.1748451  33.5624290   5.7003683   7.1118051  32.7486324
  93.3150959  95.1387405  26.1883187  93.1443119  96.0403061  26.4608192
  92.4607944  94.8056316  25.9136772  46.5528679  10.1899469  14.7631502
  46.4640617   9.8027241  15.6340134  47.4428320   9.9659729  14.4910598
  53.7979937  73.5917282  50.1728630  53.7081718  72.7116156  50.5383253
  53.9978123  73.4477329  49.2478895  95.7509041  96.1916065  52.9727411
  95.3880501  97.0131016  53.3039713  95.0695705  95.8435059  52.3975468
  96.7546177  12.5960171  44.5625496  97.1109581  13.3589959  45.0176525
  96.6730785  11.9277465  45.2429914  10.7083023   0.7483111  36.0031605
  11.1750412  -0.0101545  36.3540411  10.4248583   1.2343854  36.7775130
   7.2387779   4.3039572  32.1427250   7.9273343   4.5525149  32.7594423
   6.4664048   4.7853100  32.4393249  86.5692329  71.7418814  11.1507881
  86.8166828  70.8536386  10.8938432  87.4016380  72.2057676  11.2410605
  77.4651623  63.8055849  50.4585600  77.6414061  64.5791101  49.9229956
  76.6686869  63.4305191  50.0828075  97.6013756  81.8688107  56.3948679
  98.4900951  81.6973972  56.0833883  97.0352364  81.5396214  55.6967545
 100.1805305  83.6991405  62.2915077 100.8255577  84.4027519  62.2200108
  99.4599819  83.9763641  61.7256546  93.6909389 103.3750153  89.7638893
  93.3392239 103.0825806  88.9230442  93.2129574 102.8614902  90.4150772
  90.9344292  74.0982485  32.8841400  91.5721703  73.8233232  32.2253990
  90.5452251  74.8946905  32.5229812  68.2053328  95.6030464  52.7699089
  67.5233984  96.1830044  52.4310017  68.6220694  95.2408409  51.9880104
 104.6731472 101.4141273  23.4464550 104.3139076 102.0494366  24.0657759
 105.0746346 100.7426548  23.9979649  73.4301805 105.0652981  50.4689550
  73.5686636 105.8436775  49.9293327  72.6923370 105.2939320  51.0342407
   6.9183892   1.5724374  82.1010303   7.5931287   1.0435788  81.6752720
   6.4506710   1.9910002  81.3783360  89.0091991  88.8145161  18.8988030
  88.1636620  89.2438984  19.0289450  88.7863731  87.9239082  18.6278665
  31.1831713   6.1860049  55.1201439  31.1092615   6.2974024  54.1723251
  31.4805150   5.2831519  55.2327251  81.2154484  75.5530882  18.4742177
  81.1421776  75.6874752  19.4191015  80.5449486  74.9004555  18.2724154
  75.9318542  75.5769587  30.5606341  76.8241167  75.9165573  30.6297278
  75.4014826  76.1923885  31.0667801  35.4951859  53.5976076  64.3726921
  34.8951554  53.5663652  65.1178217  36.0966611  54.3129778  64.5793581
  57.4262857  79.1868734  35.5645990  56.9287586  78.4039164  35.8005643
  57.6055813  79.0840816  34.6299767  77.6892996  80.5499744  46.4824486
  77.6306677  80.4071426  45.5377865  77.4352837  81.4650059  46.6025496
 117.2953701   7.8468138  57.3865128 116.8273449   8.1618232  56.6132402
 118.0205154   7.3309612  57.0339584 106.6190815  95.6717873  79.8255682
 105.6789875  95.8406353  79.8883200 106.8510723  95.2908611  80.6725121
  70.0927353 106.4633560  33.1850147  70.9228182 106.0430145  33.4097290
  69.7669363 106.8095303  34.0158296 117.6366234  17.8819180  19.4365549
 117.2975254  17.7040303  20.3138232 118.0679607  17.0678270  19.1768730
  69.6259356  71.0150909  19.6397555  69.1433954  70.2266788  19.3911648
  69.4559479  71.1145639  20.5764747  12.8140569  17.3262668  51.3560629
  11.8587947  17.2900927  51.4050341  12.9945445  17.7937436  50.5405140
   6.5163451  35.1267552  81.2358952   5.5632830  35.2029634  81.1901093
   6.8294585  36.0312796  81.2310123  92.9383183  91.6308308  11.4067936
  93.5805416  92.2610950  11.0803902  92.1391201  91.8285751  10.9185219
   7.8747338   1.9607694  25.3125167   7.8894073   2.9060346  25.4624867
   8.0146068   1.5786083  26.1789012  74.9391174  82.4644184  18.8800526
  74.4699717  83.2494450  19.1626441  74.2487097  81.8414116  18.6532724
  90.1813602 106.2056160  34.1679406  90.2099609 107.1491814  34.0095139
  90.7374382 105.8310795  33.4847617  90.6106472  93.2587337  58.8150263
  90.0003433  93.9402676  58.5334778  90.0985813  92.4506474  58.7831974
   1.5392399  49.0264606   5.8066797   1.8430848  48.7864208   6.6820604
   1.0444157  49.8351955   5.9382993  85.6186104  90.3845882  30.7530999
  85.7208061  90.3584957  31.7044711  85.3815556  89.4888210  30.5130124
  63.7258768 104.7352886  32.4645853  62.8409433 105.0979614  32.5044918
  63.6598825 104.0105438  31.8427873  80.8902264 109.0201569  12.1464825
  81.1893940 109.4885063  12.9258239  80.9583664 109.6625233  11.4401150
  83.5412025  74.2614365  77.1795750  82.9998302  73.8196993  77.8338051
  84.2100906  73.6172009  76.9476604  88.0528736  85.6718540  72.4524307
  88.7735081  86.2549973  72.2139645  87.7897835  85.2660370  71.6264009
  99.4722557  20.2512097  58.1972885 100.0470448  19.9944985  58.9183617
  99.9789333  20.0610685  57.4077606  39.3943310  99.6784592  32.5751758
  39.3996572  98.9016342  33.1344128  40.2318573 100.1067638  32.7521968
  11.7032802 106.3912010  39.2890334  11.7669427 106.1139488  40.2029848
  10.8074737 106.7163086  39.1992140  96.0175037  80.8336926  54.6425867
  96.3568783  79.9436188  54.7365093  95.5576706  80.8273506  53.8030958
  67.6892519  93.6149311  40.6088018  67.9140949  94.3974972  40.1055527
  68.5298920  93.1901073  40.7793379  44.0772247  54.1015911   1.8728718
  44.0628004  55.0380135   2.0706975  43.3978605  53.7277460   2.4340656
  12.7077794   5.4699737  20.3959155  13.1126857   5.1620078  21.2067413
  11.9367623   5.9587193  20.6838250  13.2250249  29.4136572  59.6132088
  13.7112641  29.1146803  58.8448238  13.8976634  29.7443414  60.2085543
  98.1422424  64.9614859  49.1586494  97.2196865  65.2036762  49.2390823
  98.2741451  64.2937994  49.8317242   9.4399428  15.3958023  84.9543762
  10.0986719  15.1192272  84.3173409   8.6038244  15.2600610  84.5086002
  77.7721596  91.4152336  16.7092180  78.0540895  90.5308628  16.4754879
  76.8765402  91.4767361  16.3770723  60.3900337  73.3056402  18.9303052
  61.0693073  73.2404280  18.2590663  59.6398735  72.8423023  18.5577250
 102.8051853 110.2386856  58.4098911 102.8341866 111.1117458  58.0185556
 103.6734200 110.1198292  58.7949419  84.4427681  83.9737892  31.8512464
  83.7862110  83.3742809  31.4966130  83.9677334  84.7926235  31.9929385
  17.1621060   4.5872313  52.0053625  17.3777699   5.3828418  52.4919081
  16.8534136   4.9022648  51.1558390  89.0053368 102.4148083  67.5741911
  89.9276543 102.6339817  67.4418449  88.9954472 101.8961430  68.3786297
  79.4208765 100.1489830  76.6294289  79.1145325  99.7226906  75.8290195
  78.6451483 100.5871773  76.9793749  68.3344793  94.9695015  13.2717097
  68.7284756  95.8323765  13.3999836  69.0469503  94.3532372  13.4415102
  63.6053658  90.9566307  26.1212301  63.3168125  91.8156910  25.8130574
  64.4965076  90.8678436  25.7832670 108.9535046  79.3196726  91.4937401
 108.0266190  79.5464039  91.4182472 109.3653011  79.7406769  90.7391357
  76.9828033  92.9405308  30.6844401  76.8775225  93.7608528  31.1663365
  77.2085142  92.2959995  31.3551664  58.6524868  77.4242401  45.6874180
  58.7999392  78.1335211  46.3130522  58.7542677  77.8365231  44.8295784
  12.3681950   0.5287025  31.4228010  11.5273594   0.2769134  31.8046784
  12.7234673  -0.2860310  31.0675240  69.7655582  91.2009811  57.0331097
  70.3901958  90.5377007  57.3265600  69.0141726  91.0973358  57.6169777
 105.9533405   2.7927020  26.0667706 106.4630413   2.2363985  25.4777336
 105.0493336   2.6922864  25.7685757  92.7936077   5.5720812  75.9682417
  92.4342918   4.7031713  76.1474466  92.2395706   5.9210426  75.2700329
  13.2640827 101.7136574  22.9315376  13.7369418 102.3160934  22.3573422
  13.4259629 102.0471573  23.8140345  97.5040054  19.7156501  26.9852066
  96.8586445  20.4128814  26.8685412  97.1661186  19.1961598  27.7147269
  64.1392422 105.7039642  91.4835548  63.9208460 104.8007774  91.7132950
  63.2970428 106.1587334  91.4728737 115.0474167  78.9942408  42.6292801
 115.8548546  79.4863272  42.7780390 115.1939201  78.1556511  43.0669355
  69.7714281  96.6542244  59.0992785  69.9537611  95.9343147  58.4953547
  70.2460146  96.4230537  59.8977518  89.5988178  89.0208340  26.2266970
  89.9013901  88.1875801  26.5877652  88.6656380  88.8857174  26.0619402
 102.9796314 101.8934822  82.6861095 103.4063148 102.2859955  83.4477520
 103.4436703 101.0672665  82.5509262 113.5591412  36.0819578  60.7412481
 112.8608513  36.0152650  60.0899649 113.7606335  37.0168424  60.7814884
  27.5691724  18.4407830  10.4840100  26.6153264  18.4524667  10.4048097
  27.7529526  18.9896977  11.2463415 103.6918354  91.2049007  69.7306299
 104.1457844  90.3852844  69.5347261 104.3355751  91.7266178  70.2098465
  56.2881899  88.8829517  51.9571304  57.1367168  89.3245411  51.9220352
  56.4688015  87.9927349  51.6552496  31.0561252  12.6116335  45.0221443
  30.9273863  13.5545540  45.1248980  31.4554143  12.5172484  44.1573381
  72.5443316  77.8603745  41.0480499  73.3788490  78.3263731  41.0995865
  72.7142763  77.1298265  40.4533625  58.6297560  76.2214136  54.3949175
  58.9131165  76.9840813  54.8991871  58.2255936  76.5902615  53.6095333
  85.1923084 108.1308460  50.7662868  84.5802498 108.4854031  51.4111996
  85.1587677 107.1835899  50.8997440 110.2802372  85.3010178  46.3533545
 110.2467442  85.1596928  47.2994709 110.4798126  84.4385529  45.9892702
  81.6016579 110.3110313  14.5216465  81.6742420 111.1453152  14.9852479
  82.5060940 110.0155067  14.4173265 107.8671551  98.1262589  46.6101837
 107.7053261  99.0383434  46.3690662 108.4324551  97.7912045  45.9141922
  78.5991621  99.4973278  90.4070187  78.4731293  98.9183331  89.6552753
  78.4464169  98.9378452  91.1685181 116.3674545  86.2205601  37.7705693
 116.6965675  87.0410347  37.4035072 115.5081654  86.4454269  38.1273389
   8.1230658  23.4866929  54.4092607   9.0325183  23.7743998  54.3295574
   7.7261299  23.7114358  53.5677385   0.4275404  72.4821043  25.7094049
   0.1382052  72.8647089  26.5377355   1.3170039  72.1751404  25.8851075
   7.3973697   7.8221285   1.3609882   7.3482490   8.1823552   0.4755190
   6.9800001   8.4839976   1.9123176 102.2264194  86.7146778  66.5520668
 102.9364967  87.2159863  66.1511707 101.4531708  86.9384670  66.0341549
  90.6410122  79.5507479  29.9302745  90.3044701  80.2544117  30.4850984
  90.3832722  79.8011923  29.0430975  98.8599396  92.4672508  54.4972038
  98.1350422  92.6239204  53.8920593  98.7570572  91.5533733  54.7627020
   8.6093789 103.3581257   8.3324939   8.2476383 103.9150524   9.0218478
   9.0904409 102.6770687   8.8025784   4.6704891 107.5060940  74.6554756
   4.7605082 108.2272816  74.0325689   4.2144325 107.8913689  75.4036808
  26.9615030  35.0549054  36.2196660  27.3196006  34.1733336  36.3237190
  26.3417816  34.9776125  35.4942679  82.3263836  77.7540350  56.1008549
  81.6029644  77.4191141  55.5710268  83.0998898  77.3029566  55.7625580
  82.7737331  66.2402105  67.5276566  82.0956421  66.8477631  67.8231144
  83.2194233  66.7047787  66.8193007   7.2054201   3.7011361  44.5856857
   7.2387117   2.8641072  44.1225386   6.2709510   3.8870385  44.6775484
 107.0317268  81.8240452  50.4959583 106.3284588  81.4552498  49.9615097
 107.0849037  81.2437630  51.2553596  92.5225830  76.0496616  56.4531708
  92.4587727  76.6984510  57.1540499  91.9256401  75.3502655  56.7191410
  79.5398903 108.9398098  33.1226373  79.9758625 108.0938244  33.0203390
  79.7408533 109.2058754  34.0198851  77.7785587  72.0306778  60.6958580
  77.4024534  72.3160028  59.8631716  78.7159681  71.9496107  60.5200052
  35.0696874  40.6440449  17.8735697  34.8351264  40.4786730  16.9604063
  35.3512621  39.7919726  18.2066131  36.3812423  14.1461718  66.1153364
  37.2500634  14.3639207  65.7777452  35.8448696  14.9112546  65.9075260
  81.8502331  91.2092590  78.0422783  81.6881657  91.4785385  77.1381474
  81.2262726  91.7186451  78.5594130  35.8986020  68.7328529   7.0056278
  36.2761235  67.9241419   7.3515981  35.1306677  68.4463549   6.5112346
  67.0445156  83.5212040  24.6034384  67.7418137  83.9344883  25.1125669
  67.4873400  82.8359127  24.1029358  89.4768524  99.8839474  56.1472511
  89.2775345  99.9728203  55.2152634  88.6642075  99.5605850  56.5361977
 106.1458969 100.2619267  36.7907858 105.8125305  99.8132324  37.5678110
 107.0909882 100.1120377  36.8146467  86.5822792  78.8762045  67.9295015
  86.7723465  78.3794498  67.1336746  87.4154186  78.9026165  68.4000635
  99.6645546  97.7656078  67.7524710  99.6723366  96.8250370  67.5750017
  98.9713001  98.1098652  67.1893358  31.7484617  80.7944679  42.3672199
  31.5006518  79.8774672  42.4852133  31.8796110  80.8876228  41.4236355
  51.4916086  92.0327663  63.2122374  50.9989452  91.9487190  62.3958731
  50.8222198  92.0386028  63.8964319  69.2486811  94.8643398  50.5085039
  69.0600681  94.4390583  49.6719694  69.5943117  95.7238579  50.2676725
  84.1433048  67.6522350  49.8473644  84.5890331  68.0737638  50.5821276
  84.8518562  67.3230410  49.2943668   2.2318453   8.2003170  38.3900857
   2.4961953   8.3881313  37.4894881   2.0796470   7.2553813  38.4029150
  72.5219107  83.4101200  59.2292976  72.6498079  83.5794353  60.1626825
  72.3110390  82.4776459  59.1817236  62.1693087 100.2059746  57.6468134
  62.9812717 100.5736542  57.2978640  61.9243670  99.5268536  57.0182991
   0.1764502  85.1596737  18.7224972  -0.3449817  84.8030949  19.4416595
   1.0820090  85.0860596  19.0237868   0.3170813  89.7432518  37.4114347
   0.5812141  88.8581371  37.6625371  -0.6338416  89.6911812  37.3151684
 107.1181297  85.9640789  78.4858656 107.2791195  86.8957806  78.6350489
 107.8623390  85.6738567  77.9584694   5.0387460  72.9996824  33.8046217
   4.4062188  73.3029270  34.4559169   4.7584635  72.1087122  33.5952425
  92.5023079 104.6070385  73.2870531  93.3454990 104.1576481  73.2294226
  92.7018356 105.4357243  73.7226009 107.4959850   2.8699630  21.9629526
 107.5261307   2.3402749  22.7596664 108.3307934   3.3382300  21.9549394
  28.3665848  12.8152180  24.6756530  27.7418923  13.3293426  24.1641212
  29.2018294  12.9343188  24.2235303  26.5893841  23.1558371  23.0095291
  25.6611514  23.3880639  23.0357838  26.7366290  22.6657081  23.8184309
  76.7892265 101.6591167  71.4979506  76.6249084 101.1838341  72.3124027
  77.2891712 101.0457420  70.9593773  73.3295679 106.1576366  38.7308359
  72.8165913 106.9543743  38.5955405  73.6394072 106.2227726  39.6341562
  72.3187685  91.2011909  51.9784880  72.5138807  92.1348953  52.0581961
  71.3858223  91.1686707  51.7668724 104.8743248  82.9026031  42.6757574
 104.5571613  83.5732746  42.0709085 104.1202164  82.3297405  42.8150177
  87.8938103  87.2210884  30.7984924  87.2405815  86.7360401  30.2942681
  88.2144833  87.8903484  30.1939249 104.0597630  70.2242136  54.8954344
 103.1139469  70.3526402  54.8234510 104.2858410  70.5846548  55.7528687
 109.8917389  88.7206078  53.3565760 109.2968369  88.8045406  52.6114035
 109.3566990  88.3297253  54.0473557  74.3464613  92.0991135  33.9777589
  75.2876377  92.2683334  33.9354563  74.2311811  91.2696075  33.5142326
  24.0887165  27.6257706  74.7119188  23.4205604  27.0050573  74.4212055
  24.7669005  27.5807667  74.0379238  86.3034725  92.7776527  65.6517315
  86.2865353  92.5761318  66.5873289  87.2185516  92.6582909  65.3975391
  72.9093933  97.8314686  28.4173608  72.2305584  98.1805706  28.9948916
  73.4515333  98.5896111  28.1993461   3.3267322 101.4839077  32.6914763
   2.7906913 102.0594406  33.2370543   2.7629498 100.7317543  32.5107789
 108.2464314  77.4640751  41.9870090 108.3163261  77.0045280  42.8237677
 107.9329586  78.3381653  42.2192574  87.0840454 107.5495720  32.6492381
  87.7232742 107.4365044  33.3526874  87.5211811 107.2046280  31.8706703
  20.1154470   7.8778797  47.2778702  19.5658863   8.5785913  47.6288891
  20.1417327   8.0434150  46.3354588  18.1932735 109.1373253  18.6186230
  18.5895336 108.9480782  19.4691491  17.2723627 109.3080711  18.8161147
  14.9234211 103.4195900  39.5731688  15.7691813 103.2239723  39.1698647
  15.0781131 104.2173004  40.0791025  22.9739785   0.5580566  48.6320257
  22.1747803   0.7619522  49.1177654  23.4075283   1.4038418  48.5183477
  27.2905397   0.2580692  12.1039367  28.1671643   0.0145371  12.4013531
  27.4174643   0.5564815  11.2033415  95.2692318  87.6406479  44.6619654
  95.1381493  87.2427464  43.8013124  95.3252792  88.5797882  44.4856167
  31.2882113  23.5556579  46.9133711  30.5820656  22.9132199  46.8436432
  31.1211991  24.1733599  46.2014866 107.8617382  17.0315683  94.0212250
 108.4444427  16.9926512  93.2628250 108.2485199  16.4241850  94.6518707
  29.7930384  77.5095654  21.2860918  30.5785394  77.2565031  20.8011413
  29.9735665  78.4003162  21.5864301  80.3210258 108.3737564  16.7377484
  80.8306980 109.0178490  16.2462175  80.9237766 107.6420784  16.8703771
  14.8963809  15.5004752  34.2172027  14.9314284  15.6447589  35.1628160
  13.9896965  15.6937432  33.9788723  34.5967078  12.1876311  61.7530012
  33.9795780  12.8523028  62.0589304  35.4545379  12.5142395  62.0244551
  93.5509491 102.0308876  49.6068478  94.3838596 101.6161728  49.3821192
  93.7280178 102.9698753  49.5504665  53.3577633   9.5689559  18.5790014
  52.8968954   9.5727456  17.7400625  52.8045416   9.0400058  19.1537964
  26.1235118   7.7738798  56.2783384  25.7716632   8.6484307  56.4444590
  27.0731521   7.8939325  56.2775946  70.6412077  94.3146515  37.7696276
  70.9695673  95.0053787  38.3452249  71.2051678  93.5629559  37.9516530
  82.0350838  78.6340952  28.7108231  82.5055695  78.9941168  29.4626617
  82.2837830  77.7099419  28.6927915   4.4599777  96.1737347  48.6344767
   5.3815651  96.2079144  48.3780813   4.4737566  95.8493042  49.5349121
  87.3158741  99.8661327  52.5166559  86.9884109  99.1075516  52.0333767
  86.5435791 100.2214622  52.9565811  70.5685091  94.8333168  47.4030256
  70.7848835  95.1892471  46.5412092  69.6138334  94.8841572  47.4503517
  97.5886345  70.7218933  19.9729514  98.2860565  70.8306503  19.3264186
  97.7575111  69.8654413  20.3656483   6.3757288   4.7484428  22.0329356
   5.6210554   4.5145887  21.4925551   7.0380396   4.0922344  21.8162179
  93.0364990  46.9004297  63.8497353  93.3977318  46.0332775  64.0335608
  93.7909222  47.4880457  63.8920259  90.3325176  96.0879230  58.3889437
  91.1397171  96.5995979  58.4423208  89.8371506  96.3400364  59.1682291
  22.4530649   4.6156299  54.3339252  22.8880525   5.4503906  54.5076847
  21.7502069   4.8345864  53.7221384  90.2597332  24.6979713  67.3971701
  90.8693695  25.2384806  67.8995895  89.4060802  25.1084495  67.5350761
  24.5631313  47.0050049  31.0531306  23.9977717  47.7558470  31.2343454
  24.1906953  46.6094351  30.2650666 112.2490215   4.3494910  56.0550070
 111.3990307   4.7602913  56.2130928 112.7975464   4.6470585  56.7808199
   2.3157345  12.5396216  28.7946200   2.8681520  13.2558739  29.1077471
   2.6205006  11.7725670  29.2793655  14.6831918   6.6484070  54.8339224
  14.1986597   6.1594754  55.4990625  14.6099317   6.1140996  54.0431166
  91.2567425  95.0634098  49.7174215  91.1801815  96.0017586  49.8902321
  90.3977299  94.7072220  49.9442625  87.2861004  85.4139328  35.2009058
  87.1767807  84.8568249  34.4302511  86.7670441  86.1946106  35.0076747
 107.5223732 105.3863239  32.8806710 106.8945599 105.0199890  33.5034776
 107.0721531 106.1420059  32.5032115 100.6390095 104.4565487  60.8915520
  99.9206734 103.8408184  60.7462692 100.3838539 105.2410984  60.4061508
  89.3687534  89.6292686  54.8667145  90.2194595  89.9870682  55.1206827
  89.5366764  88.6998844  54.7108793  45.2327108  31.7986536  56.2131310
  44.5446873  32.2771931  56.6755819  45.2736902  30.9508634  56.6556311
  94.8490334  87.5984287  38.8019896  95.1945114  86.7979908  39.1971850
  95.5412579  87.8908920  38.2090950  81.9115448  78.3347178  62.4227142
  82.6667118  78.2274199  61.8443918  82.2844028  78.6421585  63.2489634
  21.4270878  21.2833500  43.9900112  20.6435108  21.0776806  44.4998550
  21.0916996  21.6658354  43.1791782   2.0196101  79.2596722  31.7527890
   2.5498676  79.4319534  32.5308490   1.9429016  80.1109600  31.3219142
  19.7833443  18.4562159  11.3050318  18.8725519  18.1644297  11.2656546
  19.8515689  18.9160538  12.1417677   1.6117945  17.4710810  56.3862514
   1.1427264  18.1053030  56.9284439   1.2593754  16.6217339  56.6520405
   2.1955770  28.6000824  62.1475983   2.7656016  27.8325129  62.1013403
   2.6595214  29.2086554  62.7226019  21.9698596   5.0143522  33.9826226
  22.1293449   5.9202623  34.2474318  22.7940297   4.5629287  34.1648173
  99.7981001 109.8977499  58.6673641  99.5589257 110.6094699  58.0736589
 100.7540727 109.8661860  58.6305618  13.9990687  11.7890453  45.1299143
  13.5983360  12.4169183  44.5287323  13.6313760  10.9433997  44.8731661
 105.8141708 108.6149120  24.1289186 106.5512753 108.0187798  23.9964938
 105.8366489 109.1961575  23.3687329  96.6068363 101.4675522  55.4382181
  96.0146427 101.2881088  54.7079182  96.3955593 102.3626423  55.7035398
  20.1522589 108.5396862   3.2328102  20.3698993 109.0262794   2.4377702
  19.7504520 109.1898251   3.8090926   1.7081535  98.8255692  25.4811239
   1.1403902  99.1323471  26.1880612   1.6970734  97.8718376  25.5618024
 111.8836308 101.3414192  48.7005997 112.0599556 100.5357170  48.2148170
 111.0056019 101.6017056  48.4221363  73.7455797  93.4539890  23.2293725
  73.6454821  94.2421436  22.6955032  74.3758965  93.7014198  23.9059114
  16.7825496  14.3016040  49.0081596  16.4638674  14.0327299  49.8697758
  16.3066947  13.7444639  48.3922148  21.5953326  19.8985946  51.6127539
  22.3497534  20.2931237  52.0502853  21.9637513  19.4693124  50.8406067
   3.8957649  12.6169538  49.1905355   3.8975844  13.5544097  48.9971304
   4.5960844  12.2585440  48.6452579  15.6790364  -0.0238563  52.9661083
  15.0192738   0.5656813  53.3313370  16.4351225   0.5382291  52.7969170
   3.6001810  22.3652077  51.3326359   4.0533546  22.5490499  50.5097961
   4.2156100  21.8264270  51.8298244   4.7741640   0.6908493  48.2140350
   5.1034963   0.8314873  47.3263454   5.0486416  -0.1996133  48.4330559
  15.4910815  10.0730371  27.7594543  15.5836618  10.9316099  28.1723881
  16.2109232  10.0311649  27.1299243  81.3386917 109.6799374  45.6172609
  81.0295200 109.8866844  44.7352695  81.2484741 108.7294865  45.6860304
  71.0167027  69.1912794  11.7485237  70.6518888  68.7966442  10.9564364
  71.3942051  70.0192595  11.4515758   0.6909182  90.9683514  59.3315411
  -0.1543223  90.7204533  58.9569139   1.0181718  90.1652050  59.7366238
  92.2291946  89.0198708  14.8364484  92.6242542  89.5236397  15.5480456
  91.4665127  88.6003780  15.2346694  17.3635995  47.8917170  14.9748647
  17.9111707  47.9877138  15.7540846  16.9567776  47.0308018  15.0725877
  77.5369406 101.4856529  59.2609644  76.8279123 102.1284294  59.2796850
  78.2913351 101.9708633  58.9267635 100.4275417  87.5275707  53.5011053
 100.8362007  86.6627598  53.5374737  99.5057392  87.3655224  53.7017393
  27.1367979   5.1829708  59.2335129  26.7863846   4.7166091  59.9924278
  27.7726984   4.5772302  58.8528013   4.5069933  15.6360328  13.9785862
   5.1422513  15.5261517  14.6861207   4.7424692  16.4703250  13.5727036
  53.7942159   0.8654831  44.9378347  54.2432368   0.2252338  44.3858480
  54.2372501   0.8046291  45.7841492  95.3919792  94.7476578  71.0518885
  95.2002525  94.5906448  71.9764519  95.1341438  95.6577015  70.9050035
  45.5624056  48.9477539  92.8094101  44.9257803  48.2554197  92.9872227
  46.1030293  48.5996532  92.1003437  61.2734079 104.8551655  26.6310310
  62.1793795 104.9516964  26.3375449  61.1751509 103.9182663  26.8007088
  14.1085124  11.9010699  82.1054077  13.9379990  12.8293228  81.9457054
  13.8364470  11.7601240  83.0122375  64.0854645 108.5054684  12.6143956
  63.3747339 108.5779476  13.2514524  64.5856810 109.3146420  12.7205253
 100.7236767 105.0419807  26.1677003 100.1726151 104.3310642  26.4950538
 100.5287170 105.7809544  26.7440057  81.0326195  92.3353386  67.5802660
  80.5977535  93.1428146  67.3062086  80.4364872  91.6378307  67.3076153
   7.5986403   1.2727316  37.7835679   6.7713559   1.7386964  37.9048491
   8.2452315   1.9647785  37.6449203 103.8459969  97.8094006  25.4568911
 103.0455971  97.3553467  25.1934123 104.5447350  97.1747494  25.2980947
  91.3714981  77.3049355  30.9242558  91.2720680  78.2276917  30.6900263
  90.5702877  77.0915556  31.4025474 105.5007267   8.6105096  42.6421118
 104.8968029   9.3259662  42.4430323 105.3988647   8.0007434  41.9113302
 113.3687592  12.2671854  60.9333849 113.2344437  12.8997767  61.6390896
 113.7534904  12.7796733  60.2223492  94.6846008 102.9440212  52.7779102
  94.9183559 103.0132484  53.7035465  93.7718773 102.6556492  52.7822971
  49.7110701  99.9906826  10.0259566  49.5206499 100.9149837  10.1860964
  50.6259108  99.8858356  10.2873075 109.3350792  25.3845072  41.2276983
 109.1847229  25.9242535  42.0037794 108.4676170  25.2802944  40.8367014
   1.0234820 102.9788017  77.4565125   1.5929114 103.7479687  77.4755192
   0.5944525 102.9772186  78.3121777   4.5295721  53.7767124  80.8954430
   4.2252424  53.3844328  80.0770760   3.7729529  54.2621374  81.2242699
   8.2309139   6.4819676  40.3107738   7.7155620   7.2843146  40.2278137
   7.7461106   5.9500968  40.9418964  88.4872437 100.8833122  44.2027330
  87.7722931 101.2957859  43.7180138  88.0505466 100.3002930  44.8237085
  76.6447926  92.2519398  44.9016190  76.9201708  92.7600479  44.1385794
  76.1239529  92.8639412  45.4216290  90.2467728  84.6992397  51.9017601
  90.6317711  84.2441750  52.6507139  89.4408417  85.0854492  52.2445965
 116.7410183  98.6138630  79.4707251 117.5379848  98.1688786  79.7589588
 116.9233990  99.5436668  79.6065044  92.1961021 103.9382744  44.8148394
  91.9798660 103.0131149  44.6984386  92.3279381 104.2671490  43.9256334
  21.4003205   5.1271093  59.1177416  21.2862015   5.8621830  59.7201347
  20.5354452   4.7196907  59.0704727  68.7985373  79.3404102  33.6130548
  67.9631329  79.3851519  33.1479383  68.8730955  80.1869869  34.0534902
  37.6274872   8.1320482  35.6356573  37.5408268   7.3788083  36.2199092
  38.2234740   7.8346312  34.9482179 105.0173378  65.4398251  52.2923756
 105.7798481  65.1305962  52.7814436 104.8583794  64.7575760  51.6400719
  96.9329548  83.8063717  70.9638977  97.5960922  84.4780159  70.8046150
  96.3254166  83.8906002  70.2290249  91.5172100  22.2202611  66.5996885
  92.0086861  22.2157884  67.4210644  91.1399937  23.0986524  66.5510654
 111.5369892   0.1104463  41.6302490 111.8908691  -0.6171873  41.1188316
 111.9706535   0.8862361  41.2748384  12.9735851  42.0869303   8.4855604
  13.8080454  42.5394392   8.6086112  12.6175237  42.4565935   7.6776010
   0.7862376  26.4122891  23.0613208   0.4179407  25.5336952  23.1543922
   1.5994859  26.3857293  23.5654569 105.2959251  42.8309822  46.4932346
 105.9994984  43.3367109  46.8999910 105.4927635  42.8569365  45.5568504
  24.1795611  17.1888387  41.0864544  24.2511988  18.0260098  41.5449762
  23.7073827  16.6215682  41.6959476  35.4183292  92.8465176  41.0338163
  35.1393175  92.0561314  40.5715609  36.1377525  93.1917858  40.5051899
  65.9348679  42.4851751   1.8426201  65.9765816  43.1179857   1.1256555
  65.2572584  42.8278494   2.4254173  37.9175162  24.0890574  32.5516891
  37.7071691  24.6154165  33.3230090  38.4519887  23.3708119  32.8903556
 106.7337513  88.7979412  64.1805553 107.2055340  88.4807014  64.9506283
 107.0770264  88.2740593  63.4567213 100.4156685  82.5002766  52.6600742
 101.2403011  82.0248508  52.5590706  99.7642136  81.9429779  52.2343349
 115.4437160   9.4199741  47.0482397 115.6460762   8.4882027  47.1324110
 116.2909889   9.8355675  46.8881273   0.3676878   5.6655979  83.2682037
  -0.4963697   5.2537739  83.2732773   0.7660281   5.3967464  84.0960121
   9.6770996  39.9480867  74.7902822  10.0362670  39.8123789  73.9134645
   9.1941708  39.1433549  74.9784803  81.1591339 100.7448578  55.9587622
  80.3342056 100.6421661  55.4842281  81.6103458  99.9093151  55.8383226
  96.7082310  84.1979980  51.1733294  97.1666527  84.9031353  50.7163286
  97.1286869  84.1561699  52.0322227  26.8412113   4.5467064  36.6395974
  26.7179990   4.8250189  35.7320786  26.2908745   5.1413256  37.1492934
  66.4930487 107.8399563  53.5763597  67.1765518 108.4979725  53.7031412
  65.9762859 107.8732204  54.3813944   4.3394566  14.4578636  25.3570628
   5.1714003  14.0036714  25.4905176   4.4292626  15.2724516  25.8516455
  14.1086316   6.7333335  24.4196630  13.2424164   6.4159334  24.1643977
  14.5818734   6.8288463  23.5931325 101.7979240  90.2702141  68.0105162
 102.3107624  90.7586384  68.6544657 102.2368050  89.4218349  67.9484415
  89.1636086 102.9788589  36.8208694  89.9443150 102.5127125  37.1199226
  89.2214870 103.8370514  37.2408557  95.1842976   9.5243323  40.0766659
  95.3818226  10.4592955  40.0213575  95.3998756   9.1822571  39.2090583
  47.2274637  89.2161655  53.7893677  47.9240084  89.8313046  53.5598898
  47.6018572  88.3533001  53.6118174  93.5775757  74.8811913  17.9091382
  94.3024635  74.3170547  18.1784093  93.9642620  75.7545567  17.8464746
  90.8566189  84.6883869  18.0694008  91.6363144  84.6921349  18.6246431
  91.1755085  84.9542046  17.2069120  56.9375753  91.6879272  58.3211756
  56.0428953  91.9938183  58.1721497  57.4820662  92.2759819  57.7977657
  96.1375904  12.4977458  64.3140507  95.2999306  12.6995504  63.8971281
  96.7847061  12.9751801  63.7948799 101.8039513   6.4852959  48.1107187
 102.2941780   7.2797775  48.3221817 102.4762630   5.8404529  47.8907013
  98.3909988 100.2488804  74.6102047  98.9466476  99.7447586  75.2046394
  98.7858677 100.1216888  73.7475681  55.6481791   8.3312291  94.9059010
  54.8661327   7.7826852  94.8447895  56.3539696   7.7807283  94.5667267
 110.3262138 103.5446358  95.9473705 109.6903801 103.8416862  96.5983009
 110.7528305 102.7912903  96.3556767 103.9473057  96.9489479  32.9609823
 103.6815071  96.0313988  32.9002261 103.4372234  97.2981834  33.6917901
  38.6293578  35.5112481  48.9409304  38.7132621  36.1893106  48.2705402
  39.4930172  35.0999546  48.9750051 104.8847580  77.9145575  71.2487602
 104.8278999  77.1845007  70.6323004 104.1042709  78.4394312  71.0710478
  59.1205740  87.1655369  59.1787910  58.8611841  87.9462624  58.6894846
  59.9837732  87.3802757  59.5323563  65.2872658   3.2358286  38.3300352
  65.6655741   4.1040146  38.4692025  65.8434105   2.8366649  37.6610065
  86.5103531  80.4293633  25.4447198  85.9504986  80.7577038  26.1482787
  85.9002113  80.1711273  24.7538686 102.3832703  22.7379799  18.7468255
 102.3639965  23.6477351  19.0438199 102.2497177  22.7920699  17.8005338
  97.5824833  90.4940891  48.1310844  96.7124367  90.6963062  48.4751272
  98.1521797  90.5028439  48.9002371  46.8806219  11.8257606  57.4384546
  46.2283182  11.1870873  57.7262640  47.7052784  11.5082753  57.8063917
  92.1200848 108.8274956  45.2722406  92.8025818 108.9374924  44.6101713
  91.9669819 109.7109032  45.6074667 106.5815830 107.4358654  21.4068556
 106.4966297 108.3566284  21.6542768 107.0422935 107.0317936  22.1421742
  27.7210927  49.7243595  33.8886690  27.3331618  50.4814577  34.3274689
  27.4592209  48.9762974  34.4253802  11.2410104  11.4338255  59.2633963
  11.1515629  12.1493363  59.8929024  11.6214526  11.8442059  58.4868145
  67.5310564 100.5486298  89.6658897  67.1768093 101.4335251  89.5780849
  67.7504730 100.2886105  88.7711906   7.4985981 102.5649166  49.1579771
   7.4110389 102.3318481  50.0822258   6.8586046 102.0119095  48.7098408
  57.9271030   3.0254275  44.4254494  57.5196552   3.6018547  45.0719404
  57.6428032   2.1462926  44.6755075  38.9078569   9.8633111   7.5711989
  38.6591363   9.9338609   8.4928238  38.1750321  10.2535009   7.0948040
  14.9252176  17.2561753  58.8347435  14.9448359  16.6493952  58.0946970
  14.0234292  17.5762665  58.8581800  33.2518792   3.5532138  51.9993258
  32.3570967   3.5422403  51.6595078  33.6801481   2.8124845  51.5702152
   1.4744028  90.2947140   6.8196893   1.7200525  90.3674412   7.7419674
   1.9774926  89.5474625   6.4960402 105.9332371 105.2928734  10.9040749
 104.9799442 105.3787994  10.9138882 106.1456680 105.0855255   9.9940699
   4.4145244  20.0557637  52.8942347   3.5444793  19.8841369  53.2545090
   5.0120860  19.8955095  53.6246252  16.7252469 103.2186127  44.3611956
  17.6032424 103.0421638  44.0232277  16.8373168 103.9765167  44.9349976
  64.2605543  10.9069061  11.8909061  64.3842459  11.6642773  11.3187850
  65.1031971  10.7999456  12.3322105  16.1598277  32.4999428  19.1535270
  16.0583556  33.4438467  19.2759097  16.3887715  32.4014950  18.2293379
 110.9609509  98.0331039  46.9377184 110.8022404  98.1404209  47.8755474
 111.9108391  97.9403687  46.8646240  12.1834040  13.1331038  38.4590936
  11.7264438  12.5372827  37.8654480  13.0417752  12.7299738  38.5891581
  84.4176483  99.9461651  47.2300529  84.3792057  99.5452309  48.0983925
  84.1484261  99.2488384  46.6321468  25.0235438   4.7971079  67.7562380
  24.6580052   5.6508577  67.5244522  24.2826056   4.3087566  68.1150723
   1.1338826  15.7846546  23.2520247   1.0551397  15.3434420  24.0978146
   0.7242781  15.1839328  22.6294589   7.3270392 100.7647419  14.4914186
   6.7437226 101.0547161  15.1927662   7.8195548 101.5491581  14.2498446
  34.1467428  87.2183895  34.3066764  34.9294925  87.6930428  34.5863986
  34.0688586  87.4140930  33.3729386  95.4170799  63.7182379  95.6882477
  94.5553684  63.3909035  95.4302692  95.2329254  64.5273304  96.1654186
   3.1752425  16.5810323   7.3743135   3.8808629  15.9585881   7.1985483
   2.4520792  16.0400116   7.6914293  42.8688765  14.9191213  32.5728369
  43.7766027  15.2057004  32.4721646  42.9113483  14.2099571  33.2143307
  34.8437762  13.8053071  33.2767391  35.1047826  13.2035792  33.9738989
  35.6239748  13.8897300  32.7286601  94.2206192 108.1677055  41.1235762
  94.6358013 107.6036453  40.4711199  93.4120846 108.4631729  40.7050180
  21.2362146   1.6864154  65.4533195  21.5823507   1.3921827  66.2958479
  20.4391980   1.1711798  65.3287125 117.7324867  99.6113682  45.8632278
 118.3248520  98.8613033  45.9155846 117.3695374  99.5686245  44.9785423
  12.4645770  97.4133778  38.3499479  11.9037962  98.1595039  38.1376886
  12.2112262  96.7370033  37.7218080  27.2468448  17.7886903  19.9486113
  26.9346166  18.6886787  20.0422430  27.3953795  17.4920714  20.8464885
  16.2897336   4.1219395  78.0256033  16.4069414   4.0563720  78.9733315
  15.3620565   4.3290958  77.9127550  87.7064133  61.9766951  69.7331047
  87.7510548  62.9080391  69.9495411  88.4402466  61.5852499  70.2069044
  47.2567558   2.8838137  11.0424805  47.8370333   2.2596645  11.4783049
  47.2269487   2.5880778  10.1326001 104.7138786  33.4905791  21.0218620
 105.3789711  33.5871768  21.7034388 103.9456081  33.1537914  21.4829159
 108.1295967 109.2646313  28.6631107 107.6629448 108.6666775  29.2469835
 107.4885750 109.4899940  27.9889178  26.9608474  99.4982338  46.5942335
  26.5587425 100.1280403  47.1924639  27.9021168  99.6041489  46.7321777
   6.9133258  17.8848183  39.2878318   7.4838245  18.2512796  38.6122060
   7.4420804  17.2044015  39.7045827   4.7598127 108.8998127  40.7595253
   3.9999402 108.4638596  41.1452341   5.5005151 108.3394527  40.9910154
  55.9368038  89.3394566  22.1003580  56.1202860  89.0217876  21.2162495
  56.1127424  88.5877800  22.6662731  44.1872787  11.6634703   6.3823032
  43.8098574  11.2212503   5.6218910  44.9298143  12.1540856   6.0299301
  98.5996056 110.7851887  65.0051737  99.2464161 110.3760719  65.5800581
  98.1673050 110.0504398  64.5698786  20.4217863  52.7187157  38.7598634
  20.3627253  53.6525488  38.5581255  21.2506151  52.6271629  39.2298579
  37.0409131   9.9685860  19.8150122  37.9900885  10.0816035  19.7647643
  36.9159603   9.0224868  19.8892784  57.0614815  10.9625936  32.4837732
  56.9539499  11.7939377  32.0216727  56.2395239  10.8452451  32.9600549
  42.2349787  11.3859951  40.2396297  42.2359657  12.1580720  39.6738291
  42.8586054  10.7872009  39.8288131  23.6856532  35.7948780  16.5252435
  23.1988645  35.8961940  15.7073176  23.3262563  35.0009155  16.9210875
  31.3837504   1.2107191  23.8076591  31.3724327   2.0712875  23.3887005
  30.6149197   0.7625668  23.4551096   9.8634207  65.4129505  27.5878096
  10.0463462  64.4841862  27.7298427  10.2824402  65.8552265  28.3260822
  30.4830551   5.6312412  59.5181751  31.3508320   5.5484492  59.1227770
  30.1437163   6.4598286  59.1797590  97.3058987  52.9453373  94.8464203
  96.6645527  52.3427439  94.4698620  98.0501747  52.9091024  94.2456055
  11.0646546  39.4591498  19.9275291  11.9114220  39.5468283  20.3651690
  10.4548550  39.9398899  20.4872298  92.4740028 110.0084400   5.1369971
  91.6257191 110.2192116   4.7468403  93.0907726 110.0502300   4.4061905
 102.0440674 102.8974533  56.8703794 102.9233074 102.6910210  56.5532780
 101.8467426 102.2026825  57.4985361  38.8442636   2.3288797  36.1153245
  37.9480767   2.0591207  35.9145451  39.0570235   2.9739177  35.4408693
  23.4189320   2.7697083   5.3249902  23.3943987   3.0894780   4.4231158
  22.5425792   2.4162871   5.4777259  16.2119174   0.1408932   7.9912972
  16.3719463   1.0799447   8.0851305  15.2657080   0.0706333   7.8648740
  59.4092321  16.7158222  41.3887835  59.2152357  15.8125150  41.6390514
  59.1969442  16.7568672  40.4563236  93.1748962  94.8677635   7.2040868
  92.7728939  95.6952572   6.9397318  93.1232452  94.8709583   8.1598872
  93.4502316  38.9065361  88.7339687  93.2779121  39.7709560  89.1072178
  93.8920403  38.4268451  89.4346333  84.8053265   2.8281096  15.7670426
  84.8232841   3.5495764  15.1382375  85.2510548   2.1090165  15.3193116
  97.8548431 105.0070953  34.2454481  97.2521877 104.2902374  34.4433069
  98.7160206 104.5913410  34.2034769  45.0928164  35.7536674  50.2284384
  44.4323969  36.4430380  50.1588392  45.4821587  35.8814311  51.0934925
  23.8223577  24.0278912  22.8967214  23.4188509  24.8951387  22.9327250
  23.7012911  23.7448335  21.9903803  29.8885226 100.4486752  22.1231365
  30.0670719 100.7047939  23.0279899  30.6396317 100.7767105  21.6287088
  20.4003596  98.3389378  79.7299767  21.2888002  97.9974270  79.6285963
  20.2811837  98.4192944  80.6763268  55.8959150  14.0507257  13.8382244
  56.0312462  14.6033144  13.0684435  55.1983833  14.4875276  14.3269837
  18.3130372   9.6254188  25.2583766  18.9787853   9.4326144  25.9185553
  18.0719399  10.5374444  25.4205918 103.1628799 103.4649467  22.0048094
 103.4200191 104.1374111  22.6356101 103.9470387 102.9271030  21.8950701
 100.7559681  93.9285088  34.4302154 100.8627224  93.4169102  35.2321577
  99.9499893  93.5930824  34.0376377  34.9065304   7.7625382   5.7541972
  34.6944141   8.6814970   5.9177601  34.1968632   7.2748464   6.1722416
  86.5947151  98.1413841  40.3661108  87.2833729  97.4769688  40.3430557
  86.9166279  98.8398743  39.7962785  92.8395271 105.8220100  26.4440465
  93.3777237 105.5698967  25.6937003  92.5433064 106.7088604  26.2391376
  22.3876548  94.9131870  26.8438101  21.5347648  95.2872276  26.6226602
  22.2717047  94.5565701  27.7244997  81.1845016  63.9204884  33.4355569
  81.0666466  63.4763241  32.5958776  80.3039551  64.2028666  33.6828089
  62.8445387  73.2397223  85.4496288  62.6586628  74.0512943  85.9218884
  63.0340862  72.6008129  86.1367226  96.2308407  85.0250053  30.4895282
  95.3466606  85.2336693  30.7910371  96.1033058  84.3520927  29.8208284
   3.3583754  90.8128262  29.4068384   2.6163024  91.0524654  29.9619341
   2.9632875  90.3637600  28.6595249  62.7748203  24.3113875  67.7303123
  62.3057985  23.4787226  67.7843618  62.4292088  24.7302246  66.9420481
  12.0994937  96.2340164  47.7689838  13.0229402  96.0462189  47.9369402
  11.6322339  95.7901096  48.4766912   8.0777889  64.7364998   2.2816977
   8.2717270  65.6667042   2.1661851   7.2339523  64.6120310   1.8473266
  31.5444899   6.6255790  52.4672937  32.0547867   6.7071652  51.6615820
  31.0443568   7.4401790  52.5175667   0.5832770  35.8380198  94.4478416
   0.3724576  36.3158631  95.2500057   1.5393376  35.7918692  94.4408035
  25.7920527  14.1930819  33.3283591  26.2625194  13.4998560  33.7913203
  26.0367227  14.0767348  32.4102998  32.5790143  76.4634609   9.2933017
  32.1344900  75.6213903   9.3909949  32.2545743  76.9916105  10.0227058
 114.3544197  99.0420818  40.7512331 114.0223312  99.8045158  40.2772665
 113.7550068  98.9398575  41.4904785   0.0951850  45.7115555  85.1112747
   0.3046023  46.6445637  85.0679874  -0.3701986  45.5323839  84.2942333
 108.5186100  39.8873997  80.8582687 109.3411064  40.1699352  80.4584122
 108.6299419  38.9467239  80.9959793 100.9222889 103.9341831  15.9347844
 100.1388931 104.2110538  15.4595304 101.6138649 104.5133686  15.6146288
  16.8243647   8.9969677  62.2348833  16.9673789   8.0777550  62.4603319
  15.9632111   9.0099490  61.8171787   3.5843384 111.2935419  63.0188751
   3.1018316 110.9662747  62.2597218   4.2992603 111.8083264  62.6445580
   0.1713711  14.4254565  15.1416647  -0.6977658  14.3023026  14.7600031
   0.7433398  14.5802081  14.3899107  94.7478676 108.5386086  44.0444040
  95.1438618 109.3835258  43.8310385  94.4589710 108.1897259  43.2011652
  92.7295017  75.8256674   3.3678201  92.6043510  75.9150553   2.4230576
  92.3051548  74.9964666   3.5882443  98.8519001  94.5489407  30.9872389
  99.0532017  95.2363586  30.3522849  98.2227707  94.9521923  31.5854192
 115.0302410   1.0796609  12.4952376 114.2445660   0.7654930  12.0477486
 115.0444031   0.5968671  13.3216393  91.8134022 103.1499386  40.8513784
  91.6689205 102.2929573  41.2525558  91.7590427 103.7678814  41.5803671
  55.2970695  14.5505714  70.4203844  55.5904722  15.4169273  70.7024765
  54.3464756  14.6327698  70.3439283 103.2903671 100.5459595  44.8590469
 102.3443127 100.6529427  44.7602081 103.5786057 100.1795769  44.0230417
  31.8374943   0.8726452  39.1960859  31.1303448   0.2959774  38.9069080
  31.7992234   0.8378361  40.1518869  97.2982979 109.2178154  19.9291015
  97.0896149 109.4572353  20.8320737  97.9709339 108.5416031  20.0099564
  28.5012293   3.2864007  63.7720108  28.6710048   2.4361074  63.3665323
  28.4062839   3.0923879  64.7045183  18.9702463  14.1075337  56.3238859
  19.0803087  15.0342059  56.5369463  18.4855437  13.7469840  57.0663834
  20.5211544   2.2461592   0.3190693  21.2287521   1.6732137   0.6144903
  20.6836176   3.0771399   0.7655098 103.5655403  86.4289474  37.9926467
 104.4667721  86.6455078  38.2316399 103.2668972  87.1796322  37.4793029
 115.5425453  81.0099792  80.1241207 115.6249714  80.9284401  81.0742664
 116.3248253  80.5804062  79.7780991  37.6554418   7.0247775   8.1016505
  37.2702909   7.8555954   8.3802783  38.5726070   7.2335058   7.9242456
  29.7650719  15.9867740  48.1656742  30.7121110  16.0565376  48.0453491
  29.3940377  16.3516927  47.3623037  48.7931871  42.0596361  24.8073673
  48.8867664  41.6277075  25.6564331  49.2851496  41.5056515  24.2013121
  16.7809391 103.6873817  29.9930644  17.4345636 103.5581875  29.3058133
  16.8242347 104.6226788  30.1920080  31.4323902  28.5079050  43.9290428
  32.2378397  27.9918003  43.8956356  30.7422066  27.8907156  43.6862326
  30.2499318  37.6093817  61.9508171  30.6623650  36.8314004  61.5754843
  30.8247161  37.8598380  62.6740932  17.7749133  95.6976414   2.5243926
  17.6457381  95.0110626   3.1787279  17.1069157  95.5249310   1.8609294
  65.3083849  31.3933086  21.4903975  64.9893618  31.3968515  22.3928642
  64.5144749  31.3985872  20.9556913  43.1267166  42.4441481  38.0670071
  43.1415462  41.5164280  37.8317618  42.7720690  42.8818369  37.2931314
 102.8788090  67.2612190  11.1730754 102.0883942  66.8134356  10.8714688
 102.8116417  68.1412745  10.8026326  72.7499104  31.7466116  40.2142954
  73.1133175  31.2395048  40.9402514  73.5103083  32.1635652  39.8091054
  43.4425831  19.9318206  18.5495842  44.1520500  20.1938820  19.1362786
  43.3266783  18.9964867  18.7167645  82.9381943  57.2648430  87.7785778
  83.4434605  56.4844656  87.5506496  83.5645390  57.9851055  87.7068520
  38.3539128  32.3656654  51.6078472  39.1345930  32.0612669  52.0705700
  38.2782030  33.2892346  51.8476820  38.8807344  11.6151130  25.5001545
  38.4981680  12.4435890  25.7891202  39.2825055  11.8185210  24.6555018
  16.9762957  25.6003380  42.0596170  17.8011179  25.5249357  41.5798092
  16.9454563  26.5148163  42.3407078  12.5675368  69.1966438  28.5632944
  12.5045609  70.1452589  28.6746287  11.9188488  68.9908981  27.8901625
   3.0401999   5.7350129  27.8047347   2.9732549   5.9855723  26.8833375
   3.8009730   5.1552123  27.8406096   7.0509630 106.4715862  44.3382740
   7.4350315 105.9578133  45.0487375   6.3394403 106.9594097  44.7529984
  36.7845988  22.0310450  25.6139851  37.5925422  21.5262151  25.5211973
  36.5461135  22.2682142  24.7178221  23.1631446 111.4658165  57.4714565
  22.8169489 110.5892658  57.6389122  24.0715361 111.3183022  57.2082138
  14.5000064  38.8411999  26.1774969  15.4442084  38.7202740  26.0770369
  14.3750894  38.9820361  27.1160030  49.7237873   0.2678939  35.9266448
  50.5243063   0.2650850  36.4514232  49.0941763  -0.2305920  36.4475393
  27.9158235  46.0618639  57.2132444  28.7012529  45.8514929  56.7081881
  27.9128122  45.4249525  57.9277849   6.9766331 108.7344265  17.0198774
   7.0127487 109.6888065  16.9558811   6.5766263 108.4541416  16.1966717
  80.1141453  18.0418026  12.8926444  79.8517609  17.9487932  13.8084698
  80.7603931  17.3488212  12.7570844  62.8317547  45.5267477  19.1366780
  63.6693239  45.0653934  19.0935731  62.9897404  46.2542772  19.7383189
  40.5918503   1.3909660  50.3081083  40.9234762   0.5022906  50.1796055
  41.0918522   1.7280369  51.0514927  55.8845091   8.7084395  53.3233261
  55.6840563   7.8678405  53.7349653  55.2015209   9.2993498  53.6404800
  19.1559255  25.1214409  40.8874893  19.6523225  24.3368220  41.1202908
  19.6993697  25.5640149  40.2355433  23.0378270  12.9427326  17.7451789
  22.7866054  12.0204628  17.7955508  23.6982250  13.0488241  18.4299064
   5.1346296  46.5356350  39.5968962   4.6091926  45.8925867  39.1208363
   4.5585433  46.8455505  40.2956867  59.6801424  16.8215430  38.1428146
  60.4801369  17.3471212  38.1397104  59.9724293  15.9390938  37.9145932
  81.9160748  25.8128905  51.3705635  81.5439892  25.1141214  51.9086218
  81.4385319  25.7578921  50.5428171  17.6135707  34.2228246  43.8825274
  17.5675333  34.2144275  44.8385811  17.0537770  33.4960103  43.6093903
  71.8214846  25.0306225  54.5409536  71.7466974  25.9800196  54.4446087
  71.8984890  24.8909855  55.4847765 116.8887520 109.7610092  12.5141835
 116.3638496 110.5511761  12.3863244 117.7424908 109.9773216  12.1392429
  46.6633129   3.2472485  50.1753378  45.7651901   3.4555948  49.9180603
  46.6861725   3.4098741  51.1183453   3.0913997 105.5424976  13.4983194
   2.2726154 105.0837135  13.6863244   2.8973868 106.4623356  13.6785662
  95.7759953  54.9324989  87.7693176  96.2649918  55.4674625  87.1440792
  95.7127380  55.4780388  88.5532951  13.3018541 106.7020226  48.7050724
  13.7260139 107.0296192  47.9119778  12.3699236 106.6820812  48.4874964
  35.2303839 101.2266064  29.6018767  35.5979609 100.9714317  28.7557101
  35.7106471 100.6994915  30.2404094  48.2332611  31.4242697  10.1532364
  48.1187868  31.2830257   9.2134607  49.1455793  31.6991043  10.2447546
 115.6379128  39.3740177  44.6228695 115.8124924  38.4835553  44.9275541
 114.8700333  39.6518183  45.1222897 111.2851048  91.9282913  28.4537387
 110.5150127  92.1138954  28.9910936 111.1011505  92.3540497  27.6164103
  42.5001526   2.5263348  58.6961079  41.5983009   2.8142619  58.8374996
  42.9910803   3.3361691  58.5568666  52.3861742  19.4935977  81.0010242
  52.0911598  19.8397958  81.8432426  52.5035810  18.5562277  81.1552429
  52.9362392  24.8623991  48.9346361  52.6173592  24.7599816  49.8313332
  53.8205814  25.2150297  49.0337276  22.8073716  11.4314890  52.0842266
  22.5782442  10.5450416  52.3634100  22.2676325  12.0019758  52.6314545
  12.0623493  24.1884565  47.4027967  12.4627841  24.9955297  47.7260923
  12.4329329  24.0709019  46.5281105  91.1147594   6.6043651  60.4486418
  92.0667458   6.6763425  60.3794432  90.7857418   7.4306715  60.0948095
   9.9859989  38.0898714  51.3368464  10.1865864  37.2882271  50.8537674
   9.1904533  38.4256792  50.9238386  32.9442143  44.5175219  21.3218689
  33.2576871  43.7670374  21.8265915  31.9905281  44.4691181  21.3879776
  51.7872477  11.2833524  56.3955545  52.7069187  11.4721060  56.2089777
  51.3999557  12.1388745  56.5808105   7.7602249  76.3237762  14.1492844
   6.9318771  76.5039778  14.5938039   7.6826501  76.7722034  13.3071887
  31.7255259  29.6061826  65.3818846  32.5837636  29.1921353  65.2911854
  31.5094399  29.5088434  66.3092804  66.1676121  23.9791560  16.2075543
  65.4169941  24.4551969  16.5627861  66.0394049  23.0769038  16.5003574
  18.3473706   0.8077953  11.7279208  17.4953770   0.5007599  11.4179814
  18.9522290   0.0998161  11.5062618  53.0539465  91.7138958  89.8219299
  53.4650946  91.2574959  90.5560207  53.7227726  91.7173386  89.1371727
  80.3957205 110.6876362  43.2361460  79.5541414 110.3352770  42.9466295
  80.1666895 111.3477336  43.8903999   9.1251326 111.4010143  19.8473489
   8.8526607 111.8105125  19.0261912   8.7696815 110.5134201  19.8018551
  80.7868671  84.3938351  93.8711834  81.2919998  85.1564598  94.1530800
  81.4387512  83.7012577  93.7634277  46.1395073  46.6626692  95.5229092
  46.1153126  47.2969007  96.2394238  47.0684671  46.5800953  95.3074074
  27.2507858   0.7964361  23.5526228  27.7973986   0.0276653  23.7152243
  26.4200306   0.4379129  23.2403159  90.2750587  71.4816713  90.8451080
  89.3754959  71.7814636  90.7141495  90.6034470  72.0176411  91.5669918
  77.3356676  29.9369693  75.7576752  77.8001404  29.9969792  74.9228668
  77.9732561  29.5527673  76.3594246  43.2580900   7.2674674  22.7378583
  43.9769697   7.4367887  23.3467722  43.2855701   8.0019569  22.1246696
  28.1110954 106.1492729  48.6653137  27.1668267 105.9944057  48.6899328
  28.3359027 106.1111546  47.7356720  40.4912424  22.8052855  23.4271955
  41.0952139  22.2935700  22.8890538  40.9461308  22.9115987  24.2626619
  27.7253246 110.5076122  34.1285515  27.0388365 111.1532307  33.9608145
  27.6619911 109.8948288  33.3959389  77.8784466   6.1023551  34.2908692
  77.5324297   5.4283202  34.8758292  77.1167755   6.6351235  34.0622926
  54.8058319  33.3243418  44.1140795  55.3612661  33.4574294  43.3459568
  53.9316034  33.1741571  43.7543631   4.0239200 100.6996536  49.0798140
   3.3689243 100.5534649  48.3972883   3.6911750 101.4484215  49.5746565
  38.7882423  25.2293682  36.2825704  38.2045436  24.8824453  36.9572377
  38.2007980  25.5311179  35.5896854  27.2748208  20.2093935   4.1080794
  26.8448615  21.0633540   4.0620485  28.1741381  20.3785896   3.8273123
  61.2407446  18.0749404  31.1949468  61.7844868  17.7226555  30.4903412
  61.5539885  17.6319504  31.9835353  15.5466115  92.3847294  38.5231113
  14.6511447  92.5806332  38.2474399  16.0970962  92.7770615  37.8454137
 117.6755524 101.6869640  35.6823015 117.0352077 101.1802864  36.1817694
 117.3379898 102.5825119  35.6989861  14.3035388  12.4093688  16.9769371
  14.8357213  12.5159967  17.7653813  13.5793662  11.8466437  17.2510636
  13.2683396  71.3557863  91.5035629  13.5874736  71.5907097  92.3748779
  12.3177516  71.4511395  91.5629005  85.7672787  90.9354591  52.7398443
  85.7594776  91.7668819  53.2140827  86.1369133  90.3085423  53.3615971
  43.8276720   9.4789708  89.7567081  44.0304089   9.7777635  88.8702297
  42.8991079   9.2487121  89.7253609  32.2631812  13.7992835  51.9503784
  33.1103206  13.7772155  51.5052986  31.9684958  12.8885746  51.9497490
  35.9150481  35.3942156  47.8565836  36.0740638  36.3196349  47.6707268
  36.7543054  35.0673556  48.1806803  80.7659435 107.8918934  87.2312355
  81.1778450 107.1996212  87.7482700  79.8290157 107.7021408  87.2801876
 106.4261246  91.7035389  35.6243086 107.2578335  91.4501476  35.2239418
 105.8131599  91.7551136  34.8909330  35.5868387  12.6484191  35.6052256
  35.1432681  11.8183362  35.4307580  36.2778497  12.4243450  36.2285447
   7.9143953 105.5188274  49.8223829   8.5751164 106.2050819  49.7289610
   8.3082849 104.7495174  49.4109869  32.5540614  16.1088383  48.3252716
  32.7270722  15.1712847  48.2398748  33.0917358  16.3849866  49.0674829
  41.1887312  30.9853268  14.0266764  40.3526163  31.3546181  14.3108654
  41.5722561  31.6620970  13.4688926  27.7273250 107.5629139  23.2263875
  28.1318951 108.2071877  23.8073063  28.1697106 106.7403412  23.4359241
  50.8962059  36.9290161  23.6726356  51.6896391  36.3978505  23.7401557
  50.1806211  36.3103104  23.8188410 115.1890182  18.6410809   7.7062005
 115.9682465  18.9499307   8.1684202 115.4948902  18.4558856   6.8182945
  42.7511120   7.2568601  27.8468227  43.5031986   7.0175779  27.3052120
  42.9175615   6.8327332  28.6886311  63.5811663  62.2565842  95.4699802
  63.9861107  61.7613506  94.7579479  62.7880478  62.6273489  95.0830364
  15.5872977  75.1241255  93.0407429  14.8248875  75.3031111  92.4903584
  15.3251755  75.4137993  93.9145947  52.0925522  20.2746844  44.9252653
  51.1961699  20.5859470  45.0511646  52.3656702  20.6611943  44.0932512
  23.9105654  60.8040047  24.6824455  23.6138415  61.1744308  25.5136943
  24.4349360  61.4987564  24.2842221   7.6831949  19.0144348  59.5464373
   6.8084449  19.1074693  59.1690922   8.0429041  19.9014425  59.5388222
  44.4457531  36.8801260  47.5203609  45.0337648  36.9032979  46.7654228
  44.9627256  36.4706874  48.2141399  53.9900541  10.7295310  76.8365240
  53.5390234  11.2843025  77.4729443  54.3259907  11.3410950  76.1812639
  41.2567091  16.2420642  29.4804859  41.9582367  15.5925357  29.4335508
  41.7089987  17.0853078  29.4559097   1.1283425   7.1256596  72.3998833
   1.5781172   7.9638696  72.5063705   1.4138246   6.6037005  73.1497478
  13.8087893  28.5617876  26.5526628  12.9242814  28.8311481  26.3050294
  13.7358618  27.6214743  26.7161441  50.2987576  26.7515802  25.8754873
  49.5697498  27.2581029  25.5174184  50.7559919  27.3642397  26.4515233
   0.2606700  81.7663574  94.1710186   0.0773031  81.4875412  95.0681591
  -0.2085096  82.5954056  94.0772343  87.5926399  69.0998745  88.9121342
  87.3246765  69.3631744  89.7925282  86.8951321  68.5160589  88.6140251
  43.1364632  40.6233501  19.4168937  43.3514118  40.1955938  20.2457786
  43.9848661  40.7891703  19.0058672  19.0806305  24.2709184  27.9259992
  18.2017314  24.5502949  28.1823516  19.4096410  24.9855995  27.3808241
  54.2258120  21.4374590  21.1306930  53.5068607  20.9810376  21.5677476
  54.6628046  21.9220281  21.8310237  33.9261651  40.6316614  10.6297553
  33.8415933  39.9827409  11.3283098  33.0529118  40.6800175  10.2407575
   8.6591101 108.8161182  26.0030293   9.5739180 108.5398293  26.0580111
   8.5953075 109.2671204  25.1611519  81.6176224  19.9988627  55.2121878
  82.1829128  20.2013898  54.4667578  81.7909622  20.6990433  55.8414221
  14.8989081  86.1114788  17.5350618  15.0006640  86.9770718  17.1393132
  15.7927489  85.8320904  17.7331138  29.4643891  35.6711772   0.6262369
  29.1641009  34.8348239   0.2704782  28.6777365  36.0691169   0.9991331
  27.2920132  43.8677025  19.7161961  27.7528596  44.6047354  20.1169896
  27.9722166  43.2099342  19.5716536  22.0227480  28.5401964   4.9217391
  21.8066835  27.6260495   4.7376680  22.9241133  28.5133052   5.2427495
  72.6615238  26.7981243   5.9734654  73.0671120  26.0366869   5.5588090
  71.9280148  26.4373040   6.4714664  56.2895346   4.6208543  15.6261122
  57.2428083   4.5705494  15.5556512  56.1267948   4.7961986  16.5529358
  31.7152882  17.9551780   1.0533843  31.7280030  17.3759639   0.2914255
  31.2450910  17.4591184   1.7235103 111.7548084  36.7217565  26.8500423
 111.0043812  37.1127200  27.2975254 111.7225647  37.0859742  25.9654307
  31.5766406  46.6447258  58.5360956  31.6164899  45.8029366  58.0821800
  31.7115521  47.2951078  57.8468657 116.0367680  98.8718700  52.1878004
 115.5554008  99.2480659  52.9246855 116.9508934  98.8761139  52.4716616
 103.3438301 103.3576393  63.6365843 104.1372871 103.1794071  64.1414642
 103.5619831 103.0879402  62.7444506  82.5880337  88.6301041  77.0941877
  81.8094254  88.2386303  76.6982746  82.2484779  89.3401527  77.6389456
  53.5734129  15.3219926  41.1431551  53.3481979  16.1843002  40.7939625
  54.2287064  15.5004203  41.8176794  24.7743773  53.2641363  24.3321419
  24.7353315  52.3178911  24.1931200  25.1172113  53.6131525  23.5094118
  26.3274670  26.8070674  22.7559543  27.0207763  27.2902513  22.3064113
  25.6966639  26.5970325  22.0673299  46.8228197  35.3053331  62.5113821
  47.7661610  35.4114485  62.6341677  46.4782906  35.1838660  63.3961296
  35.6861830  15.5839610  81.8740559  35.9367657  15.6620312  80.9535408
  35.7358932  16.4779627  82.2124672  59.5164967   7.4536234  35.7767034
  60.3061390   7.7669477  35.3356576  59.7619629   6.5976977  36.1279416
  38.4212089  27.0489120  44.7851276  39.0505409  26.9370461  45.4976273
  37.5739503  27.1259642  45.2238131 113.3630466 101.4202976  17.6910758
 113.6427689 100.5579948  17.9983568 113.4101677 101.9781303  18.4675002
  54.9864960   6.3615280  39.7802258  55.7482958   5.8954114  39.4358063
  54.3044090   6.2243766  39.1228199  64.8884344   0.5278499   8.7740600
  64.4915247   0.9350184   8.0040544  64.2206907   0.6030296   9.4557494
  75.2500725  23.3820939  89.3938637  75.3152466  22.7428150  88.6844254
  74.8792171  22.8900170  90.1263618  36.1824942  16.1047208  10.0002944
  37.0338941  16.0094881  10.4272389  36.3232589  16.7756498   9.3322587
 117.4602890 104.4014645  37.0976496 116.6141319 104.7844028  36.8661046
 117.3215675 104.0205383  37.9647613  53.1966543 110.8191013  27.2668791
  53.5075188 110.1063251  26.7087150  52.2833681 110.9443188  27.0090747
  33.2959461   3.0760908  29.5716739  32.9023838   3.2561374  30.4254436
  34.1935182   3.3996189  29.6486735  14.1597199  20.0966668  61.2585545
  14.9739313  19.5933867  61.2583065  13.4902143  19.4689333  61.5304804
  12.8829920  89.1818428  41.9452524  12.7381516  89.8521519  42.6130438
  12.8473127  88.3542633  42.4248981  29.7967768  19.9660742  20.7901144
  30.1982808  20.2591634  19.9721146  30.0220704  19.0375853  20.8482885
  35.5199265   0.8606382  25.8846807  35.0189376   1.0105346  26.6864109
  34.9825907   0.2529169  25.3765726  49.6102619  14.9474740   1.7699912
  50.4599428  15.0162983   2.2053504  49.4101763  15.8414721   1.4925656
  62.0556641   2.1574923  45.4152536  61.6727638   1.7418832  44.6426678
  61.3444710   2.1737961  46.0556984  77.4924040  76.9199705  92.2261429
  76.5724945  77.1719265  92.1453762  77.5498247  76.0760546  91.7780972
  13.8676250   0.1446302  34.1971636  14.7188485   0.4941484  33.9335585
  13.3887351   0.0353743  33.3756042  54.5499134   3.7226194  27.8706074
  54.3023968   4.6340913  28.0261302  55.5029774   3.7445927  27.7845049
  37.3074937  14.2074859  32.2164297  37.6162338  14.9143708  31.6496634
  37.7046561  13.4168553  31.8511939  11.8039620  30.6279325  15.6611741
  11.7062390  31.4150047  15.1252627  12.3446453  30.9069300  16.4001286
  41.9769239  13.3523333  56.7985964  41.9059658  13.9617467  56.0638762
  41.3704062  13.6962008  57.4544334  39.8379374  25.3005362  22.3190951
  40.1326036  24.4135976  22.5258446  40.4679918  25.6174874  21.6719413
   4.0490496  12.4257290  95.7641506   4.7282064  12.6628137  96.3956356
   4.5313802  12.1782970  94.9752522  46.9370031  28.4777927  42.3487806
  47.0465279  27.5678349  42.6248503  45.9974766  28.6415195  42.4307394
  42.8056002  14.0215707  44.2235279  42.7776051  14.0728021  45.1789474
  42.9390240  13.0921865  44.0373135  25.8089209  87.7270794  68.6916494
  24.9203825  87.7094650  68.3360958  26.2955499  87.1047306  68.1511736
  22.7133489  10.2516305  65.2550411  23.2485318  10.9954572  65.5316830
  21.8656206  10.6362367  65.0321865  88.0373287  11.8169057  38.8651609
  87.3518658  12.2828615  38.3863592  87.5998878  11.0406101  39.2147827
   7.5930834  22.8787851  84.4253349   7.7829385  21.9537354  84.5817471
   7.9675066  23.0576086  83.5627365  91.8449306  28.8258934  11.3328946
  92.2655010  29.2826414  10.6043804  92.2949791  27.9823208  11.3785148
  35.0817060  29.4128203  26.8996739  35.6427765  29.8363757  27.5493145
  35.6577826  28.7915158  26.4543128  68.1565857   2.1639353  58.6005592
  68.0778456   1.2101884  58.5805941  68.0640125   2.3925956  59.5254230
  68.5162104  68.0722269  95.3443323  69.0238750  68.8365480  95.6169518
  67.6135624  68.3876428  95.2999581  92.3899078 109.5216179  30.5416512
  92.6930428 109.3999958  29.6419024  93.1408215 109.2770100  31.0825109
 113.2456112 103.6445618  43.8943720 113.5762310 103.5587978  44.7885561
 112.4430847 103.1229496  43.8846827  29.3633819 101.0296249  15.5871689
  29.5607114 101.8046951  15.0612903  28.6009622 101.2814808  16.1082435
  34.2415571  35.4794836  37.9016924  34.4408226  34.9112558  38.6457658
  34.9194908  35.2766252  37.2571087  39.5279860  16.6326392  52.3016930
  40.0544024  15.8427048  52.4246645  40.1585531  17.3509920  52.3525238
  13.5646212  12.7800000  33.3267522  13.9683878  12.8387821  34.1926336
  14.2286873  12.3589301  32.7809072  39.8830330  10.4830268   0.2315111
  39.4406330  11.3025764   0.4525346  39.1874039   9.8255637   0.2397317
  64.5735836  28.2710791  16.5491855  64.5876551  29.2248178  16.6292989
  63.7016916  28.0722356  16.2078619  47.9177809  29.0748382  38.0336714
  47.8903770  29.6641040  38.7874913  48.4166861  28.3174396  38.3397365
  72.5751638   6.3372850  37.9471469  71.8250322   6.8341655  38.2737088
  73.2202530   6.3861072  38.6526322  40.0713491  22.4140882  66.3126993
  39.4412661  22.6719975  66.9855356  39.6690559  22.6904631  65.4892874
  10.4795718  14.8339748  25.9988594   9.8405707  15.4847729  26.2893248
  11.1917114  15.3497469  25.6206131  66.3418722  19.3406940  11.3757801
  67.2583866  19.6121645  11.3254058  66.0052156  19.4681919  10.4888535
  32.3065805  23.3132410  43.7510967  32.3580146  24.2652702  43.8361025
  33.0135036  23.0882454  43.1462240  29.8250461   2.4330850  46.2661839
  29.3619323   1.7671420  45.7579756  29.2391562   2.6262617  46.9980669
  19.9622774   9.3189043  62.8594208  19.0881717   9.5200402  62.5251818
  19.8510039   8.5010743  63.3441925  11.3880229  85.3606987  28.4699464
  11.2036264  85.8448982  27.6650977  12.2277915  85.7075882  28.7710905
  11.3755286  97.9827881   1.7916508  12.1588480  98.0478287   1.2453779
  10.6490755  97.9726315   1.1684378  68.5738182  45.1309204  94.4117355
  68.2423687  45.6592226  93.6856079  68.1379938  45.4874563  95.1858044
  25.3980803  12.6127815  36.1702824  25.9571123  12.3215759  35.4499245
  25.2785635  11.8322527  36.7113209  25.9134865  35.1214647  28.4405422
  26.0068512  35.2420306  29.3855166  24.9677992  35.0998831  28.2941198
  11.6371918 107.4295998   7.6540643  11.0202777 107.4646091   8.3851069
  11.9176972 106.5150261   7.6209664  13.1023180 107.7435303  34.1231775
  13.1734061 108.2584858  34.9269176  13.3410287 108.3540440  33.4256673
  21.1878061   8.3742648  50.4816008  21.5766287   7.5031382  50.5602551
  20.3593111   8.2264709  50.0255442  56.3033152   3.7912032   6.9636202
  56.9430447   3.1262726   6.7089808  56.5479517   4.5654646   6.4567643
  36.9143534   8.4841222  78.9420843  37.1698022   8.6937606  79.8404312
  36.0612106   8.9038348  78.8315344 109.2304802 110.0907516  44.1775227
 109.8516178 109.3956089  44.3947601 108.9473343 110.4325867  45.0255871
   8.7474197 101.8536568  17.1173656   9.2644608 102.0215607  16.3295150
   9.3873078 101.8580437  17.8292334  41.9397831  35.5105281  23.6024046
  41.0007668  35.6063962  23.4433866  42.3421049  36.2133670  23.0921221
  83.0365944  33.8749409  78.3091450  83.4421253  34.3067718  79.0610123
  83.6298656  34.0561604  77.5801563  74.5915174  12.2095108  26.8322563
  74.1910744  11.7878425  26.0719442  73.8821793  12.2737670  27.4717474
  79.1288805  26.5194774  39.4245839  78.4548998  27.1957397  39.4927311
  78.6721516  25.7621789  39.0583491  35.2277231  24.4373345  31.1140060
  36.0955095  24.8388529  31.1583042  35.3222585  23.6099648  31.5859771
  18.8207853 109.1761208  34.8116517  18.3192503 109.9293327  34.4996095
  19.2906356 108.8641930  34.0382385  39.7079325  98.9861870  38.2890987
  40.5721617  98.8485146  38.6768937  39.8854589  99.4302177  37.4599147
  95.4120636  94.6328068  21.2676501  94.8579216  94.4269943  20.5147886
  95.3426075  93.8638878  21.8334913   7.8854930 106.1295986  37.6064086
   7.8021413 106.8030453  36.9313121   8.6060876 106.4322948  38.1589937
  81.4626312  17.7586865  36.5278554  80.9895802  17.9711103  35.7232857
  80.8676529  18.0185139  37.2312236  39.5396423  81.5062332  51.1701012
  39.1801071  81.7104340  50.3068113  38.8165641  81.0885620  51.6380119
  45.1701689  16.9477105  37.3672342  46.0420990  16.6176748  37.1503472
  45.3144598  17.5370681  38.1075501  29.1796947   9.5675451  -0.2457356
  29.1900778  10.5019641  -0.4530611  29.2624855   9.5327169   0.7072410
  28.1217623  12.3853469  27.7566671  28.5494113  11.5901041  28.0743718
  28.6400557  12.6485360  26.9961834  21.8561721   2.5572947  45.0758839
  22.5496817   1.9187933  45.2419949  21.4790297   2.7310917  45.9383154
 116.1575413 105.3997040  28.1002164 116.3715935 105.9856224  27.3741913
 115.5977440 104.7287464  27.7094698  14.6995068  20.9591961  23.9879489
  14.0570283  21.1646557  23.3088017  14.3316901  21.3357759  24.7874045
  29.5373178  54.2031765  50.7623196  29.2201400  53.4230709  51.2173605
  30.4544163  54.0104532  50.5673409  44.8827219  43.0176735  29.9916458
  45.5168629  43.2262373  30.6776500  45.3637838  42.4566412  29.3833280
  11.2052131  21.1781645  37.7127075  11.4457870  20.2894473  37.9745102
  11.0696387  21.1208105  36.7668939  71.3216591   3.7141448  15.4031968
  70.9191275   3.8935319  16.2529159  72.1471405   4.1983429  15.4222178
  46.6070890  48.9431429  15.3534198  46.7768192  48.2924891  16.0346496
  46.5815639  49.7781229  15.8207417  59.4314337   6.6314828  27.4313045
  59.9866390   6.1818671  26.7942595  59.9861145   6.7298484  28.2051802
  81.5845394  46.9402122   7.6749510  81.5795135  46.8081570   8.6229843
  81.0506630  47.7230406   7.5393361  41.6488743 101.0216618  33.5616827
  42.5156403 100.6356907  33.4352636  41.7834187 101.9603920  33.4316516
  43.3230400  37.5860357  56.9785738  44.0313196  37.6768541  56.3411379
  43.3402252  36.6614175  57.2255945  35.1115727  35.4369402  41.5278769
  34.4789195  34.8187971  41.8937778  34.6393991  36.2687206  41.4900970
  69.0559149  22.5053549  52.6994038  69.9024439  22.4530101  53.1431103
  69.2308807  22.1922255  51.8119526  16.6263330  57.4841356  41.1729908
  16.9277465  57.3373508  40.2764225  17.4086225  57.3640585  41.7113543
  66.1519051  31.9526815  35.7927942  66.4036369  31.2368083  35.2093649
  65.2171516  32.0777321  35.6289983  49.8128080  37.8080511  -0.1385586
  49.5487642  37.4899626   0.7247680  50.1504230  38.6889148   0.0236948
  47.5527191  25.4845333  68.0895233  47.9210377  25.1312304  67.2797394
  46.6962814  25.0640368  68.1665564  38.1172824  23.4379578  40.7760048
  38.7207294  22.6976252  40.8391714  38.0423951  23.7631369  41.6731596
  56.9981194   6.9791800  26.8484569  56.5874338   6.1815280  27.1821046
  57.8902388   6.9519448  27.1943116  48.8736486   9.0797633  30.0480580
  49.7306108   9.4043052  29.7714305  48.4501600   9.8366994  30.4529476
  48.6885309  35.7449722  54.0963316  48.6840248  35.4983497  55.0212002
  49.2372084  35.0835681  53.6747503  12.5162268  33.3974910  37.5804090
  12.5736177  33.5530448  38.5231400  13.1698906  33.9845777  37.2005582
  98.8555431  10.7052565  28.7854958  99.6108246  10.2033520  29.0918922
  98.6189938  10.2975106  27.9524183  29.0464425  27.3129034  31.4685249
  28.9712214  27.9958248  30.8020449  29.7708273  27.5996995  32.0246267
  32.0304513  70.9680271  32.8721762  32.2357821  70.3068399  33.5331631
  32.2120690  71.8027925  33.3039308  10.5343044  24.5563507  28.4782791
  10.8144760  23.7591529  28.0285978   9.8995054  24.2543721  29.1279483
  36.6626358  10.3424382  26.9584441  36.1032820   9.7274935  26.4838934
  37.3417425  10.5836761  26.3284826  54.0550280  15.0525498  65.4190540
  54.8238230  14.6132421  65.0554705  53.4612560  14.3398750  65.6551886
  41.5508842  19.3956459  27.6206040  42.3529863  19.9125946  27.6956439
  41.6338825  18.9454019  26.7799950  60.0243902  21.1407280   2.6904815
  60.8075190  20.8650327   3.1668583  60.0220442  22.0949936   2.7653465
  79.3119240  21.1079311  39.3388104  78.3914804  20.8729982  39.4563651
  79.7314596  20.8509541  40.1598978  13.3770978  27.0537138  33.2931828
  13.0608821  26.2038922  32.9865193  14.0201521  26.8402267  33.9693022
  62.3661280  12.3460591  32.7143526  62.6583767  11.4555752  32.5197768
  61.7020607  12.5307035  32.0501614  66.5508747  12.3228431  60.2713108
  66.8649864  11.8572509  59.4962072  65.6418562  12.5422537  60.0669146
 116.1752224  31.8880844  58.3921719 115.8338833  32.7702069  58.5390854
 117.1122646  31.9605565  58.5736322  57.1297359  29.3519402  52.1402359
  56.5441799  30.0958705  52.2813988  56.5495348  28.6364460  51.8801022
  29.2245722  16.1251712  11.5571201  30.1232958  16.2684262  11.8537760
  28.8750243  17.0053720  11.4182150  52.6577377  23.1572938  29.7973442
  52.1391964  23.1639671  28.9927936  52.9457998  24.0638494  29.9041605
  19.1029346  30.7869363  42.1653461  19.8129511  30.5941033  42.7776575
  19.5247853  30.8011317  41.3062334  42.2714281 105.9728909  44.1642332
  41.8848705 106.5291309  44.8405504  42.9617596 105.4891109  44.6177006
  97.2920799  70.5358744  89.2113400  96.9748211  69.7497129  88.7668991
  97.4291420  70.2598524  90.1175785  43.5085917  53.1919622   4.4744465
  44.3439007  53.2172203   4.9411961  42.8474760  53.1877184   5.1666439
  94.0510750 101.0061836  17.7291930  94.4718170 100.1874924  17.9917729
  93.4898376 101.2353706  18.4699488  11.3359332  42.5437117  30.7807374
  11.1429024  43.3317089  31.2887120  10.8488965  41.8483925  31.2229538
  49.2519140  17.1727383  51.5857124  49.9491215  17.6161277  52.0689678
  49.7124052  16.5981519  50.9741306  47.4185944  32.4554300  51.4788342
  47.7567482  32.0544195  52.2795057  46.4963245  32.2003841  51.4542723
  42.4802828  61.7955923  41.9753599  41.7134809  61.3739538  41.5874577
  42.8680897  61.1210918  42.5329304  64.3543482  34.9117422  20.0645876
  63.9454794  35.6508160  20.5149531  63.6586666  34.2577410  19.9972010
  31.5911436  16.2695038  34.5711732  31.7105794  17.1063364  34.1220880
  30.8493662  15.8616316  34.1243649  53.8716316   5.0225157  24.4493604
  54.3431330   5.8333856  24.6401691  54.5101976   4.3292254  24.6161413
  40.8219957  16.4233124   7.0811027  41.1895132  16.7368174   7.9074657
  39.8748469  16.4404941   7.2183889  27.3537517  13.3258641  20.7746458
  27.0338011  13.9285505  21.4459372  28.3063674  13.3507192  20.8648467
  26.6367888  61.8216944  30.1592207  26.8247676  61.1068249  29.5510602
  26.4681220  61.3869143  30.9951329  50.8415031  14.4712842  42.6229811
  51.7506409  14.6971822  42.4263430  50.8177042  14.3814552  43.5756588
  60.1610851  30.9988308  53.8468361  60.1406860  31.2983131  52.9379177
  59.4899273  31.5210676  54.2862082  26.7858624  35.8877778  11.4187396
  27.1690965  36.0959458  12.2708130  26.8889809  34.9398494  11.3348854
  59.1585493  23.7200475  54.2854214  58.3638144  24.2465019  54.1989756
  59.5343876  23.7073946  53.4051800  44.9379492  29.7550130  58.2021284
  44.4328403  30.4226327  58.6662149  44.4826603  28.9348245  58.3924818
  42.5472546   3.9962575  41.2060165  42.7206945   4.3508068  40.3339815
  41.5939760   3.9209813  41.2487125  36.9603920  28.7016988  49.8439837
  36.0207868  28.7896848  49.6838808  37.2799397  29.6025062  49.8956442
  91.3141441  30.1356316  48.6662865  90.8402824  29.8046136  47.9033232
  91.4579105  29.3629789  49.2127037  11.9666564  42.9807520  65.0740528
  12.6620078  43.0063152  65.7313681  11.8796122  43.8881636  64.7820616
  66.6934538   8.6743242  28.5802245  66.4548779   9.5809925  28.3871841
  65.9845209   8.3536124  29.1377068  56.0143042  28.5561848  61.0116863
  55.8186626  28.7996030  61.9165134  55.3562546  29.0177011  60.4918718
  59.7664356  34.9332476  19.0846121  59.2632341  35.1509237  18.2999861
  60.1221466  34.0625048  18.9071083  25.7533121  93.0415630  90.7095432
  26.4708495  92.8672981  90.1004410  24.9713874  92.7295017  90.2540874
  30.8877444  48.8910341  39.8452258  31.7882895  48.7867260  39.5380259
  30.9757376  49.2584229  40.7247210  43.8548565   9.7371060  54.9174309
  44.4053125  10.4729092  54.6494341  43.1627417   9.7027975  54.2571020
  52.8631020  29.0332294  31.1598778  53.0975819  29.8943615  30.8138967
  51.9642115  28.8923216  30.8625937  19.3579161  77.7478504  73.4325838
  18.4428775  77.7030325  73.1552267  19.5094097  76.9223166  73.8927746
  71.2136459  24.7365379  38.9169693  70.8920574  24.0486693  38.3341742
  70.5013180  25.3750920  38.9497328  43.3324051  45.4160309  31.6357541
  44.2422390  45.5681944  31.8912649  43.0821943  44.6194553  32.1038318
  83.0615330  15.1405680  24.5599818  83.4368229  14.2653406  24.6567559
  82.1322060  15.0259864  24.7586036  17.6887465   6.1342269  62.4822760
  18.5986876   5.8599532  62.3682070  17.1763396   5.4477841  62.0551109
  53.9073277  24.2635894  22.8335476  53.7330961  25.1325297  23.1952333
  53.1497288  23.7395644  23.0936909  63.6358118  95.0401402  89.0191364
  64.0294647  95.1063156  89.8891354  64.2907429  95.4157066  88.4307098
 117.8182983  87.4132252  64.9174833 117.2307110  86.7480087  64.5590782
 118.5642052  87.4221611  64.3176746 116.5002251 104.0329742  76.0631895
 117.0871830 104.7869873  76.0068035 117.0850086 103.2802200  76.1504316
  50.2924728   5.5442530  20.8827329  50.7282352   5.7276106  21.7150331
  49.3775415   5.3926438  21.1197019  50.0764751   2.6545081   9.9229419
  50.8495903   2.0934832   9.9843520  49.6655655   2.5912809  10.7851422
  56.1063385  16.0959470  12.1255577  56.9239283  16.5476608  12.3346794
  55.9497595  16.2987769  11.2032914  47.6467705  22.9046154  32.6268625
  47.5903893  23.8046312  32.3058844  48.2657337  22.4774718  32.0346904
  55.9780693  12.1277833  48.4055662  56.7641449  11.8087554  48.8489008
  55.8992910  11.5734434  47.6292086  63.0630016  20.3882217  32.4518156
  62.2425508  20.0710487  32.0743227  62.7912664  21.0048747  33.1316185
  37.3248720  13.8642704  94.2590141  37.6620483  14.3309176  95.0237274
  38.0842352  13.3987308  93.9084816  61.0654640  15.9525156  21.8789101
  60.5878592  16.1777985  21.0805535  60.7162189  15.0986016  22.1340442
  49.3109369  11.7712390  64.2193222  50.1067877  11.4036429  63.8349676
  49.3236351  12.6927662  63.9607477  63.5485840   2.6382217  64.1908169
  63.0678654   2.5880510  65.0170279  64.2992973   2.0574650  64.3148518
  10.2252984  78.6991882  13.7096512   9.6230024  79.4364882  13.8089252
   9.7633624  77.9581118  14.1016388  58.3506632  19.5563257   3.9305046
  58.4905529  18.8570249   3.2920370  58.6924696  20.3420639   3.5038716
   4.0278256 111.3384760  51.5751648   3.8488209 110.9640041  52.4376965
   3.4876644 112.1279204  51.5400028  50.2992344  66.7335176  37.4026394
  49.7879028  65.9267616  37.3400402  50.0150108  67.1340895  38.2242179
 113.0588531 100.6066227  65.8863735 113.6237431 100.1509476  66.5104628
 112.6979542  99.9104786  65.3374004 117.0906830 109.6278381  48.0481577
 117.0505047 108.7320900  48.3831930 116.9822598 109.5346451  47.1016932
  67.3113012  25.7713699  41.7972851  66.5106440  25.5938554  41.3036633
  67.8860903  25.0332093  41.5948820  63.1950760  13.1245768  63.2225323
  62.8487015  13.3364737  64.0893412  63.6137533  13.9332736  62.9276514
  61.8709803  79.4675493  95.5476475  60.9789562  79.8121214  95.5053616
  62.3852873  80.1801682  95.9269810  61.3451576   7.5529820  49.2252207
  61.0991478   8.4413546  49.4831038  62.2995520   7.5383663  49.2970133
  66.6522217  56.5921593  88.9853859  66.1561203  56.9233036  88.2367516
  67.5656986  56.6264629  88.7014580  52.7790260  96.6472626  39.6632481
  52.5081539  96.2202168  38.8505435  53.2752419  97.4141216  39.3770027
  78.5638142  10.5154371  26.5818715  77.7494478  10.0685358  26.3509583
  79.0943289  10.4727876  25.7862806  49.9619007  93.9115334  11.7694199
  50.6834745  94.3984127  11.3712859  49.9500084  94.2036152  12.6808906
  68.4261990   7.1768433  50.6986618  69.0180922   6.8829298  51.3911295
  67.7302837   6.5198034  50.6835508  60.0660372  99.0646172  15.8102596
  59.2624378  99.0122318  15.2928483  59.9938345  99.8946857  16.2814403
  83.6090851   2.4719501  30.6178284  83.3060169   1.9829690  31.3828611
  83.0998707   3.2822919  30.6343651  48.6884832   5.8886635  41.1962032
  49.0613842   5.9381342  42.0763874  49.3624020   5.4526269  40.6747246
  43.8300562 102.6912975  23.2739782  43.9431858 103.5692406  23.6381984
  43.9285231 102.8094196  22.3292112  13.6488235  31.5461779  17.6520336
  14.3327165  31.0164785  17.2422278  14.0020919  32.4358010  17.6511168
  65.0002098  23.2563281  12.5104249  65.4324722  23.6037874  11.7302632
  64.6929932  24.0320635  12.9795563  65.4817057   6.6392553   9.1760737
  64.7315884   6.1920750   9.5679748  66.2450361   6.2133497   9.5661503
  50.5335903  16.0199499  17.2757065  50.1653576  15.6896532  18.0951834
  51.1991262  16.6511261  17.5494027  52.1273232  20.6942201  36.1414242
  51.8557310  21.5954852  36.3151717  52.0813704  20.6095910  35.1890802
  23.4811330  99.5950890  25.9465003  22.6123905  99.9906921  25.8756399
  23.6807418  99.6215248  26.8822837  63.3111382  20.8583069  21.2530327
  62.3796463  21.0472775  21.3663793  63.3360815  20.1611996  20.5975533
  50.1757336  12.3572230  17.6823521  49.9018669  11.7172861  18.3393967
  51.1191750  12.2214663  17.5944471  56.9841957  21.9454241  41.3226175
  57.3049784  22.7234864  40.8665991  56.0775995  21.8529081  41.0297728
  33.5233569 103.5593319  20.5237603  33.3241272 104.3105125  19.9649525
  34.1076660 103.9093876  21.1962748  39.3749833  60.2598810  18.9859545
  38.4566426  60.4009342  19.2161405  39.3468380  59.6383381  18.2585490
   2.1270134 108.7653542   2.1043397   2.2422208 109.4250965   2.7882177
   3.0133435 108.4547997   1.9193867  54.7291231  18.6667943  55.3601170
  54.7389984  17.9225206  54.7582960  54.1657495  19.3123758  54.9334288
  47.4169970  31.6706347  46.7607546  46.7955446  30.9894443  46.5038395
  47.2292852  32.4008584  46.1710358  42.9471827  12.1090162  61.3355827
  42.2673464  12.4371588  61.9241190  42.5219440  11.4033723  60.8482695
  79.6394205  63.7401056   6.9149888  79.5231533  64.6783829   7.0644850
  80.3418541  63.6860561   6.2669897  45.0630903  33.2290936  53.6111259
  44.4630814  32.7722716  53.0216026  45.2469826  32.5950146  54.3042040
  18.0173182  47.3252201  23.9332652  17.8998291  47.2219419  24.8775983
  17.7182198  46.4949846  23.5624814  56.3160133  19.4402254  35.4502630
  56.2855148  18.7877917  34.7505260  56.9168282  19.0699863  36.0969281
  52.6700258  27.9499984  43.4923744  53.1744385  28.4437585  44.1389036
  52.4400854  28.5955954  42.8241205  70.4912519  15.3322268   6.4028460
  70.0292921  14.6014106   6.8136197  71.0810328  15.6558514   7.0837671
  28.1639647  99.1433907  50.5736494  29.1155076  99.1327763  50.6770134
  27.8915524  98.2473373  50.7714081  22.8592443 107.3263550  43.2415962
  23.0543375 107.7310467  42.3963785  23.3426380 107.8542042  43.8771582
 114.8762512  40.3669930   8.9901662 115.0419426  39.8922181   9.8046410
 114.3988228  41.1506176   9.2625988  43.6711121  78.3376694  41.7819834
  43.4118414  78.9032698  41.0545874  43.8218784  78.9391851  42.5111485
 103.3258915  74.9780893  52.8916216 103.6864567  74.1312170  52.6288843
 103.6364079  75.5884838  52.2228765  12.0202971  62.9929638  14.0252805
  11.4586914  63.5210133  13.4578335  12.2854245  63.5913610  14.7237515
  88.1383038  50.3067160  21.1814260  88.2832623  50.9452677  20.4832363
  87.8777122  49.5070839  20.7243538  79.7055578  59.6699810  62.2189188
  79.1704988  58.8763666  62.2082043  79.0710163  60.3864717  62.2339582
  94.1518402  71.2902355  63.8649273  93.5216999  71.7510891  63.3110619
  94.7770500  70.9077168  63.2492685  83.2620907  57.8867817  22.5650072
  83.5741043  56.9916105  22.4325275  84.0409756  58.4312916  22.4506402
  16.1836052  70.9101915  53.6762857  15.4752159  71.1119127  53.0649567
  15.8822346  71.2584019  54.5154238  69.1804695  91.0982800  37.9811406
  69.8613644  91.6482353  38.3686471  69.4829416  90.2023315  38.1295657
  72.2947598  88.9949512  13.4349597  71.5228033  88.6784077  13.9041269
  73.0260706  88.8083172  14.0236712  76.5088606  59.9062014  34.6758175
  75.8998537  59.4046164  35.2178097  76.2732363  60.8203554  34.8340559
  91.2026024  71.6851139  58.8056993  91.4491940  71.4570951  59.7020435
  90.2956963  71.3899326  58.7243223 118.0368233  62.5268459  41.5872431
 117.6201344  62.1818733  42.3769188 117.4070740  62.3515177  40.8880234
  73.1172848  56.6481304  47.0450926  72.2712231  56.2127161  46.9410467
  73.6442566  56.3253736  46.3140965  32.4422550  53.0404949  30.8689737
  33.1613684  53.3955908  30.3464651  32.7511191  52.1781349  31.1467648
  69.0641832  63.7910223  54.4064379  68.6659002  64.2502594  55.1458311
  69.9503994  64.1485929  54.3516636  82.6792526  68.9942980  27.1476841
  82.3062706  68.8939285  28.0234957  83.1491184  69.8275518  27.1815085
 110.7201099  96.0740757  35.5659533 110.7448101  95.3776073  36.2221169
 111.1183643  95.6841946  34.7877383  57.7439404 101.5139580  38.0979085
  58.6600256 101.3365173  38.3112836  57.6198959 102.4360466  38.3228254
  62.4353361  63.4391928  47.6641941  62.3536825  62.4947548  47.7968454
  61.9885540  63.8263130  48.4170246  83.2383633  62.9474592  55.9830666
  82.6405716  63.0659580  55.2449369  82.8467464  62.2416162  56.4975119
  78.9204502  62.0047045  35.2832103  78.6723328  61.1873722  34.8511982
  78.2654667  62.6385546  34.9908710  93.1763268  73.7282181  35.2417874
  93.6809826  74.2564344  34.6232843  92.3326492  73.5944891  34.8098731
  84.9158096  57.5131941  11.0831916  84.1193581  58.0051088  10.8833826
  84.7021580  56.6084957  10.8549345  79.4734240  79.0027618  29.8868680
  80.2237225  78.5197067  29.5405364  79.6891356  79.9225903  29.7331977
  92.9570866  83.9913464  29.4367290  93.0847836  84.7771549  29.9681735
  92.4445248  83.4058857  29.9941778  89.7377300  95.2591515  44.1436338
  89.6200275  94.3104362  44.1918182  89.8764801  95.5296898  45.0512600
  64.4866323  53.6283159  18.0399907  64.5074177  54.1724586  18.8272083
  64.5322514  52.7303267  18.3682644  69.2287922  75.4109335  16.0924423
  69.4053555  76.3495493  16.1561584  69.8869801  75.0045919  16.6562760
  90.6598282  67.1174479  39.1269398  91.5045834  67.1789837  38.6810374
  90.1262474  67.8028774  38.7248158  78.9653540  72.1030712  64.6243095
  78.3441305  71.3818836  64.5233345  79.5610666  71.8112087  65.3143644
  63.7810135  79.7576666  34.5929122  63.3106756  80.4469585  34.1239810
  63.4809494  78.9442921  34.1871834  81.5763855 103.8481140   0.9806781
  81.9532681 104.3519974   0.2593639  81.9403076 104.2500973   1.7694747
  70.5683374  10.2839553  70.1161909  70.7519436  10.1076770  71.0389280
  70.8749533  11.1801136  69.9779224  70.4329443  76.4010382  54.3360329
  70.1610041  76.3029766  55.2485371  70.9903049  75.6409407  54.1692066
  59.8753977  55.1112604  57.9315710  59.7479820  55.5568027  58.7691212
  59.0730953  55.2895975  57.4409199  85.9150028  56.9590950  28.6994600
  85.2069092  57.5844812  28.8534880  86.0414314  56.5275431  29.5444512
  99.9070358  89.5206738  60.4090643  99.6265030  90.4225254  60.5646372
 100.5439281  89.5873070  59.6976137  79.8703241  62.6279259  59.2101574
  80.2611256  62.1196365  59.9208975  79.9880266  62.0822191  58.4326077
  69.8469448  68.0577326  48.5159636  69.1953611  67.3973370  48.7516451
  69.6133566  68.3172989  47.6247311  83.5079575 104.4184017  85.2301693
  83.3136272 104.1304398  86.1221027  82.6543427 104.4535637  84.7984982
  80.5150032 103.3444214  36.3456583  80.8490753 103.7193966  37.1605325
  80.2711678 102.4481010  36.5767312 113.7177563  11.4248610  44.4545031
 114.5210648  11.7240536  44.8804140 113.8512897  11.6203403  43.5270405
  10.1221120  98.8869095  19.7627926  10.5290115  99.7246361  19.9838758
  10.5476797  98.2539177  20.3411031 101.7104626  70.2994728  48.0799007
 102.3368263  70.3071928  48.8036633 101.7435932  71.1878300  47.7249908
  42.0236015  80.0934315  40.1158047  42.2628355  80.9161282  40.5426264
  41.2048483  79.8337078  40.5381966  77.4944353  98.4303188  34.4442701
  77.6997185  99.2585182  34.8780680  78.3070469  98.1833076  34.0028214
  12.9002750   0.4623088  18.0544770  12.8005815  -0.4829447  18.1675637
  13.6133504   0.7005214  18.6469376  93.8974476  63.9190435  47.0799017
  94.3342686  64.7664213  47.1657515  94.3166542  63.3656359  47.7388763
  94.5351982  82.1881866  32.2377181  93.6737728  82.2701836  31.8284941
  94.7730923  81.2694359  32.1130967  77.6820230  35.6540227  21.9747663
  77.1565199  36.4534664  21.9436264  77.1608210  35.0061750  21.5005541
  85.6585503  67.8076887  31.3325477  85.1203060  68.5473299  31.0506821
  85.6048775  67.8228188  32.2881222  88.4264660  65.7815170  22.0036364
  87.7501106  65.4356909  22.5860214  88.4094715  65.1989698  21.2443089
  80.0622845  87.7215767  35.1806307  80.0858593  86.9959736  35.8044791
  80.9506702  88.0777073  35.1937842  95.0638962  51.2062120  13.6649656
  95.0159550  51.3669634  12.7225792  95.9360027  51.5107489  13.9158201
  65.7006598  91.8537045  34.0173721  66.2058783  91.8636990  34.8303199
  64.9565744  92.4303532  34.1906905  66.1384583  83.9095402  44.5943546
  65.3078556  83.6983204  44.1680717  66.5949774  84.4685936  43.9656305
  90.0310421  75.3542519  25.5404186  90.3323936  75.9523201  26.2243271
  90.4131985  74.5088816  25.7760739  87.6369858  57.7753496  42.3617887
  86.7591572  58.1537104  42.3117733  87.4990845  56.8347359  42.2501373
 110.0770473  88.3692837   2.9906768 110.8341217  87.8046322   2.8350151
 110.3970051  89.0371037   3.5971999  38.5689497  21.9307375  84.3384933
  38.8238525  22.4831653  85.0774670  38.3794761  22.5481820  83.6320305
 116.0890293  81.4380550  62.0843410 116.0043335  80.5958939  61.6373348
 116.8737984  81.3446999  62.6243925  33.7318087   5.8658862  65.3971910
  34.2707515   5.7740748  64.6114826  33.9038801   5.0697875  65.9000349
  97.8199387  72.9822922  24.5861816  97.0485592  72.9296780  25.1504922
  98.2778263  72.1538687  24.7285938 106.2164116  84.4044685  26.8522453
 106.5944481  84.8837090  26.1149192 106.2917423  83.4833431  26.6031027
 117.5732208  23.0085230  10.6714153 118.1145235  23.1576133   9.8961765
 118.1260212  23.2779312  11.4049435 108.1875706  67.7894068  57.0810270
 107.5556278  67.9707766  56.3853359 108.9309978  68.3591890  56.8838120
  90.7104397  76.8594122  65.6984186  91.4559460  76.6727781  65.1277971
  90.1133060  77.3711157  65.1526785  29.4274473  47.0717525   6.0815942
  30.1627660  46.6071939   6.4812487  28.6514091  46.6099024   6.3989127
  86.2635708  53.4210205  40.8343410  85.4033566  53.0041647  40.8843040
  86.8597317  52.7889013  41.2358999  76.0845518  62.5819206  34.7611332
  76.3132524  63.1573200  35.4910922  75.4099989  63.0615473  34.2803335
  93.8924408  54.0900993  28.5199356  93.7739944  53.1405163  28.4977102
  93.0282307  54.4442320  28.3102560  91.1929607  45.8613873  23.5719657
  90.5619717  46.5293169  23.3037210  92.0442963  46.2926292  23.4978604
  90.1080036  87.5850964  49.1300869  90.7810688  86.9127655  49.2359209
  90.2329063  88.1689072  49.8782778  93.4201431  75.9169149  52.8068018
  92.6470375  76.3334942  52.4260139  93.1228447  75.0415039  53.0547857
  73.2635784 107.7837086  43.4110260  72.6606560 107.3434162  44.0100670
  73.7652159 108.3774757  43.9696217  80.0414181  93.1194782  20.3426576
  79.7592020  93.5117340  19.5163870  79.8131514  92.1937084  20.2586055
  76.3449860  70.7804155  37.4043679  76.6653776  71.5420771  36.9212008
  76.0061741  70.1932478  36.7285895  94.5085430  80.0629902  68.1744242
  94.0722942  79.9973679  69.0239000  94.6778870  80.9985638  68.0637741
  63.7485075  67.1757984  70.5043077  62.9092407  67.6319504  70.4427290
  63.9082479  66.8476486  69.6194172  90.9535599  93.7136364  26.1868238
  91.4593601  92.9156113  26.0333204  90.4230404  93.5161877  26.9587040
  73.2876062  86.2397766  22.3874831  73.3804941  87.1834183  22.2565007
  73.6498356  86.0821915  23.2593703  20.4066491  16.0882258  28.5536098
  19.9529982  16.3420153  27.7498531  21.0166192  15.4037845  28.2784581
  76.5596056  81.6424656  37.7147794  76.6539764  81.4959240  36.7735815
  76.1957932  80.8228111  38.0495000  73.3774185 106.8334198  63.9909410
  73.1022167 107.3623085  63.2420921  73.2949686 107.4207878  64.7422314
   8.9915919  61.5973616  10.4829288   9.8853528  61.9354105  10.4268384
   8.5946232  61.8294144   9.6434057  93.6827850  91.1275768  52.1834898
  93.9352322  91.8677044  52.7355003  93.0547810  91.4956284  51.5618944
 104.3699455  88.1995487  66.0575867 104.9448395  88.9243126  66.3034344
 104.7977161  87.8010082  65.2996826  99.7065830  75.6749010  59.0216637
  99.3418503  76.2749100  58.3711338 100.1705074  75.0154686  58.5057640
  99.7888565  83.2385254  67.5365448 100.6850243  83.5742092  67.5574684
  99.8600101  82.3447132  67.8716040 104.1327477  98.7159634  39.0500641
 103.3992100  98.4874249  38.4791684 103.9578152  98.2451344  39.8648953
  80.1409149  63.4846067  24.7867751  80.6091785  63.5203457  23.9526987
  79.2260075  63.6439133  24.5548272 115.4467010  46.4385605  28.2528520
 115.7343483  45.8257103  28.9295363 115.8590889  47.2689486  28.4908128
 107.3137188  61.2314463  18.5336316 107.8288746  61.5592480  17.7964842
 107.9421520  61.1601257  19.2521131  94.8488808  81.8110085  62.0769119
  95.7600307  81.7593288  61.7881680  94.7220707  82.7317047  62.3059559
  71.6864777  76.5886927  28.8562298  71.3596106  77.3881388  29.2688727
  72.6137590  76.7638302  28.6958694  69.9468708  77.8174353  16.5490615
  70.0965881  78.7291050  16.2987137  70.6984568  77.5932121  17.0977700
  95.1195812  56.7676878  18.4911954  94.4392109  56.1726856  18.1760907
  94.9259853  56.8816137  19.4216645 109.4641209  99.7863007   7.6567549
 109.5151520  99.0497875   7.0475131 109.8619366  99.4581032   8.4631407
  60.5245876  61.5039873  17.0488596  61.1283493  61.3183355  17.7680504
  60.6492281  62.4352217  16.8658376  17.8455710  25.3918028  81.1391640
  18.6053932  25.0155854  81.5834141  18.1642783  25.6109381  80.2635860
  20.4132724  85.5852413  44.6856594  20.0266528  85.4842281  43.8158607
  21.3218379  85.3038883  44.5780659 106.5963173  71.4388275  19.0091288
 106.9950867  70.6100225  19.2742550 106.9779873  72.0880699  19.5999229
  16.8761611  79.0876198  48.7881947  16.5471625  79.7935772  48.2317638
  16.1552989  78.4591961  48.8291407  48.3018351  72.2051430  15.1965523
  47.8569412  72.9257965  15.6425941  47.9646206  71.4161873  15.6209004
  80.4673195  91.0123348  28.7256193  80.8795547  91.5954494  29.3630147
  79.5640373  91.3233280  28.6656284 109.5941675  71.9020407   0.1897115
 109.9629915  72.6027053   0.7275552 110.2194727  71.7960017  -0.5272132
  97.3206806  84.0966511  14.8062718  96.7111683  83.5657310  14.2935789
  98.1205082  84.1176224  14.2808509  80.2058601  65.6135225  70.9519958
  80.6060982  65.0437355  70.2952003  80.9468651  66.0381079  71.3842726
  73.7305403  75.9555244  47.3935699  74.2215061  75.5421209  46.6834402
  74.2740345  76.6968250  47.6606178  98.3572006  95.6079292  52.0635366
  98.7554169  96.4654064  52.2131729  97.4465942  95.7155132  52.3382092
  77.6075506  70.1788044  31.4851236  78.4743500  69.9917078  31.1247277
  77.1243620  70.5688143  30.7566643 114.5755482  65.4650164   3.4914637
 113.9136028  66.0327053   3.0967543 115.4106045  65.8487368   3.2237574
 111.9449997  75.4475689  30.2072906 111.6796589  74.5941734  29.8644423
 111.2830257  76.0548306  29.8767447 103.7358093  43.3210707  77.1716070
 104.2895031  42.6630116  76.7513561 103.9515877  43.2568789  78.1019592
  74.5717907  66.6711140  50.7109308  73.9982891  66.6508245  49.9448252
  74.0177679  66.3741016  51.4327860  72.2173882  80.8072853  61.7958784
  71.8852568  80.9294891  60.9065008  72.6526356  79.9550438  61.7740154
  76.4345217  66.8540049  36.3192272  77.2865963  67.2754669  36.4313602
  76.4799070  66.4486837  35.4532671  61.9699621 101.7979431  45.4814577
  61.0607910 102.0549679  45.3278923  62.4817562 102.3819447  44.9217749
 117.9994716  80.9763336  69.7396231 118.0221519  80.8321381  70.6856298
 117.1693756  80.5914307  69.4585085  82.0172691  96.5451050  79.7309399
  82.4322128  97.3694992  79.4771051  82.3896885  96.3438988  80.5894566
  91.8321705  55.7974863  25.2084088  91.2844563  55.0149584  25.1460385
  92.0894146  55.9824038  24.3051577 105.4629707  45.1277256  53.9667797
 105.8365536  45.9554672  53.6642742 104.7278595  44.9663782  53.3753347
   0.4852543  68.5191011  10.2052438   0.5979683  68.6679649  11.1440551
   0.8551329  67.6492023  10.0545692  78.4077168  73.3047962  43.1374264
  78.5214901  73.6277866  44.0312767  78.6582136  74.0432072  42.5822353
  85.3016567  80.2554417  64.7782183  84.6853065  80.3294086  65.5068254
  85.7018661  79.3930912  64.8896551  88.3815384 102.7330399  23.3877850
  89.0505886 102.0941925  23.6337137  88.7550926 103.5786724  23.6359549
 102.5954342  75.7755804  44.0675020 102.9240799  75.4143858  44.8907661
 102.6270390  75.0413084  43.4542561  58.4429836   7.6848310  96.8806076
  58.7547874   8.1841058  96.1258030  58.2340431   6.8205082  96.5263176
  84.9517250  89.8248196  14.1632617  84.4848919  89.7384453  13.3320963
  85.8115482  89.4387531  13.9962840  70.9654045  44.9490356  79.8817921
  71.2899876  44.1458750  79.4745970  70.6100559  44.6640539  80.7236576
  96.8053913  84.3372631  64.9910212  96.8678188  84.6290684  65.9005165
  97.0831871  85.0952244  64.4766855  83.4567356  63.1679535  60.9014797
  82.9172134  63.6822605  61.5020037  83.3253956  63.5809517  60.0480080
  80.2332687 108.9393330  35.8864737  80.0882721 107.9971313  35.9728336
  81.1224461 109.0758038  36.2135291  29.2954564  18.1393433  15.2587211
  28.4325004  17.7865922  15.4757571  29.6731234  18.3849800  16.1032689
  95.5435181  48.5825300   9.1713482  95.9592915  48.1319046   8.4362984
  96.0628605  48.3269453   9.9337029  99.3596554  52.3003483  43.8174343
  98.5656929  51.9621086  44.2314959  99.2706680  53.2519293  43.8704443
  76.3113165  73.1843996  58.9042044  76.0883236  73.1720924  57.9734230
  76.1923361  74.0971088  59.1669559 103.4084511 103.0232525  25.2960181
 103.4747887 103.9265728  24.9864078 104.1576481 102.9152489  25.8819079
  84.4505215  92.5768280  38.5178471  84.3956280  93.4069824  38.0444908
  84.5356941  92.8303623  39.4369245 106.3567543  34.4319034  18.7691510
 105.7802486  34.0807724  18.0904937 106.1482334  33.9185739  19.5496929
  61.0164595  77.4906778  62.2157574  60.7970333  78.3128929  62.6539946
  60.1703644  77.1189117  61.9664717  41.9455719  51.5580416  34.0492225
  42.1722269  50.7783556  34.5561194  41.8030071  51.2327576  33.1603479
  87.9006958  64.2805862  25.6091952  87.1847153  63.7846613  25.2121305
  88.6879158  63.7824202  25.3892875  53.4257841  85.2022648   5.0029850
  52.9269600  85.6819057   4.3416554  54.2215538  84.9254990   4.5486915
  57.2903538  11.4257288  86.8625259  57.4026060  11.5673125  87.8025246
  56.3464737  11.3152349  86.7479897  63.8020325  95.1389790  46.5632963
  63.2179165  95.6850243  46.0371065  64.0141630  95.6794071  47.3243284
  75.6742620  76.1339712   5.5292159  75.2117014  75.4531527   5.0405926
  76.1095190  75.6643438   6.2407202  95.7438183  65.1232672  51.7900467
  95.2383995  64.3151903  51.7017889  95.7779217  65.4824829  50.9034634
 102.1536446  61.9361115  51.6946220 101.8208027  62.7958012  51.4369678
 102.9849339  62.1221161  52.1311808  46.4721823  60.0433159  34.6832490
  46.4670134  60.8702183  35.1653743  47.0435476  60.2070951  33.9329505
  79.3878078  61.5197372  14.7683859  78.5897493  61.7965174  15.2186406
  79.0765333  61.0039043  14.0245736  57.2149849   7.0862013  93.0766201
  58.0002499   7.4761444  92.6925182  56.7870426   6.6401541  92.3457718
  83.8043499  64.3387747  27.3042417  84.5719242  63.7754917  27.2054100
  84.1403008  65.2259588  27.1766615 101.6281223  92.2534847  29.8161077
 101.2526417  91.9287682  30.6345272 102.4513817  91.7740154  29.7234511
  62.3191214  88.8702869  38.7963271  61.4491987  88.4896183  38.6756492
  62.1621037  89.6745491  39.2910290 100.0847816  61.8961239  62.7433634
 100.8514786  61.8920660  63.3164263  99.7155952  61.0173464  62.8310013
  16.7837465   4.5549667  29.3897367  17.0742977   3.9491230  30.0714731
  17.4977469   5.1876593  29.3114066  65.0999022  68.8479900  14.9421287
  64.8860264  67.9964018  14.5609641  65.5648232  69.3120623  14.2459130
 114.6604633  61.1818647  54.2086935 114.8345566  61.5077496  53.3256721
 113.7780380  61.4937210  54.4094419  73.9470100  96.8599796  32.2111201
  74.0928364  96.5625954  31.3130498  73.4045172  96.1765480  32.6046252
 103.1429386  57.6224136  26.3132358 102.2385216  57.9170752  26.4202237
 103.1961823  57.3392200  25.4004383  53.4650993  77.9580736  16.1220253
  52.6709032  77.5543404  15.7720482  53.2559967  78.8906050  16.1758471
 102.6772976  81.0188675  76.1057091 103.3428001  81.5642929  76.5250492
 103.1734371  80.4316711  75.5353689   8.9713001  47.1398449   9.6374017
   8.3887744  47.8111935   9.2821783   9.8356789  47.3670149   9.2946547
  94.0397263  55.7764101  34.5319343  93.6744308  55.8371210  33.6492634
  94.9031448  55.3824568  34.4072485  96.0706234  89.3482018  20.9265780
  95.3702259  89.6920776  21.4810300  96.5567875  88.7525082  21.4966846
  96.7076683  44.0169859  30.4864264  96.7515469  44.9207401  30.1741147
  95.7709599  43.8279867  30.5419683  70.8731985  61.6184998  30.7933903
  71.6642809  61.0849762  30.7174158  71.1640692  62.5080776  30.5926895
  83.6373234  82.3622322  54.6115828  84.4103241  82.0958424  55.1093102
  82.9708767  81.7138767  54.8389959  37.4616313  91.6229343  36.2309909
  38.3100271  91.3881969  36.6069579  37.6429534  91.7675209  35.3023076
  85.5572224  50.9801245  72.1961784  86.0423946  51.2994528  71.4353371
  85.0279617  50.2582550  71.8570375  62.1274281  55.3124762   7.0810002
  62.7073526  56.0739422   7.0905733  61.2461948  55.6831360   7.0332593
 100.5211639  57.4452496  32.5583673 100.4160786  57.0098209  31.7124391
 101.3841629  57.8565550  32.5104690  78.0407763  68.5258961  16.4932287
  78.3666182  68.9268637  17.2990108  78.8087082  68.1035709  16.1083269
  89.7553730  65.9248924  33.1545615  90.6944847  66.0811949  33.0551910
  89.5000935  65.4786110  32.3471594 109.5624352  56.9017267  24.4303179
 109.5414543  57.1840239  23.5159326 110.0268841  57.6031590  24.8869419
  72.2134209  75.6717825  49.5123196  72.6769066  75.9032917  48.7074518
  72.6723528  76.1539888  50.2001381  86.4377022  82.7183819  42.7773905
  87.3695850  82.6801205  42.5620556  86.4139366  82.7487564  43.7338161
  91.0676765  42.8724384  23.9041138  90.1889610  42.6940298  23.5690689
  91.0528755  43.8019323  24.1322660  21.4805150  71.4433193  13.4003675
  20.8629370  71.0580635  12.7787507  22.2247314  71.7134333  12.8623950
  86.1542606  56.4891815  23.5088634  85.9541607  56.0161066  24.3165731
  85.8815384  55.8951902  22.8095579 104.3666840  54.7537422  58.0452108
 105.1980877  54.4020081  57.7269697 104.6112823  55.3248930  58.7733555
  62.5202084  68.7437868  24.7717619  61.9697094  68.7946606  23.9903569
  63.4112215  68.6606741  24.4320273  86.7468166  57.8070688  60.7250595
  86.0868168  58.4619188  60.4974699  87.1823311  57.6078701  59.8962736
 101.6553879  40.0993824  21.4691329 102.4951553  40.5187607  21.2816787
 101.6266537  40.0369883  22.4238658  54.4225216  49.7150135   4.0937135
  54.2435408  49.8895168   5.0176978  55.3645134  49.5485353   4.0595001
 116.2405396  69.2377138  22.0128775 116.3513947  69.9082565  22.6869082
 115.7318592  68.5492802  22.4412751  72.5440502 104.5236588  14.1141522
  72.6994848 104.4414711  13.1732392  72.5043392 103.6209774  14.4301021
  85.6702518  61.8485308  43.0597496  85.4106808  61.0089016  43.4390688
  85.7655907  62.4321461  43.8124323 108.1634521  66.2160397  75.2593660
 108.9639568  66.7197180  75.1119328 108.4589005  65.4213858  75.7037497
 110.1142883  84.8407173  18.6009729 109.5341969  85.5901241  18.4664071
 109.9277496  84.5507431  19.4939196  92.4334335  14.2761540  47.6239920
  91.6514778  14.2506123  47.0725107  93.1579685  14.1138661  47.0198870
  82.2687054  94.8081303  77.6472616  82.1735954  95.3098297  78.4568787
  82.8170300  95.3580856  77.0876980  87.4808502  50.6228161  11.1713469
  87.8532982  51.0307217  11.9530916  86.5343571  50.6617641  11.3087010
  94.2478943  51.4303732  29.6888351  93.4671021  50.9647512  29.3891692
  94.7933865  51.5115213  28.9064837  39.5786881  82.5930595  62.4300480
  40.0816393  82.8784752  61.6672850  39.4695115  83.3858109  62.9552650
  80.5574989  54.6005630  49.8122931  80.7905006  53.6721992  49.8212385
  79.6094084  54.6108246  49.9436522 107.3091888  76.8281555  22.1498823
 106.8787575  77.6041889  22.5086856 107.2854233  76.1899042  22.8628349
  64.8348618 102.6762772  48.9536524  63.8904095 102.8263950  48.9123583
  65.2105618 103.3602333  48.3993244  57.9735851  60.9957457  30.9212279
  57.1468353  60.8994198  30.4485345  58.4858036  61.6025066  30.3867126
  66.6145039  97.2141552  26.8848825  66.7027235  97.9597473  26.2911296
  67.2680473  97.3719215  27.5662208 109.0933990  66.0451841  52.3011255
 108.6528587  65.9833765  53.1486750 109.4039631  65.1566172  52.1272516
  98.0240154  90.9210014  63.4453487  97.9191113  89.9772263  63.3248281
  98.9708614  91.0523224  63.4951305  80.1316643  86.9229794  41.0607719
  79.6831274  86.3141823  41.6476393  80.5050373  86.3660049  40.3776932
  97.9125595  82.7510166  79.9792671  98.4604073  83.5285282  79.8717022
  97.5666046  82.5787640  79.1035509 100.0429249  92.9948902   3.5284409
  99.3648434  93.5517979   3.9109027  99.5640659  92.2506332   3.1637293
  89.1539192  76.5538406  43.9887094  89.6293736  76.7083597  44.8049831
  88.2428646  76.7577839  44.1999054 103.1348801 109.5538425  16.5113771
 103.8468456 110.1458836  16.7539132 103.5485172 108.9001369  15.9476304
  87.3344517  74.0577793  14.6559465  86.8279171  73.3032560  14.3553638
  87.4048615  74.6213150  13.8854253 108.3160973  75.6830215  62.9872179
 107.6993847  75.3555202  63.6419201 108.8157558  74.9110222  62.7215290
  92.9744244  59.2323923  39.1142416  92.8730869  59.0891600  38.1732607
  93.3496475  58.4150267  39.4418859 103.5263634  69.4242764  60.2635479
 103.7541199  69.5983219  61.1768198 102.5695705  69.3972397  60.2562761
  77.7082348  66.2265873  48.8833857  78.1755733  66.4384651  48.0753422
  76.7828274  66.3134336  48.6546612  82.1557808  66.9300222   1.2901887
  82.7743816  66.5031004   0.6974921  81.7872715  67.6478815   0.7752994
  89.7724247  76.3365936  12.2368789  89.8570442  75.9560204  11.3626742
  89.6626472  77.2744799  12.0802045  77.3460102  82.2940350  27.7129173
  77.2391701  81.8262672  28.5411763  76.4540434  82.5182724  27.4476981
  97.3178005  64.4235897  69.8652458  98.1729317  64.1268158  70.1765347
  96.8846989  63.6268330  69.5589209 110.9702301  82.0165825   4.5058826
 111.2445641  81.9684601   3.5901022 111.5873051  81.4515114   4.9707824
 112.4013519  76.6346741  20.5322385 111.4699364  76.8426561  20.6060624
 112.8403568  77.3191690  21.0371804 107.9390621  69.4124746  40.6700420
 108.6456108  69.9880600  40.9628105 107.8753757  68.7449169  41.3530827
  78.6283493  57.1650076  62.8502655  78.6940289  56.3697243  62.3216391
  77.9794359  56.9535780  63.5214138  74.3596601  15.3059459  35.2733016
  75.1783800  15.5930543  35.6776476  74.5813704  14.4795525  34.8441744
  51.1117411  68.7052727  40.7198095  51.5216637  68.3551693  41.5107727
  51.7742634  68.5950184  40.0377989  94.6705151  62.8337336  42.3229647
  94.8595047  62.1436882  41.6870785  94.7011471  62.3922300  43.1717110
  59.8249674  66.8261433  42.7258778  59.0639210  66.9430017  43.2945490
  59.8652172  65.8824968  42.5705099 106.4197826  47.4983025  32.5380754
 107.1808910  48.0084753  32.8149867 106.4208031  47.5656652  31.5832496
  53.7973166  68.2354403  38.7178493  54.0291977  67.9741478  39.6090221
  53.4802389  67.4310207  38.3072376  52.1111917  67.3093939  32.8143930
  51.8164444  67.3052645  33.7250733  52.9385185  67.7904701  32.8325963
  86.8526363  75.7061243  16.6763711  86.8636894  74.9259567  16.1218905
  86.4199352  76.3728905  16.1430550  89.6194744  56.8396997  17.4899840
  89.2433739  57.6907158  17.2651529  89.1536713  56.5739012  18.2828319
 101.5677929  79.6318245  25.0638151 100.6650829  79.9453211  25.0084138
 101.7212486  79.5079184  26.0004759  86.0849571  57.0877171  13.4424436
  85.4683399  57.3015499  12.7422369  86.5534973  56.3170338  13.1218970
  81.8530941  85.1455307  39.1243982  82.3146343  84.8041248  39.8903298
  82.4829102  85.0622177  38.4084201  80.8937073  76.0685539  44.4327688
  81.6082096  76.5236712  44.8783970  81.1951447  75.1629877  44.3598318
  38.1178665  71.1276388  14.4012070  38.4962654  70.3927279  13.9185596
  37.7013016  70.7247734  15.1630509  80.5760670  76.8650246  50.4690647
  80.4310703  77.8003025  50.3260231  80.1982307  76.4432907  49.6973038
  87.0410728  83.2215309  28.4928012  86.2448311  83.0658340  27.9848766
  87.7524281  83.1181049  27.8607297  12.4009788  63.5662127  19.8158085
  11.7627525  63.8928890  20.4499888  12.7512228  62.7706385  20.2165914
  87.5267887  61.8921804  22.5145674  87.0767784  62.7025604  22.7533412
  87.8827190  61.5636683  23.3401704   3.9451891   0.9035084  90.5305958
   4.4614953   0.2215641  90.1009369   4.3777490   1.7215127  90.2856636
  98.2613087  56.7345905   6.6091907  99.0782833  56.7423296   6.1104709
  98.4998131  57.0905733   7.4651247 100.9849739  62.7791071  40.5117893
 100.2000046  62.4502611  40.9498692 101.2954521  62.0394421  39.9895477
  63.3799791  63.3803940   5.0410271  63.6661482  63.7615442   4.2109275
  63.2729387  64.1311932   5.6250453  71.1941957  73.1452227  22.4587798
  71.8636179  73.3563519  21.8079853  71.3792610  72.2396564  22.7076411
  98.4972668  64.2058468  16.5220213  98.5156727  65.0134134  16.0084796
  98.1405258  63.5495043  15.9235346  99.4413376  33.0340290  53.6684704
  99.6322632  33.9603853  53.5213566 100.0967979  32.5688934  53.1486177
   1.6369330  80.1913071  47.5551748   1.7184817  80.2035904  46.6015339
   2.3095595  80.7998466  47.8609324  97.6788235  76.4114523  20.1564288
  97.5055599  77.3528051  20.1644540  97.3816299  76.1205578  19.2942882
  15.9026945  70.3627396   1.1227188  16.1540055  69.9271488   0.3082636
  16.0991061  69.7229004   1.8070139  82.0537186  71.7696142  30.4663396
  82.8901863  71.3042641  30.4679728  82.2895432  72.6866579  30.6065035
  73.4192705  84.8938847  19.9197459  72.4625587  84.8741913  19.9429929
  73.6709690  85.2916908  20.7531905  94.2438507  60.5606699  27.0485401
  94.9073982  60.4071903  26.3759398  94.6816444  61.1145449  27.6949048
  64.8992014  67.3809624  31.2626648  65.6369019  67.1275282  31.8174624
  64.4239378  68.0320787  31.7788076 107.0628834  99.3956757  31.0135555
 106.9994068  98.5100460  30.6559587 108.0034161  99.5642662  31.0701776
  94.4404984  81.1736107  47.1422005  95.3497410  80.9447575  46.9494820
  94.4974518  81.7794991  47.8810406  20.4466820   5.1264209  44.4243717
  21.3529348   4.9977070  44.1444206  20.1220870   4.2429766  44.5987177
  61.3967276  62.4610186  28.9603758  61.5062141  63.3794165  28.7138271
  61.8152285  61.9714117  28.2523012  66.1607599  78.1469536  28.2436776
  66.6027164  78.9317322  28.5677624  66.8153954  77.7116776  27.6975799
  96.2853718 100.2414227  22.4749446  95.9526253  99.3471432  22.3988390
  96.6593742 100.4318428  21.6146588  73.6610508  99.6472931  24.8817325
  74.5168924 100.0156879  24.6625137  73.1858158  99.6346378  24.0509343
  66.5211439  75.3739595  74.6403646  65.6351805  75.0273228  74.5347929
  66.4043140  76.1815643  75.1407242  18.0478430  78.0802917  35.1068735
  17.9492331  78.6678743  34.3577003  18.9788520  78.1242943  35.3248572
  56.3824177  17.3443317  84.9295139  55.6599903  17.9720032  84.9483299
  56.7038059  17.3759913  84.0284348  18.0189312  63.2402229  16.0353541
  17.1241748  63.5779333  16.0752678  18.3374417  63.2987833  16.9361055
 109.8575401  58.4646797   2.2670631 109.9844170  59.3585396   2.5851041
 110.6399059  57.9945612   2.5553757  83.4134674  11.3606632  89.6105289
  83.9492416  11.9804156  89.1154671  82.7911091  11.0168457  88.9696789
  94.1035557  95.3625107  78.8923216  94.1655350  96.2623501  79.2127705
  94.6339798  95.3549385  78.0955601 108.5924530 102.1910572   6.8275410
 107.6524734 102.0433426   6.7233521 108.9417076 101.3381958   7.0861489
  90.8537197  98.2592678  24.0435100  89.9986744  97.8348160  24.1139841
  90.6581020  99.1961288  24.0594435  80.3803062  77.3267841   6.9023138
  79.9320078  76.4915419   6.7695296  79.7445297  77.8681087   7.3702830
 113.3808994  64.4592094  17.2591567 112.8366375  64.6975946  18.0096114
 114.2698956  64.6964693  17.5230300  85.9396648  91.9507694  15.6589222
  85.2422237  92.5175667  15.3294361  85.8162403  91.1236668  15.1931930
 112.4021149  87.3635387   6.7866629 112.2459316  86.4347649   6.6157496
 111.5424061  87.7113438   7.0236558  66.3427794   9.5220418  96.0621650
  66.0601008   8.6121888  95.9699958  65.5764353  10.0375743  95.8108289
  74.6367788  81.0210609   4.6784240  74.1441011  81.5143204   5.3343195
  74.4776773  80.1034260   4.8994669 102.6132870  87.7158642  35.6099105
 102.1347809  86.9331169  35.3368330 101.9353008  88.3802128  35.7332087
  22.8806806   1.9147828  23.6593843  22.1981645   2.1395347  23.0270171
  23.4382772   2.6919281  23.6963201 101.0281086  56.3641548  36.4422488
 101.5555382  56.6886330  35.7123399 101.6688633  56.0413218  37.0758390
   7.2560161  85.4790211   2.6016819   7.6097387  85.3915405   3.4868139
   7.6222783  86.3018703   2.2776289  60.2678347  91.6214657  41.4527607
  59.7659445  90.8089352  41.3884401  59.6190023  92.2860909  41.6841078
 101.8971729 100.6552315  23.2443285 102.8498554 100.7449245  23.2683969
 101.5751171 101.5497303  23.1330991 108.9164925 101.5307426  24.7766042
 108.2937050 101.3487911  25.4803538 109.7436237 101.1629009  25.0876951
  96.0207558  82.3624229  25.5100870  96.0393047  81.4177799  25.3566337
  96.7683029  82.6999569  25.0166512  92.7401352 102.4658012  54.9771404
  92.6873970 101.5246487  55.1434994  93.0007172 102.8433037  55.8172750
   4.6570492  74.2831230  16.6682136   3.8563845  74.5970535  16.2479568
   4.4271663  74.2061424  17.5942051 100.5672550  73.4872246  57.3845720
 100.7011032  72.8249407  58.0625820 100.4111767  72.9838371  56.5855312
 115.2400780  69.4714403  35.4206800 114.6087551  69.3972540  34.7050238
 115.8115864  68.7107897  35.3157234  78.8337278  90.8612251  47.2648001
  77.9762077  90.5271339  47.5279951  78.7765312  90.9443951  46.3129377
   3.0836970  97.9418278  66.7086649   2.7999622  98.7131691  66.2179995
   3.2649270  98.2712173  67.5889397 102.7374554  93.5102272  37.4896502
 101.7910385  93.5466194  37.3510623 103.0237198  94.4215584  37.4282718
 107.0368099  84.0415001  45.0619793 107.7605915  83.8559532  45.6602716
 106.3030910  83.5341167  45.4090500 107.6894569  77.0761681  13.3423591
 108.5226917  76.7916012  13.7178171 107.8314590  77.0491600  12.3961365
 100.0027466  77.0472383  61.4791393 100.9310722  77.0284033  61.2465811
  99.6015263  76.3844156  60.9170723  87.3816204  91.1245632   2.7206159
  87.3795128  92.0816803   2.7332124  88.0055714  90.8774185   3.4031421
  12.8137422  13.8939929  49.6564484  12.0190334  14.3973553  49.4795418
  13.5269070  14.4620609  49.3650246 107.7370548  72.6192045  21.3826990
 106.8886185  72.8839397  21.7380762 107.8131580  71.6924191  21.6096663
 109.5196819  79.6283436  23.6048985 110.0267124  79.8593378  22.8265715
 108.9207554  80.3648186  23.7278605  89.9561405  83.4057045  29.3375945
  90.2935505  84.3010330  29.3099451  89.0349960  83.4891605  29.0911055
  62.4085283  76.6777563  30.8135462  62.5755739  75.7401180  30.9092426
  62.9914570  76.9539356  30.1063323   8.2629424  16.8947601  35.0670934
   7.4096602  16.5026879  34.8815608   8.1028950  17.4759912  35.8105898
  49.5772982  13.4835148  95.1358700  49.3364239  12.7501297  94.5698643
  50.3313351  13.8830924  94.7022724 115.2932644  49.6546173  26.5591311
 116.0865402  49.2001772  26.8427181 115.6080246  50.3427124  25.9728837
  74.1878986  67.5840712  24.6811700  74.6844816  66.7876720  24.4930625
  74.5585394  67.9092741  25.5015969   6.2344724 105.8944607  59.6065569
   6.9687837 106.2596035  59.1129065   6.5295297 105.0209522  59.8637581
  92.6360416  59.5471716  33.8056207  92.6886463  60.5025434  33.8325953
  92.1266651  59.3575001  33.0177140  64.5024681  92.3454285  29.0627050
  64.9299908  92.1423721  28.2307053  65.2225971  92.4305344  29.6875262
 112.4719429  91.1154461  55.2567148 112.8359222  91.4968777  54.4578028
 113.0796528  90.4119205  55.4846621  88.8279724  68.8979292   3.5621020
  88.1735134  69.4987869   3.9183155  88.3321095  68.1116915   3.3336723
  59.5940924  90.1452255  32.8594160  58.8917637  89.5519066  33.1257439
  60.3877926  89.7577095  33.2283354 113.0894566  69.8375320  43.3262205
 113.1054401  70.5480766  43.9673901 113.1271172  70.2794504  42.4779797
 110.1807690  68.3782148  12.0525813 109.3707848  68.1629086  12.5149655
 110.1489258  69.3286467  11.9435263  92.7106762  49.2842627  23.1380033
  93.5658932  49.1618967  23.5501647  92.0818901  49.1546583  23.8479757
   2.6235515 106.7444801  42.1415997   2.6077843 106.3905621  41.2523746
   3.3459705 106.2848949  42.5695324  52.4571323  22.4620557  25.2236176
  52.1888399  21.6443467  25.6426668  52.3176336  23.1314611  25.8934450
  79.7780418 108.5451603  20.7000709  79.7887707 109.1350365  21.4538360
  80.6165504 108.6979389  20.2644205  88.3643723 102.3497868  33.7613630
  88.7019253 102.8202724  34.5235515  87.7310562 102.9512691  33.3697581
  86.6851044  47.9895687  92.6119709  86.6804314  47.2365236  93.2028389
  86.4951801  48.7385225  93.1769753 108.5834885  80.3265476   5.0022066
 108.9538193  81.0896969   4.5587039 107.8293514  80.6703758   5.4810429
  63.2150984  80.5842113  28.2615948  64.0392637  81.0395336  28.4338117
  63.3705568  80.1077557  27.4460840  95.3692722  74.4453192  38.7998700
  94.5367336  74.8524666  38.5604048  95.1687813  73.5117626  38.8670158
  92.7358627  92.8245449  42.4057388  93.1029510  93.3401489  43.1238174
  91.8116760  93.0725002  42.3808813   1.5529180   2.6394358  50.1275158
   1.1239946   2.9347119  50.9306812   0.8370665   2.5215983  49.5030975
 110.5859852  93.9370155  14.2783737 110.9127617  93.0969048  13.9564073
 110.8312416  94.5655346  13.5993707  76.4052629  88.8021660  19.2699361
  75.8862066  88.0379200  19.0194535  76.5061378  89.2996216  18.4583986
  22.3336411  40.1578331  87.9156399  21.7660713  39.7837663  88.5895634
  22.6266241  40.9910250  88.2846737  78.5643148  86.1451912  17.6779938
  79.2988396  86.1840343  17.0654607  77.9471684  85.5354404  17.2735643
  88.8310623  92.6032066  21.9223118  88.1276226  92.5378036  21.2764525
  88.4442711  92.2705555  22.7322316 116.7586136  83.4753227  37.4688148
 116.8542957  84.4143200  37.3095584 116.8712521  83.0735779  36.6073346
  63.5256767  78.2300854  50.0740814  64.4203138  77.9217339  49.9299526
  63.6206245  78.9670134  50.6775331   6.1777198  71.1233234  27.5662994
   6.5774268  71.7568636  28.1621981   5.2356851  71.2544298  27.6740623
  91.7520523 100.7344818   2.5464040  91.8862534 101.3860416   3.2346559
  91.8267727 101.2292099   1.7303789   3.5997817  83.8504410  31.5294552
   3.6851126  84.6888065  31.9834423   3.1865996  84.0710735  30.6946898
 117.3910427  78.5844183  20.3425884 117.2027190  77.6884985  20.0631404
 117.3045743  78.5612345  21.2955928  47.8169298  21.7092466  92.3351574
  48.2571936  21.4525056  91.5249157  46.9942760  22.1040440  92.0459938
  70.2406931  89.1203690  54.3673229  70.5267382  90.0329876  54.3281364
  69.4795990  89.0828323  53.7880468  75.2275133  28.5773611  74.7259808
  75.8094549  29.2419791  75.0945759  74.5429420  29.0779662  74.2821503
  99.0652752  64.6572590  23.5772920  98.8491058  65.5219030  23.2281661
  98.4372997  64.0669537  23.1608582   0.7899261  56.6735840  14.4591773
   0.2656185  57.0534515  15.1641846   1.6067711  57.1723986  14.4727027
  15.2773607  33.5918617   7.3419899  15.1176786  33.1212521   6.5239066
  14.5027602  34.1423678   7.4567431  14.3231750  24.3281841  10.4928291
  13.6453676  24.9799824  10.6716263  14.6156073  24.0430784  11.3585258
  96.2914848  71.5628433  44.6713305  95.9075642  70.9471750  45.2956629
  96.6480350  72.2648573  45.2156448  61.8780708 101.5776920  26.5056062
  62.5208330 101.6644764  27.2095633  62.2232866 102.1216297  25.7976627
  74.4898176  88.9046574  58.7914705  73.9806890  89.6417904  58.4543467
  75.3551722  89.2728901  58.9697981 108.0765343 105.2349186  43.2603741
 108.5528183 105.8620358  42.7162075 107.4765110 105.7730675  43.7766981
  78.7658882  92.6614571  49.2502594  78.9474201  92.1826363  50.0589752
  78.8607788  92.0071507  48.5580778  48.8230801  47.3644018  96.1685181
  49.2061329  47.4693394  97.0394325  48.4704828  48.2285976  95.9562397
  91.5287113  97.3262882  16.1188853  91.3423824  96.3874054  16.1158335
  91.3672733  97.5995731  17.0219254 111.7971897  67.0374393  26.5550423
 112.1167088  67.8537083  26.1705351 112.5818539  66.6127062  26.9016480
  63.9377737  45.3881645  93.5277462  64.0098858  44.4465590  93.3714867
  63.0362034  45.5134487  93.8239002 106.7346954  93.9164352  26.2905574
 106.0953522  93.2040882  26.2954473 107.4066162  93.6309719  25.6714725
  10.1256728  64.0132570  54.6150875  11.0072482  64.2142773  54.3010044
   9.5982897  63.9424372  53.8194227  95.2067661  96.3743782  10.6769443
  95.1436424  96.9917870   9.9482125  94.9240589  96.8763638  11.4413452
  45.8423090   7.1665686  87.7952003  45.8369398   7.3081118  88.7418556
  46.3441086   7.9029953  87.4457550 117.5032997  27.5685334  43.8858557
 117.6107597  26.6230726  43.9897060 117.0917511  27.6699734  43.0276155
  15.5614352  12.2391343  35.5235362  15.8889639  13.1277633  35.6624436
  15.9366274  11.7304862  36.2423825  73.6792803  87.0515728  32.1149349
  73.4627485  86.1696053  31.8124914  74.6025085  87.0000076  32.3623729
 115.7264042  74.4895697  59.7646713 116.3295364  73.8007069  60.0438452
 115.2382660  74.1008282  59.0388393  81.0470772  92.8292847  30.8198714
  80.7968807  93.7187576  30.5699444  81.9949722  92.8734398  30.9454465
 111.6836262  66.5056276  30.1233411 112.0625973  65.8959913  30.7565522
 111.8364620  66.0935020  29.2730308 103.5879517  66.7635202  54.2004299
 104.1746330  66.3899994  53.5427666 102.8496742  67.1054792  53.6962128
 118.1312170  20.7793951  35.6697035 117.5893890  20.1116943  36.0902190
 118.7565180  20.2828598  35.1417994 116.0823345 106.6003323  39.3102860
 116.4654732 105.7345676  39.4513178 115.1425362 106.4364624  39.2318058
  85.6002462  85.6297140   0.8869523  85.7217968  86.4585619   1.3500566
  85.1243866  85.0766855   1.5065927 113.8311958  46.0455561  57.5244617
 114.4651222  45.4506683  57.1238565 113.7004566  46.7320824  56.8703842
  81.8922424  86.4437962  61.2885904  81.6037846  86.8142319  62.1227312
  81.2886620  85.7186508  61.1270523  89.9769306  67.7236986  30.1573753
  89.1967201  67.3945951  29.7110677  89.6366215  68.2003975  30.9144616
  99.3828106  93.3429432  14.8431623  99.2128086  92.5859261  15.4037476
 100.3360367  93.4300804  14.8409355  32.6888561   0.4609735   8.5236645
  32.1766973   0.2322694   7.7480233  32.2967649  -0.0529008   9.2296600
  10.7528245  11.3393486  54.8964834   9.8903102  11.2653959  54.4880342
  11.3358319  10.8512437  54.3150282  99.9868584  98.6187935  23.7678933
  99.6082115  99.2546558  24.3749714 100.4721546  99.1499710  23.1365728
  13.8303804   3.3211860  14.2575526  14.2360055   2.4710050  14.0875745
  14.1611934   3.5765037  15.1187193  94.0677452  71.4918613  24.6024156
  93.2451630  71.9638395  24.4726777  94.4151688  71.8376255  25.4245925
  91.9401169  54.5162821  57.9547739  91.2122917  53.9383984  57.7255154
  92.5475025  54.4399595  57.2189188  20.5783104   0.2043007  42.1347332
  20.9959530  -0.0194122  41.3030148  19.9431729   0.8838127  41.9086790
 112.8904057  94.8639965  48.0116367 113.4475040  94.2862415  48.5332394
 112.8695297  94.4582367  47.1449471  72.7611208  76.0620356  39.0608716
  73.2659817  75.4746723  38.4984207  72.1492958  76.4959240  38.4661937
  33.2358289  28.6941099  87.8281307  33.7167525  29.4624376  88.1357288
  33.8728237  27.9807878  87.8686237  69.1550016  75.9549189  67.5322533
  69.3551588  75.0194931  67.5661802  68.5455418  76.0430241  66.7994308
  13.5367632   4.5325825  17.7410352  13.0375910   4.6798146  18.5443926
  13.2688153   5.2435750  17.1588624  76.9087315 102.2808647  37.3558211
  76.4872694 102.7062416  36.6090584  76.5317011 102.7133751  38.1219912
  76.7956352 105.8804893  26.5464973  76.1745596 106.6022205  26.4485002
  77.5459719 106.2695312  26.9957924  99.7591782  79.3860960  21.4135718
  99.4535828  78.8149405  22.1182895  99.0107346  79.4568920  20.8210731
  20.8132815  47.5916719  90.2656651  21.2721205  48.1599760  89.6470165
  20.2425766  47.0527267  89.7178841   8.0312473  65.8368969  35.7595658
   8.9085066  66.2105846  35.8432579   8.1821620  64.9240303  35.5143404
  68.6596930 110.6007010  84.8831463  68.4738981 110.6427594  83.9451027
  69.3501341 111.2494152  85.0198841 100.2554226  78.1462526  11.5999281
 100.4456615  78.9140129  11.0608709  99.5814323  78.4437370  12.2110581
  58.9473820 102.4935818  23.8874173  59.2840910 101.7436886  23.3969927
  58.9788532 102.2149086  24.8026109  90.9243107  94.4922447  21.7968273
  90.4128075  93.7372971  22.0877862  90.2728462  95.1078224  21.4608479
  22.1571255   4.2098522  64.3225908  23.0054617   4.1561690  63.8825083
  22.2360897   3.6149749  65.0683260  97.1766949  72.5545406  28.4025812
  97.4532223  72.0329475  29.1560411  97.9861069  72.9420042  28.0694699
   1.8708830 108.9940262  29.6381688   2.8063488 109.0005970  29.4354558
   1.4734726 109.5309448  28.9525938  53.5883331  84.1727734   7.4921340
  53.5311079  83.2500458   7.2440779  53.5420799  84.6472359   6.6620898
  77.9747534  86.2005520   8.1514710  77.5435019  86.3073349   7.3036206
  78.7834549  85.7292652   7.9511768  88.2076359  60.8690548  25.2599359
  88.3191204  59.9273634  25.1294732  87.6994801  60.9404039  26.0679722
  24.9608231 106.8883228  93.7563229  25.5444622 107.5903511  93.4686565
  25.5401039 106.2518692  94.1753674 107.0198250  88.0411530  34.9159718
 107.4580193  87.3147583  34.4726276 107.5003242  88.8192177  34.6331930
   6.5708739  94.4553471  26.7047596   5.6903350  94.1695786  26.9481134
   7.1418071  94.0587139  27.3627520  90.2156162  72.1444082  54.9970341
  89.6558857  72.1365738  54.2205906  90.1247406  71.2661505  55.3666782
  17.7985048  10.9842360  32.6303577  17.3887408  10.1288700  32.5012302
  18.7085986  10.7833445  32.8485394  77.9509783  90.6557178  64.7279596
  77.3883104  91.4037514  64.9281836  78.4880829  90.9501362  63.9923811
   8.0624187  54.1734314  14.5003843   8.0700302  53.5968447  15.2644014
   8.4659576  53.6544657  13.8046384  98.5784245   1.1467753  26.1581469
  98.3278465   1.7168185  26.8851233  98.2147884   0.2916786  26.3879514
  83.3015347  98.3864975  35.1858616  82.7741051  98.0506992  34.4610882
  84.1118050  97.8783035  35.1479840  63.5048103  74.7205734  15.7832932
  63.0226326  74.4906473  14.9890196  64.3927002  74.9079227  15.4786932
  73.4370089  80.8120918  33.5624981  73.8397074  81.6169548  33.8884830
  73.4189701  80.9213543  32.6117253  18.0204201  98.9625072  22.3211432
  18.6045623  99.1931057  23.0435228  17.9658318  99.7593212  21.7935586
  75.6016064  86.3327789  34.1697574  75.5617619  86.0708332  35.0895572
  75.4410028  87.2763252  34.1822553 100.3615570  73.3862734   6.7066294
 100.3077412  72.5749254   7.2116530 100.7340622  73.1207657   5.8658087
  65.8389091  80.2202225  32.8535461  65.6494761  79.5451260  32.2019386
  65.2247286  80.0442028  33.5663056  68.8786602  68.0660295  42.1436310
  69.1402674  67.1475220  42.0793295  68.6838341  68.1951571  43.0718565
  91.3704491  73.3909893  61.8386841  92.1990967  72.9439211  61.6663599
  91.5645409  74.3177128  61.6981649  91.5265465  61.5664339  28.2135463
  92.3462296  61.2962294  27.7996159  90.9428501  60.8161449  28.1013227
  15.4126477   0.4012066  84.2455006  16.1887681   0.9358576  84.0781116
  14.7769511   1.0119672  84.6184540   8.6227775  73.0020809  19.1829121
   7.7665079  72.5807190  19.2569864   9.0036464  72.6321840  18.3864558
  40.5698633   7.0878816  30.9901261  41.4320898   7.1363646  31.4029717
  40.1323891   7.8975368  31.2533903  99.6868610  79.5828056   7.6825893
  99.9972248  79.5709705   6.7771792 100.4703999  79.7630358   8.2020313
 102.8634167 108.0831528  52.8123283 102.5048542 108.3718204  53.6515713
 103.1045628 107.1681690  52.9569006 112.7740860  60.1333618   3.1876624
 113.5479546  60.6830359   3.3110398 113.0764771  59.2465734   3.3836335
  67.0094252  49.0316486  85.1443195  67.2759390  48.1148243  85.2123737
  66.1391401  49.0582371  85.5419827  79.7963715  83.0139256  50.2446508
  79.4602537  82.3255634  50.8186007  79.0573835  83.6111641  50.1287270
 102.3578453  69.3760586  23.6266708 101.4976311  69.6179819  23.2835436
 102.9182339  70.1231098  23.4166503 107.3487377 106.4770603  56.9562387
 107.6599216 107.3565483  56.7420006 108.1119251 106.0377598  57.3314667
 118.6144636  65.6145668   5.0637227 118.0417715  64.8570728   5.1839811
 118.0643819  66.2634277   4.6248406 107.6727486  99.6433353  21.2442255
 106.8371487  99.9499702  20.8921003 108.0705738  99.1533661  20.5245781
  91.8890095  97.7716923   6.4533055  91.8270302  98.7250900   6.5116978
  91.2524128  97.5310707   5.7801950  88.1313324  88.5889626  64.2052412
  89.0274620  88.9097118  64.1037512  87.7904701  88.5438442  63.3119297
  47.8675699  56.4522982  20.3134203  48.6714125  56.5342999  20.8265948
  47.2359705  57.0106602  20.7667899  88.6854076  69.1720104  38.1620264
  88.3485985  70.0306702  37.9061151  88.9146900  68.7484169  37.3348427
   4.8842058   9.4214505   8.8701874   5.2831942   9.4737947   8.0016828
   4.1294691   8.8445675   8.7526673 105.8128738  65.0231409   3.7059608
 106.5291500  64.4215012   3.5029480 105.4445839  64.6896648   4.5241189
  12.0203936  71.6047907  76.8565178  12.0023382  71.0663557  77.6477146
  11.2438059  71.3356733  76.3658857  75.3392506  85.5968666  36.7122555
  75.4227686  86.0574055  37.5472212  74.8399258  84.8078442  36.9228244
  96.9753361  94.8357868  18.3778465  97.6958179  94.2590714  18.6319017
  97.2390652  95.1883888  17.5279367  88.3039093  73.8931751  29.4222569
  88.4469509  72.9467726  29.4127059  88.4667206  74.1508675  30.3296256
  16.3960874  27.0032907  58.1068468  15.6762695  26.3724780  58.1198788
  17.1866190  26.4656281  58.1538343  87.1401787  74.0699148  32.5987673
  86.8923187  73.1469679  32.6532078  86.5131378  74.5200920  33.1647992
  71.9677210  65.5408859  51.7643976  71.8038511  65.9943199  52.5913095
  71.0957813  65.3648090  51.4109135 105.1091003  96.1465263  43.5405254
 104.4957066  95.5010700  43.8917732 105.8116627  95.6237507  43.1540632
  64.2498350  31.8260407  79.0233135  64.7765827  31.2637758  79.5913172
  64.4963074  31.5675473  78.1352425  96.8526268  56.1108303  41.4858627
  96.0096836  56.4751911  41.7559004  97.4746990  56.4399147  42.1346807
 109.1626549  89.8272705  39.3825936 108.4241867  90.3105259  39.7532034
 109.4138145  89.2098236  40.0695610 106.9305992  84.2461014  17.7900636
 106.4204597  83.6553288  18.3441126 107.2675896  84.9087048  18.3930802
  79.7363091 108.3561707   9.1678178  79.7239447 107.7841473   9.9351954
  80.1294899 107.8223038   8.4774375 102.5001335  88.6844254  40.8042669
 102.1093464  89.2595482  40.1464272 101.7629719  88.1823158  41.1517048
  90.0492764  75.9579992  28.6611652  89.5154381  75.1870489  28.8531995
  90.6284332  76.0429907  29.4185233  58.6483574  89.2960167  40.8129311
  58.8229752  88.6475182  40.1308727  58.5037184  88.7778759  41.6046667
  66.2726450  89.3346310  22.1166277  65.4925156  88.8146496  22.3096251
  67.0019817  88.7271214  22.2400379  80.5977345 102.8903770  50.9231949
  80.2621841 102.6227474  50.0676203  81.2030125 103.6062622  50.7298374
  17.0133519  92.2488880  21.4729929  17.1393478  91.7158222  20.6880093
  16.0713029  92.2123623  21.6386461  88.4891224  69.3891287  31.9926143
  87.8997993  68.6842012  32.2609520  89.1636181  69.4088984  32.6715040
  93.1555462  60.8069134   4.0578282  93.2290936  61.6928911   3.7030551
  93.2490444  60.2352476   3.2957989  26.7751956  71.5860510  57.5793409
  27.1576738  70.7647419  57.8881931  25.8860922  71.3512278  57.3136520
  67.7327442 110.6756687  10.8132851  68.5854816 110.5220890  11.2200785
  67.6101446 109.9303532  10.2253139   2.9499683  89.8705482  19.2377865
   2.4353209  90.6727982  19.1497493   3.0325273  89.5395947  18.3434224
  88.6759090   1.7474319  86.3191700  88.0427933   1.1579053  86.7288589
  88.5785389   2.5719488  86.7955303 106.8127346 105.5910587  17.7744567
 107.0391273 104.9762249  17.0766377 106.0780716 105.1782227  18.2284009
  81.4602661  76.1779404  64.4906139  80.7553196  75.6284666  64.1480255
  81.3530540  77.0147085  64.0383387  21.7943001   4.2635265  38.4508634
  21.6019845   3.4604508  37.9668021  21.3149023   4.1677710  39.2738104
  23.0403519  58.7228155  18.0232728  22.1784353  58.9125347  17.6526797
  23.2877874  57.8829432  17.6364613  60.7139206  73.9803839  75.9704924
  60.6278324  73.0271912  75.9548044  61.1281633  74.1696358  76.8124056
 113.4170723  81.7581940  19.6935964 113.5254860  82.2770405  20.4906368
 113.6170673  80.8615589  19.9624395 102.7529049  89.5879269  19.7007430
 103.3985996  88.9454842  19.9949849 102.1788120  89.0981007  19.1119123
  12.9375708  11.8684208  56.4084578  12.1145415  12.0137763  55.9418440
  12.9865992  10.9187126  56.5174627  35.4857802   1.9195080  48.6913776
  36.3272929   2.0582242  49.1259432  35.6984162   1.3948414  47.9195309
  90.1082516  62.3247337  34.4252539  90.4065800  62.6910877  35.2577281
  89.2283249  62.6827049  34.3076611 108.9738369  73.8021469  36.3739681
 109.8601723  73.6372471  36.0523272 108.7695599  73.0393362  36.9149184
   6.2198603  82.3337364  24.4443250   5.9822679  82.1958923  25.3612661
   7.0052600  82.8797340  24.4798851  32.1781445   6.9330788  29.5090246
  31.9389915   7.3025048  28.6589885  33.1347990   6.9624859  29.5223641
  35.2438664   4.9816895  41.3336706  34.6277022   4.3172672  41.6420794
  34.6907878   5.7164907  41.0683346 101.3741302 110.2598572  43.1762552
 100.9945393 111.1378956  43.1419373 100.7854748 109.7665882  43.7475634
  53.6799812  35.9945750  24.6812773  53.8796282  35.0964522  24.4171715
  53.7150002  35.9763861  25.6376624  23.6785412   4.8096922  26.6662431
  23.7136102   5.7659864  26.6886711  24.5957947   4.5361456  26.6735339
  87.5153542  97.3622513  23.2643867  87.6219559  96.5213203  23.7090230
  88.1784630  97.3539734  22.5741386  80.1364708  93.1256199   8.9169705
  80.6978607  92.3646355   8.7687778  79.8541737  93.0412865   9.8277003
   7.0585668  10.3936589  16.3254523   6.7295253   9.6416187  15.8331120
   7.6112217  10.0106907  17.0067310  94.3256283  97.1296310  31.6361976
  94.3510151  96.7629242  30.7523918  95.2371788  97.3464966  31.8318057
   2.2390664  96.7499924  17.7286708   3.0974483  96.4211750  17.4616659
   1.8328190  96.0144424  18.1871104 110.8077812  78.8056612  57.7027225
 111.7022038  78.4710264  57.6374340 110.5238914  78.5601711  58.5832739
 107.3552132 102.3404598  52.8336668 106.9267845 101.5175247  53.0691576
 107.6173306 102.7223015  53.6713552  20.7159328  60.4862022  13.4008765
  21.4638329  59.8916197  13.3429837  20.2245092  60.1794481  14.1628706
 106.4486027  69.9532652  10.4183424 106.5008545  69.0583801  10.0826538
 105.9725380  69.8716545  11.2447429  67.1046209  87.6725864  40.6959772
  66.7772532  88.3196545  41.3207626  66.9585562  88.0722618  39.8385668
 107.0580006  97.4119377  36.4620590 106.7899418  97.6679802  35.5795527
 106.8379593  96.4821148  36.5189075   8.3157629  54.0052795  39.5603395
   9.0077055  53.4448910  39.9116445   8.6883271  54.3716478  38.7583399
 101.6167068   8.2537872  40.4527712 102.2701740   8.4525746  41.1233664
 102.0997238   8.2966727  39.6274948 101.9009209  64.7690248  50.9182358
 101.4603996  65.1862192  50.1778889 101.3170719  64.9215508  51.6612625
   0.6657097  62.4010658   9.7293866   0.6839540  62.2360992   8.7866861
  -0.1662949  62.0287800  10.0216281  27.7040982  17.0516515  23.0247140
  28.5569215  16.6829419  23.2548785  27.8183436  17.9972136  23.1200647
  90.8460617  97.0930576   2.0693275  91.7791653  96.9175434   1.9478799
  90.4059601  96.3871098   1.5958558  40.0966263   2.7030286  60.1488638
  39.6413136   1.8645112  60.2251005  40.6569815   2.7426332  60.9238863
   3.3815268  18.0059659  51.2446356   3.7997398  18.7812650  51.6191244
   3.4227246  18.1450498  50.2984905  13.1954682 105.2283192  46.0934114
  12.6071560 104.4737625  46.0657787  13.8032663 105.0321579  46.8063879
  56.6983604  97.5350857  30.3812313  57.0867014  97.7960777  31.2162781
  56.9891739  98.2047081  29.7621489  32.1131182  20.1640415  29.4929194
  32.7153277  20.7035470  28.9805603  31.6305542  20.7902455  30.0325751
  93.0584049  80.1078510  12.7035654  92.1706772  80.4217529  12.8757465
  92.9355431  79.2360163  12.3280227 110.4460526 103.1072426  41.1093473
 110.4456234 103.9834881  40.7240868 109.9187469 102.5810528  40.5082560
  14.2536986 110.1974010  48.9997292  14.9787641 109.6406269  49.2834759
  13.6796188 110.2509499  49.7637987   6.7887020  96.0252571  47.0921421
   6.7705488  95.2839756  46.4868307   7.7009028  96.0795403  47.3770523
  98.9921093 102.3753834  10.2490604  98.8857651 102.1366882  11.1699021
  99.1382027 101.5422344   9.8010027  82.5930214  97.6878071  24.5049953
  82.0911694  98.0856228  23.7935758  83.5069180  97.8624344  24.2802191
   5.7710338   5.1344705   2.5417051   5.4292452   5.4414535   3.3814514
   6.4806861   5.7427227   2.3351745  25.7129598   5.5407691  44.4023323
  25.9571242   5.8229595  43.5208654  25.3062606   6.3122952  44.7967625
  81.1195374  82.7172661  44.6239567  80.4825020  83.1586170  45.1857615
  81.8266773  82.4635029  45.2170706  95.1971340  93.8274002  47.0694971
  95.1411819  94.7744465  47.1968079  96.1349583  93.6506653  46.9955015
 103.0556297  79.4667387  13.7306571 103.4604740  78.9057064  14.3921506
 102.4572563  78.8873911  13.2589245 115.6518745  89.9249458  15.0683451
 115.4589367  90.2360916  14.1839266 115.6166553  88.9708614  14.9995971
  30.3103971  21.6840863  14.4475293  30.1424670  22.4105668  13.8473153
  29.5366216  21.6545463  15.0102282  28.1874752  17.2423601  46.0115480
  28.3835864  17.3565412  45.0816345  27.3241639  16.8291581  46.0252857
  95.5465317 107.8486252  12.1872723  95.9492111 107.9442692  11.3241780
  96.2013149 108.1901646  12.7962399  84.4996357  71.1070156  44.3455553
  83.5518551  71.2373209  44.3146992  84.8660564  71.9811344  44.2118168
  71.2704277  64.8748922  78.3979559  71.2434292  65.8316469  78.4088993
  72.1592140  64.6571350  78.6787939 112.2768211  97.6636887  33.1672168
 111.3720894  97.9467487  33.0346847 112.2569084  96.7188644  33.0151415
  73.8717222  39.2058110  93.6122608  73.0921078  39.3625641  94.1450500
  74.0520573  38.2720137  93.7205791  66.6030407  92.9561806  18.7917340
  66.1670589  92.4585247  19.4834661  66.0029602  92.9081535  18.0475378
  22.0048618  21.8461490  10.2658439  21.5878439  21.0126400  10.0476968
  21.3894510  22.2731209  10.8618271 105.5602646 110.8646393  19.0346861
 105.5605507 111.1790562  18.1305969 104.6589279 110.5822086  19.1897655
  77.4103022  75.5077505  17.5001299  77.9407978  74.9627256  18.0812991
  77.4427938  75.0590754  16.6552234 105.6684494  95.9912682  24.7197223
 106.2186813  96.2468624  23.9793515 106.2057018  95.3731918  25.2152801
 112.5487137  64.3245888  28.4429884 113.4680462  64.5286322  28.2714224
 112.4826813  63.3801126  28.3021379 103.6937332 105.0359344  27.3834181
 102.8490067 104.8360825  26.9800210 103.9069080 105.9148598  27.0699215
  27.2706676  63.6417294  89.4131184  26.6519952  63.2398415  88.8032341
  27.0425701  64.5713377  89.4078445  16.6989255 106.5217781  27.3971009
  17.3126185 105.7914925  27.3177576  16.4499438 106.5260601  28.3213425
  92.4060154  14.2425859  38.6637282  92.7640724  15.1196909  38.5269475
  92.4294853  13.8364971  37.7972579  89.3521595 106.8885994  47.6013184
  88.7668705 106.3679218  48.1513739  90.2305222 106.6717529  47.9138851
 100.7385635 102.9580784  18.6646903 100.5350971 103.7076187  19.2241716
 100.5879498 103.2758427  17.7744257  23.5551786  18.5523415  22.3734331
  22.9379916  19.2775726  22.4701333  23.3909655  18.2138288  21.4932752
 117.2584343   1.2032097  33.4084249 118.2112408   1.2927252  33.4275818
 116.9557381   1.9685638  32.9197121 114.7157764  83.2410526  21.6347528
 114.3168926  82.9557228  22.4567699 114.1813850  83.9840794  21.3544559
  87.5248337  87.8221035  36.4496207  87.9749203  86.9923019  36.6080093
  87.9369736  88.1710815  35.6593060  94.0990829  95.9487343  67.2910023
  94.4616604  96.3327408  66.4926910  94.8080254  96.0127258  67.9309559
  53.4322882 106.1880207   6.0003960  53.6895084 106.8379211   5.3464079
  52.6405716 106.5495300   6.3988072  34.6310711  40.2114868  14.8203945
  34.1056275  40.8475304  14.3350196  34.1187882  39.4035363  14.7885489
   0.1906084  22.5472307  47.9451418   0.6610075  21.8783140  47.4476433
  -0.6415173  22.1337891  48.1750679   2.7416599   1.3663965  21.0367918
   1.9330204   1.5887053  20.5753660   2.5445822   0.5422482  21.4819574
  26.8590641   8.6772168  37.2239161  26.3337278   9.4082451  37.5492620
  26.7737055   8.7260145  36.2717795 101.8273830 102.2036457  39.4254756
 101.6523361 103.1219864  39.2199636 100.9982014 101.7574406  39.2534351
  52.3725700  30.9594274  96.1513996  52.2906351  30.4152560  96.9345951
  53.3152294  31.0118103  95.9936810 114.7783232 111.4438903  46.6952085
 114.9583173 110.6130962  47.1352243 113.9510298 111.2976513  46.2364817
  77.4271202  64.3887186  17.6693141  78.3704138  64.4401217  17.5150824
  77.1939087  65.2497435  18.0164170  82.2177696  66.8353939  29.6267176
  81.7571640  66.2501717  29.0253997  81.7498970  66.7426729  30.4566145
  50.5678272   2.1532607  43.2425451  50.7528973   1.5150985  43.9315510
  49.7295618   1.8728445  42.8752422  31.4905310  14.4520438   2.7076170
  30.9876466  15.0949454   3.2076344  31.1023521  14.4721246   1.8328904
  21.1771607  14.0783918  36.3422179  21.4142108  13.8219535  35.4509950
  20.9950995  15.0161362  36.2812114 105.6790733 103.3490753  12.6426291
 105.7301044 104.2201328  12.2490561 106.3190556 102.8288651  12.1568000
  73.5388041 105.2466297  41.6702843  73.9980888 104.5690918  42.1665001
  73.3629370 105.9353161  42.3113871 106.2162590  93.8424778  22.0290303
 105.5935669  94.5340633  21.8049836 105.7530689  93.0290794  21.8288589
 111.1801243  82.5138474  23.1447363 110.7707500  83.3095169  22.8048015
 111.0788631  81.8729591  22.4410105   4.7293219   6.2612593  49.2692518
   4.4496855   6.6619253  50.0923586   5.6160092   6.5938830  49.1300440
   5.2296495  94.2534161  35.9256220   5.8679724  94.0652657  36.6136432
   4.7099537  94.9783993  36.2728167   6.2991929  94.2117977  43.5034084
   6.4249259  94.1748333  42.5552225   7.1862143  94.2047215  43.8630915
   7.0640337  75.0111198  35.7019043   7.8026348  74.9365759  35.0976324
   7.4410415  75.3916693  36.4951777 102.7618885  94.4510555  32.8282046
 102.6313591  94.1752815  31.9209337 102.0761204  93.9967442  33.3176541
  66.9221163  67.6720428  92.7938843  67.8573322  67.8676939  92.8515720
  66.5066099  68.3179426  93.3651924  92.6391792  99.9182892  31.5913820
  92.4351501  99.0125751  31.8243575  91.8154621 100.2701664  31.2538791
  87.2763348  94.4178391  36.1621308  86.8740368  95.0437927  36.7642641
  88.1977367  94.3952560  36.4204621  39.0617013  12.8067029  70.8455086
  38.6625481  13.0852568  71.6697168  38.3305240  12.7580905  70.2296782
  82.4873924 107.4778938  28.4782839  83.4006405 107.5026417  28.7639284
  82.3973942 106.6334915  28.0365610  42.7807570 103.9311409  33.7878919
  42.6541710 104.8629570  33.6092329  43.6309195 103.7259960  33.3988333
   1.5866318 103.3382607  39.7414255   2.1852690 103.4858418  39.0092468
   1.4813225 102.3875237  39.7768116  10.9867120  13.3778024   0.7893934
  11.1241305  13.7941611  -0.0614842  10.4017341  12.6429856   0.6047913
  41.3503075  91.1951733  22.6745296  42.2267246  90.9388828  22.9616642
  40.8678150  90.3707695  22.6129508  14.5688355  62.4165773  31.2812352
  15.3749871  62.6653290  30.8290482  13.8786125  62.5514030  30.6318927
 106.3934612  76.7472363  46.0173035 105.7252026  76.0640669  45.9631395
 106.0626125  77.4507332  45.4588556 115.2007008  65.9556246  40.6738186
 116.0622215  66.1444998  41.0457516 114.5813847  66.3066578  41.3137007
 112.5142384 111.1061001  24.0743661 111.5987492 111.3318443  23.9096045
 112.5862217 110.1891041  23.8094664  45.0769234  10.0907946  29.1175771
  45.3851461   9.1876119  29.1916823  44.2314005  10.0929010  29.5662570
  12.4000633  76.1505747  39.3286252  11.6536772  75.5933046  39.5490527
  12.0314574  76.8345261  38.7695432  30.4804564 107.7623272  46.8568134
  29.7896218 107.2170448  46.4804602  30.9915161 108.0558777  46.1025715
   5.7156372  97.8680038  18.7513590   5.4109073  97.2440529  18.0925357
   4.9940559  97.9266644  19.3775463 108.1728077  80.7322216  20.2178979
 107.5814056  80.2210617  19.6654558 107.5926304  81.2222004  20.8006144
  40.3966904  86.5384293  37.1540284  41.2590837  86.9534016  37.1365476
  39.9433327  86.8959618  36.3905668  17.9054093 100.6501579  10.2048159
  17.7430582  99.7783852   9.8444098  18.8093662 100.6154442  10.5176878
  10.5978024  99.0457916  37.3869443  10.3712249  99.8599148  37.8364825
  10.3115988  99.1831589  36.4839220   8.8217735  86.9633961  32.8505349
   9.2196101  86.2008476  32.4304414   7.9078311  86.9435787  32.5667238
  11.9691467   6.1941445  34.9731517  12.1820712   7.1273613  34.9745536
  11.3761413   6.0826623  35.7162189  50.4869223  96.5438557  16.0982585
  51.3212395  96.8913746  16.4134896  50.2791595  95.8329391  16.7046094
  85.9434509  27.7896237  68.5656261  85.9715748  26.8696713  68.8285446
  85.0101376  27.9904842  68.4962797  60.3361416  91.5470219  12.0563579
  60.2928114  91.9434834  12.9265177  60.6380367  92.2538757  11.4858711
 107.0608234  44.8991203  84.4067097 106.4795971  45.6368780  84.2219830
 106.7404652  44.5435333  85.2356529  56.9788993   0.2793835  27.9007721
  57.1371353  -0.6424572  27.6972890  56.1908078   0.5021713  27.4052858
  30.1967382  36.6102171   6.2317550  29.7157812  35.8880234   6.6359204
  30.2630424  37.2698903   6.9221658  60.0705624  24.8185349  33.5846186
  60.6606674  25.1967835  32.9327488  60.2140617  25.3444743  34.3713999
  43.3190787 111.0169649  17.8330433  42.4312651 111.1288182  18.1729043
  43.8492453 111.6307245  18.3414257  72.8962040  21.0321522  21.5496159
  72.0015860  21.2937760  21.7674422  72.9302073  20.0985479  21.7580891
  14.7353470 105.0402546  23.8533473  15.2606976 105.8356667  23.7663722
  14.9010503 104.5542526  23.0455279  55.4599380  16.9364905   3.4656331
  55.7067299  17.8011286   3.1374148  55.2878809  17.0740497   4.3971401
  62.4947119  23.6748576  40.2067184  62.9880571  24.2698407  39.6420646
  62.7388859  22.8001118  39.9043489  30.2397203  30.6596613   9.8655790
  30.1764536  31.5907574   9.6527690  30.3998899  30.6399632  10.8090770
  29.8542619  25.1576877  27.6499248  30.1425815  24.2450738  27.6344085
  30.3612089  25.5570412  28.3568549  11.4864850  88.3561897  18.9870286
  11.5762281  87.4385166  18.7300193  12.3652709  88.6139870  19.2654335
 100.4956245  63.0107069  91.4690876 100.1328182  63.8254642  91.8166065
 101.1836815  63.2927799  90.8663940  69.7257471   8.2988614  25.8309603
  68.9957762   7.7504772  25.5434704  70.3904724   8.1884998  25.1511145
   9.7710264   4.8014936  49.1306591  10.0705028   4.2652103  48.3965302
  10.0150740   5.6951416  48.8896894 116.8605137  94.5481586  22.2348022
 117.4822426  93.8312817  22.3603797 116.7466831  94.9222851  23.1084752
 101.3336754   0.5518653  25.3592181 101.1793423   0.7821631  24.4430423
 100.5081558   0.7543188  25.7994056  50.1986551  11.9314528  25.1746988
  50.2172089  11.0769367  25.6056166  49.7363377  12.5001788  25.7903671
  27.2268891  85.6454086  12.7630305  27.1362472  84.7244644  13.0077422
  28.1302953  85.7240105  12.4565852  11.6024554 106.0870457  42.1290016
  12.1587133 105.4853535  42.6237535  11.5249014 106.8582344  42.6906872
  19.1822326   3.4760422  10.5670738  18.5314858   2.7747387  10.5365074
  20.0184321   3.0333513  10.4220665  25.5898809  58.3354473  18.9187014
  24.6550012  58.4989834  18.7942398  25.8705473  57.9181671  18.1042492
  26.4035201   8.3574033  11.8144965  25.9372759   8.2957810  12.6481926
  26.6214442   9.2856270  11.7299879  86.5819645  22.0632768   5.8912146
  86.8806553  22.8314471   5.4044634  85.7031918  21.8919754   5.5526245
  89.3665123  20.3399682   4.1636226  88.5601139  19.8701024   4.3761849
  89.8883533  19.7083747   3.6686486  12.4694979 108.2691956  36.7451882
  11.7979741 108.3775043  36.0717225  12.1353149 107.5693893  37.3062778
  66.0068512  17.9740500  23.0789018  65.5078840  17.2012401  22.8142738
  65.3409529  18.6297989  23.2858014  46.4833069   6.4642650  42.9561090
  46.8129969   5.8787274  42.2744322  46.5912199   7.3422623  42.5904512
   4.2961469  88.0813694  34.3083572   4.2419952  88.0443573  35.2633071
   4.6431252  88.9537430  34.1217732  53.5914326  17.9329932  21.0223842
  53.1916809  18.0418563  21.8852735  53.0253506  18.4299242  20.4317522
  57.2885227  22.8573990  68.1652737  56.8060350  23.6541319  68.3858395
  58.0324554  23.1637335  67.6466608  33.5393429  24.6921968  28.8052535
  33.8796353  25.5864358  28.7774992  33.6188102  24.4340849  29.7235632
  35.2308559  95.0463963  26.2946105  35.6458473  95.0140667  27.1565676
  34.2930532  95.0882721  26.4817119  78.4021521  35.0009036  82.4664402
  77.8311348  34.7637939  83.1971645  79.2620754  35.1300097  82.8665733
  44.5049143  34.9135900  43.0926180  43.8854551  34.1900587  43.1875181
  45.1275539  34.6106863  42.4317074 101.2216187  81.2983990  61.7657995
 100.7534599  82.0316029  62.1651506 100.6142616  80.5615807  61.8324852
  24.7790527  86.9915867   5.1417607  24.6445417  87.7735138   5.6772316
  25.5973148  86.6163349   5.4671299  76.6522741   9.9009681  56.3456678
  75.9355831   9.2963439  56.1532831  76.5861702  10.0588441  57.2874403
   4.9605161  80.5605125  90.6153297   4.7023538  81.4242840  90.9370136
   5.7337308  80.3337669  91.1320114  39.9752903   7.9944932  28.4017444
  40.8742809   8.1445765  28.1093049  40.0650549   7.6864851  29.3035769
  23.4218216  71.1287212  32.3999310  22.5771713  71.5170574  32.1719098
  24.0640211  71.6564560  31.9252634 105.6384468  45.6298351  89.0026093
 105.2741528  45.2280903  89.7913551 105.0055885  46.3074541  88.7647915
  50.4331493  33.9227653  22.3822308  51.0956526  34.0668988  23.0579138
  50.9314299  33.6448288  21.6136575  37.6157784  74.1902304  50.8318901
  38.0444431  74.9573326  50.4523754  38.2820654  73.7983418  51.3964367
  31.2477279   1.7630109  13.8448131  31.4870834   0.9921068  14.3592513
  31.8631506   1.7622504  13.1116784  53.9193296  15.9114456  25.4844308
  54.4853163  16.3601649  26.1125588  53.3552170  15.3571868  26.0236955
  29.9600911 104.2807484  43.7868690  29.5662212 103.5757446  44.3007421
  29.7242856 104.0778542  42.8816271  52.7815342  28.6600852  25.7983994
  51.8685246  28.9168692  25.9276557  53.0963850  28.4448266  26.6763306
  43.3131456  33.3081508  22.5612950  42.6358318  33.9824057  22.6147294
  44.0868521  33.7143898  22.9519153  29.9865985   3.8573763  18.4404314
  30.1947594   2.9333547  18.3022833  29.6033168   3.8880894  19.3170071
  60.4815388  25.9510803  26.6865706  60.6432199  26.1933231  25.7747531
  61.3410521  25.6976700  27.0230889  77.2916174  28.1443858  41.7763281
  77.3260355  29.0886211  41.6231537  76.3569307  27.9429412  41.8212223
  68.4296274  29.0726972  10.9409273  68.6593199  28.3272147  11.4956594
  67.4873924  29.1840863  11.0674787  68.8493919  15.3873837  33.3756423
  69.6884298  15.7325363  33.0704951  68.1960773  15.9730875  32.9930687
  85.8082199  56.3723707  91.2380600  86.2198639  57.1034527  91.6988277
  85.0748825  56.1185169  91.7984200  52.7523756  22.6368213  32.6708031
  52.1974802  23.3522081  32.9815149  52.6719189  22.6679897  31.7174983
  55.0770617  23.4619474  46.7343378  54.8152018  23.4360385  45.8140135
  54.7839594  22.6231980  47.0904541  41.2463045  23.8014293  41.7858791
  41.2696600  22.8792477  41.5304089  42.0974445  23.9583230  42.1947479
 112.2347546  55.5161428  24.3871474 112.6416779  56.1144257  25.0138068
 111.3261318  55.8115959  24.3292379  89.4992065  26.0135102  83.4158134
  88.8082409  25.4135156  83.6965466  90.3110790  25.5937052  83.7001896
  72.3162985  11.3481367  29.1813326  72.3191404  10.4712963  29.5652270
  71.8866396  11.2369037  28.3332467  19.4192135  92.8144646  44.5090055
  20.0849438  92.9701805  43.8390875  19.1575503  91.9029045  44.3793201
  57.6901293  13.0582821  30.6339049  57.9464197  13.2212162  29.7261620
  58.5100746  12.8460824  31.0798812   3.2281682  98.6866188  32.1188164
   3.3133620  97.8387547  31.6828036   3.5235471  98.5258389  33.0149937
  91.5504932  48.2350683  79.1243315  91.9704819  47.3820448  79.2347431
  92.1452904  48.8519001  79.5509100  59.4982052  13.7666202  64.5056343
  59.4754362  14.0636802  63.5959816  60.3665590  14.0199924  64.8186731
  81.6117573  15.8966005  10.5020094  81.7165756  15.5378950  11.3832450
  82.4894428  15.8584929  10.1219416  52.2509098  31.6275287  28.8650751
  51.2949133  31.5803170  28.8561153  52.4575710  32.3989606  28.3374238
  41.7438126  19.9536812  38.1179500  42.6466084  19.7835445  38.3867288
  41.2248993  19.7926402  38.9060044  43.7026596  10.6647635  11.9397271
  44.0074110  11.2903833  12.5969613  44.2726469  10.8132946  11.1852169
  37.8074312  14.6304417  22.6745582  38.7479925  14.6122992  22.4977875
  37.4500656  13.9190984  22.1430397  39.9287176  26.1011934  26.6131306
  39.8244953  26.9391203  27.0639610  40.4560375  25.5714607  27.2110844
  25.2725768 107.8812027   4.9162549  25.2969360 108.6234760   4.3123761
  24.3993616 107.5066566   4.8003012  22.9318023   8.5911644  10.7436824
  23.5302877   8.5803914   9.9967349  23.3787632   8.0771178  11.4161503
   8.1344801 103.8872337  36.0330343   8.1043631 104.5623970  36.7108917
   7.7410340 104.3013000  35.2649283  38.9555311 102.9425716  33.8013482
  39.7746992 102.9784679  34.2952204  38.3982897 102.3488712  34.3045640
  68.3136368   6.2491393  41.3083315  67.5949669   6.8773365  41.3798571
  67.9730415   5.4490024  41.7083454  25.6594849  29.3969321  36.6310525
  26.3325644  29.9269009  36.2040520  26.1382627  28.6566567  37.0038724
  36.2098670  64.1233015  35.7183790  35.9406447  63.6467123  34.9331284
  35.3923631  64.4564390  36.0884285  83.3949280  24.7935629  22.0752621
  83.9486122  24.2483401  21.5163326  82.6223755  24.9773598  21.5408421
  11.4740884  88.5788155  46.2355757  11.4839089  88.8802052  45.3271151
  11.2813950  89.3648815  46.7466402   9.8001355 101.1762142  39.1992354
   9.0523469 101.4492702  39.7307301  10.0949574 101.9794083  38.7700486
  39.9040985 104.9489403  13.8423228  40.4396629 105.6167030  14.2706990
  40.3857136 104.7313213  13.0442500 116.9476891 107.0139790  89.3294716
 116.4650345 107.8243160  89.1662979 116.3297558 106.4587498  89.8049831
 112.9850197 111.0041142  35.6011653 113.3304501 110.1785660  35.2614951
 112.1705532 111.1402130  35.1170611  13.4326971  56.3256693  14.2278481
  13.0110979  56.9660378  13.6547780  14.0557897  56.8385267  14.7425938
  32.5190997  81.0162163  19.5968652  32.8164339  80.8065891  18.7114954
  33.2586765  80.7851601  20.1588893  56.6905117  26.2991667   8.5691118
  56.4619303  25.4061127   8.8268709  57.3187637  26.5863276   9.2317319
 114.2910099  73.4170961   5.9026474 113.4143257  73.3564425   6.2820810
 114.8772430  73.1482363   6.6099519   3.6717296  67.8645611  33.7016225
   4.5191163  67.4526501  33.5328102   3.3403191  67.4196720  34.4816709
  68.6510277   4.7304842  35.0886130  68.9962673   4.7183725  35.9813023
  68.0867338   3.9588657  35.0395584  99.2920589  99.7796440   9.3827683
  98.7001324  99.2217827   9.8873967  99.2299843  99.4466400   8.4875107
  28.8795352 103.7472248   8.0666888  28.5783577 104.4557953   8.6354184
  29.0889454 104.1779041   7.2378981 106.2781620  73.3577156  90.2646923
 105.7919884  73.4585571  91.0830402 107.1400547  73.7302399  90.4506779
  73.1414986  16.5310287   2.5893965  73.7774420  15.9144378   2.9521915
  72.9400444  16.1837924   1.7204463  18.6426842   8.2670796  13.8336504
  17.8805280   8.6368835  13.3880103  18.9737880   7.6020873  13.2300043
  23.5592651  80.4506302  16.5487659  22.7015710  80.3114700  16.9502926
  23.3635235  80.8201790  15.6877482   8.6119926  84.0543175  42.2255182
   7.8815520  83.6636162  41.7458916   8.1983250  84.5312786  42.9449749
  27.3607373  37.9895401   4.5419788  27.8633690  38.7406278   4.8573500
  27.7225947  37.8061795   3.6749905  30.8011699  11.1001623  16.7247784
  30.4206157  11.6593421  17.4020731  30.0470185  10.7603168  16.2431240
  85.0475025  25.0698686  28.3833432  85.1265717  25.4676867  29.2503595
  85.8621216  25.3025889  27.9378462  32.4112105   9.0229535  33.0646062
  33.0082870   9.3873006  33.7180471  32.6742244   8.1060755  32.9846644
 116.5444756 103.4154320  39.6910548 116.7801285 102.4880219  39.7157097
 115.6996536 103.4598732  40.1388597 114.4290066  31.8011451   4.0354231
 114.8927307  31.8331146   4.8721820 114.5652103  30.9077024   3.7200853
  87.6796341  37.0877647  57.9621077  87.3927975  36.2270284  58.2672119
  88.1464958  36.9091797  57.1457911 115.7487774 108.4561443  36.5135026
 115.4326153 109.3595123  36.5271878 115.9539890 108.2603264  37.4277115
  63.8201284  67.7918768  89.8578262  63.3269739  68.0312252  89.0731430
  63.7368774  66.8398380  89.9119282  86.9720078 108.7906170  75.1961756
  86.9253731 109.7121239  74.9414778  87.9035473 108.6308289  75.3476381
  72.3262644  20.5058575  16.9137764  72.8578091  19.9708009  16.3243628
  72.6784134  21.3906622  16.8171048  87.1081924  45.5233717  94.2893314
  87.8288078  45.7290077  94.8848724  87.4218750  44.7735739  93.7837219
  75.9962511  13.2761133  30.8215547  76.3292074  12.9860485  29.9723005
  75.2510166  12.7011907  30.9957027  51.4682150 110.8192062  29.8371553
  52.1844578 111.4542007  29.8344278  51.8883467 109.9834061  29.6342874
 110.2492237   7.5227946  27.2582054 109.4342709   7.7451098  26.8080163
 109.9890137   7.3807424  28.1683421  97.6640606  17.9804122  47.4054575
  97.5027275  18.2841372  48.2987404  97.9161739  18.7695909  46.9260120
  70.5118561  34.7027779  15.8511639  70.9459496  33.8759565  16.0613155
  70.8783770  35.3307199  16.4737260  78.9604092  44.2362785   2.0027301
  79.7870064  43.8949490   2.3439926  78.3420277  44.1336823   2.7261338
  12.6996398 105.3064346  13.2104468  11.8387735 105.2473354  12.7961409
  13.2804859 105.6113625  12.5134003  92.4347115  76.5061998  85.2072334
  91.7538929  77.1694422  85.3204823  91.9546032  75.6999779  85.0182056
  32.5137353  99.6189022  25.5596566  32.1008301 100.4817486  25.5949235
  33.3969545  99.7619534  25.8997941  11.8932796  75.2599239  87.3840237
  12.2633636  75.8611059  88.0304337  11.9408464  74.4000387  87.8018379
  32.8678203  97.0914555  20.3263688  32.0851326  96.9790936  20.8658195
  33.5891414  97.1241474  20.9547472  11.1512685  61.1874819  93.9306068
  11.3562989  60.4875755  94.5505524  10.3078532  60.9351349  93.5548401
  71.3932657  16.8393767  26.8435001  70.9274578  16.0849249  27.2041321
  70.8343363  17.1473169  26.1300564 109.8751450 102.6900673  91.2835217
 109.0143776 102.9571629  91.6059780 109.6933842 101.9592094  90.6927204
  69.6641350  22.6847672  37.6872468  68.7452412  22.9141927  37.8259230
  69.7817421  21.8656898  38.1684017  39.2735577  22.9051661  34.6363997
  39.2970753  22.1477866  35.2212548  39.2088842  23.6588144  35.2229691
  62.9649353  24.3690062   2.8575194  62.4253368  24.1915846   3.6279657
  62.6925325  25.2403641   2.5698277  36.3450074 106.2100887  12.8834164
  36.7155695 106.0994244  12.0078206  36.5710068 107.1076393  13.1274641
  45.4700565  28.6921048  23.8611674  45.2244186  29.1360641  24.6728277
  45.9062290  29.3672633  23.3414125  47.2363043   2.3024724  26.7959476
  46.9424248   2.6380801  27.6428461  48.0699539   1.8718323  26.9851780
 114.5395565 110.1821899  10.1030993 114.1761208 110.5811310  10.8936656
 115.0551987 109.4421673  10.4235852  62.9008150  28.3457494  13.6304891
  61.9940853  28.1346560  13.4079862  63.1028032  29.1191864  13.1039631
  95.3500843  71.9395638  95.2225399  94.8718166  71.9896889  94.3948936
  96.0107899  71.2624836  95.0767326  11.5790308  93.4988785  34.9468017
  11.2717891  92.6390362  35.2340293  11.5928066  93.4414577  33.9914274
 106.5471172  50.6127024  92.0388603 105.6325817  50.8734322  92.1478939
 106.5106773  49.8431444  91.4708042  94.9062920  25.9639621  63.8256073
  95.3762722  26.1247754  63.0073786  94.2497349  25.3052449  63.5992193
  76.7543793  21.1631227  33.1524324  77.3679924  21.8568802  33.3941126
  77.2978067  20.5006433  32.7257729 108.4667873  32.2639060   8.5036820
 109.2399693  32.7404308   8.8059223 107.7408504  32.6496553   8.9940280
  71.0022926  33.0720067  10.3941834  71.7354441  32.7249408   9.8859864
  70.2529621  32.5390840  10.1282358  59.3530989  26.1313057  29.2703199
  59.8074722  26.2891340  30.0978899  59.6048975  26.8687272  28.7144089
  15.0580025 107.3199368  92.5045300  14.8019934 106.8399906  91.7169094
  15.7669008 107.8943539  92.2151566  49.8298454  23.4957719  21.3328314
  49.0968227  24.1073751  21.2632012  49.6050119  22.9360628  22.0760703
  94.8883343  12.5595641  19.6240067  93.9320278  12.5947154  19.6019793
  95.1312256  13.1113231  20.3675103  67.9717064   0.7192775  29.0905142
  68.9215231   0.7673559  29.1990161  67.7702951   1.3937008  28.4418082
  66.3286543  55.6811571   9.9872655  66.0272980  54.7836733  10.1284671
  67.2832108  55.6129551   9.9673522  51.9905806  15.0468791   2.7860472
  52.3006582  14.9782324   3.6890268  52.7886629  15.1332343   2.2646634
  19.6829736  18.5226405  19.0400410  19.2951345  18.6884165  18.1807792
  18.9468288  18.2460141  19.5857525   6.1944598  89.7122288  64.4238281
   6.1991453  89.2246437  63.6001348   6.7200279  90.4917049  64.2437363
  41.1367655  35.2835512  39.7422910  40.8141613  35.6183743  38.9055991
  41.9992590  35.6858420  39.8447371  70.4428577  19.2130518  37.0837021
  70.8520842  19.9503708  36.6307950  69.8376513  18.8431859  36.4409304
  46.2463045   3.1513301  29.4311261  46.0886002   2.2346950  29.6572709
  45.9702396   3.6402023  30.2063823  79.2387962  23.3612585  73.0947113
  78.5348082  23.9608240  73.3420134  80.0324440  23.7666917  73.4439611
  41.5399742 100.1739883  42.2182035  41.1777735  99.7876453  43.0155659
  41.0455799 100.9849072  42.0990133  89.8713112  21.3731742  42.7596998
  90.6024933  21.9879365  42.8203297  89.3048382  21.7408967  42.0813751
  48.6614847  52.6589394   2.5599560  47.7891064  52.8727388   2.8908297
  48.5004473  52.2308111   1.7191190  78.1808329  19.5580029  31.3755417
  78.2340288  18.6268806  31.1601019  77.9312086  19.9801564  30.5535269
  57.2261810  12.0981836  37.1266770  57.4074173  11.1599195  37.1818709
  56.3354731  12.1500862  36.7800164  63.2439518  76.6296101  90.0006771
  63.6982059  76.5600824  89.1610050  62.6745796  75.8607006  90.0293541
  17.5226200 105.6715012  36.9658208  16.7559671 106.1906815  37.2085547
  17.4381518 105.5471516  36.0204983  12.5540638  51.8371391  93.9552498
  12.9905820  50.9988213  94.1065979  11.6222072  51.6439295  94.0579319
  63.4024334  25.4003215  35.8148336  63.2185698  24.4895744  35.5846906
  63.6066628  25.8217716  34.9800253  31.0492587   9.4279706  44.2620516
  31.2607694   9.5341772  43.3345747  31.5496325  10.1151848  44.7020435
  21.0761642  31.2768483  30.1745892  21.0167456  30.4582214  29.6820974
  20.7840252  31.0473871  31.0567641 100.8610225  20.0213578   1.0400457
 101.4130426  19.4568017   0.4989595 101.1007238  20.9108833   0.7801885
  71.8623972  24.6388817  31.2025476  72.0649099  25.0509357  32.0424461
  71.7968512  25.3691006  30.5871463  65.1897001  21.7385674  29.6728516
  66.0104752  21.7566824  29.1806793  65.1353168  22.6032472  30.0797939
  62.3579073  23.0980539  25.4624653  61.8501472  23.4906936  24.7523594
  62.6387835  22.2510576  25.1161480  58.0417585  34.1825390  49.4570065
  57.8287315  34.5788598  50.3018618  57.2039557  34.1354918  48.9964676
  89.6980572  84.5413494  76.2737656  88.8751698  85.0242996  76.1973524
  89.4888306  83.6608410  75.9620571  76.0895061  14.0957499  10.4992890
  76.5177727  13.3266973  10.1232827  75.8158684  13.8145959  11.3723898
  95.6094551  74.3155384   2.9433057  95.1931190  73.4874249   3.1822935
  95.0021553  74.9872398   3.2535306  26.8470216  97.0459938  12.6864934
  26.8643737  96.9808006  11.7316735  27.5910187  96.5179825  12.9761696
  43.3247566  18.1422758   0.5965678  43.8449430  17.3526323   0.7452350
  42.4546385  17.8161609   0.3668401  21.4976192  35.2346373   8.6472315
  22.3403645  34.7835827   8.6978340  21.7034292  36.1491704   8.8408875
  86.3995934  40.9634352  12.0394802  85.9801006  40.7902670  11.1967027
  86.2026787  41.8824673  12.2206831  52.8276014   3.6329630  22.4906754
  53.5091448   3.8205636  21.8452787  53.1049252   4.1048807  23.2759261
  99.1649723  73.0317926  92.1920872  98.9808655  73.9706469  92.2219276
  99.8803234  72.9479218  91.5616417  84.2063999  34.7430182  31.2580991
  84.0875053  35.6718040  31.0594702  84.8194218  34.7318506  31.9931555
  25.5499673  97.7176762  21.3260674  26.1730742  98.4395409  21.2430644
  24.8272181  98.0826569  21.8366098  77.0635128  40.7316351  15.1607382
  77.5855017  41.5186119  15.0044489  77.2492456  40.1679754  14.4097233
  88.1939411   6.5523732  17.2086370  88.8689423   7.1346092  17.5573587
  88.2425690   5.7717460  17.7604425  80.1519012  40.6468582  40.0935459
  80.1772499  39.6988940  39.9633169  80.5870914  41.0065222  39.3205738
  91.0030460  21.5410018  20.6919193  91.7695236  21.0395575  20.9699488
  90.4496574  20.9027457  20.2417850  56.2764072  36.6110754  23.7489700
  55.4274845  36.4095449  24.1426015  56.5036869  35.8240771  23.2537866
  42.0397425  18.8408649  30.4297876  41.7817879  19.2182541  29.5887971
  41.8047476  19.5085895  31.0741115 111.7491722  53.9499569  87.1744823
 111.3139248  53.1015444  87.0908833 111.7565346  54.1236591  88.1157589
  41.7749119  22.5358748   6.6536915  41.5576172  21.6161656   6.5015441
  42.7018261  22.6040316   6.4247364  20.4063821  28.1893039  31.6211057
  19.9821830  28.5011768  32.4204946  20.4768324  27.2422814  31.7411661
 103.0028725  89.4030476  94.0798759 103.2849407  88.8847256  93.3262062
 103.4879971  90.2243996  94.0007591  76.1424541 106.1218643  51.5752792
  76.9077969 105.5926895  51.3506556  75.4403019 105.4844189  51.7052317
  64.8769140  10.2209568   8.5116255  64.2486143  10.6954336   7.9672498
  64.9873209   9.3784153   8.0709833 110.8383274  13.4206295  34.2169547
 110.4993439  14.1649342  33.7196326 110.3041744  13.3998752  35.0109792
  51.3302612  11.8473601  36.0433054  51.4407682  11.1323941  36.6700792
  51.8590736  12.5615585  36.3989830  95.7899666  20.3195715  12.1305215
  95.4295540  19.9308014  11.3335323  95.4072380  19.8059368  12.8418076
  44.3530273  63.0639219  40.3415394  43.6688089  62.7200937  40.9158754
  45.1542139  63.0058718  40.8620739  71.2561893  11.0991812  32.5075436
  70.4674959  11.6178429  32.6662421  70.9533644  10.3565657  31.9849968
 118.2565498  65.6821871  70.9021568 118.6581898  66.5510082  70.8940935
 117.3927307  65.8212471  71.2903738  77.1640444  25.8181119  35.5315971
  76.8570280  26.3100815  36.2931347  77.9836321  26.2463307  35.2843285
  80.6482410  37.4231815  35.9573627  79.7981167  37.7114129  36.2896895
  81.1557388  38.2296443  35.8662653  13.7368190  66.0644674  89.9233723
  13.4519541  66.9349289  89.6452045  13.9578509  66.1691570  90.8487988
  58.3378506  28.4647346  24.4202089  58.0060959  29.0394592  23.7303805
  57.6272440  28.4238148  25.0602055  34.9420166 102.0756531  55.7742739
  34.3280888 101.5981579  55.2163076  34.6334147 101.9113255  56.6653347
  96.5082073  21.9316888  21.4875221  96.2000179  21.8072820  22.3851728
  97.0715618  22.7042317  21.5326071  69.0349531  27.4428511   6.5446961
  68.3547735  27.5235462   7.2133297  69.6472216  26.7998099   6.9022679
  77.6664305 109.0921497  82.6893234  77.5166273 108.3779526  82.0698738
  78.4409332 109.5427227  82.3526382  60.2386093  16.8974411  19.1798508
  59.6313477  16.5014148  18.5548508  59.9562883  17.8098881  19.2428148
  86.7744064 108.3487511  95.5839348  86.3409138 109.1891384  95.7325363
  86.5148067 107.8098965  96.3312435  49.8373842  13.9893401  13.0354810
  48.8887691  13.8749051  13.0926752  50.0976467  13.4588945  12.2824073
  57.3706627  27.2773981  35.4397917  57.9447794  27.0071507  36.1564398
  56.6570330  26.6395569  35.4510546  29.3391919  21.2607527  50.8307219
  28.6529589  21.1048293  51.4795685  29.9290371  20.5123568  50.9213734
  40.9242678  14.9384987  17.2500825  40.6737900  14.8495483  18.1696367
  41.8551111  14.7161031  17.2328043  10.2693212  30.7598257  40.2080250
  11.0882401  31.1646628  39.9221754   9.6917641  30.8248115  39.4474745
  37.8340983   6.2579930  27.5518775  38.3973312   6.8311787  28.0719328
  38.1760430   5.3781301  27.7104545  57.3979187  13.6806464  45.9894085
  57.1485186  12.7569389  45.9612226  58.3438063  13.6779284  45.8426857
  44.7444534   2.3575759  45.5591726  45.4752302   2.9237074  45.8075428
  44.2236137   2.8890657  44.9571133  37.5454664   2.2843204  56.3204861
  38.2782722   1.9783218  56.8548965  37.4264622   3.1984851  56.5781164
  56.1950064  25.9476018  17.9761362  55.3986263  25.4251575  18.0713296
  56.8606567  25.3203273  17.6938748 110.9940910  33.2855105  10.0174069
 111.5143967  32.5558662   9.6810549 111.3229847  33.4248757  10.9054601
 115.5141354  45.6211042  31.2679720 115.3277493  44.7396851  30.9445739
 114.9934959  45.6979513  32.0675111  86.6954899   4.9683249  23.3332634
  86.8863964   4.5445114  22.4965024  85.9041691   5.4806578  23.1672192
  41.7848301 106.2047100  32.3781538  41.4070892 105.4000950  32.0229936
  42.0597696 106.7008877  31.6071510  34.9496436  24.1683006  23.2661676
  35.8977890  24.1936064  23.1372786  34.6781731  23.3337355  22.8840208
  63.8838434  13.0274796  27.3084259  63.8018274  13.0839801  28.2604289
  63.7184620  13.9185715  27.0004725   1.5457734  90.1969242  94.8741341
   1.5492032  90.0585365  95.8212757   1.9789228  91.0420132  94.7539902
   8.1337768 108.9002800  19.5193553   8.2102007 108.0050659  19.8494625
   7.8791106 108.7965488  18.6025035  70.5058193  81.8795013  92.0387173
  70.8821106  82.4692822  92.6920223  69.7380209  82.3462009  91.7087078
 115.1648998  26.0756469  20.1613879 115.8117199  26.6755223  20.5328774
 114.5028877  26.6477036  19.7731471  69.2177629  22.6845908  26.8994927
  69.7141981  22.0385599  27.4019146  68.5467291  22.9961538  27.5068402
  34.8001337  35.8130360  34.5365405  35.4334521  35.1758194  34.2062426
  35.3277040  36.4420295  35.0287485  31.7544222  19.4866228  49.2599869
  31.3347173  19.0782201  48.5028315  31.4635348  18.9628816  50.0065231
  43.4420347  95.4670334  33.0009437  43.7058735  94.5489311  32.9400325
  42.5632668  95.4391003  33.3793902  83.3883381  51.8690395   5.4006445
  84.2455196  52.1447563   5.0759161  83.1032181  52.5880575   5.9645188
   5.0498545  48.6471123  95.6557093   4.2039931  48.8199181  96.0690949
   5.5050289  48.0735821  96.2722349  82.6825619   7.2404349  30.1599479
  81.8925953   7.6018053  29.7579646  83.3927155   7.7904153  29.8291230
  52.9524708   4.3295941  33.7954569  53.1049061   3.7394172  34.5334864
  52.0008469   4.4258437  33.7583327  12.6269877 111.0817719  37.8046441
  11.9977903 110.9928703  38.5204935  12.6284802 110.2243137  37.3792028
  31.1416006   9.8642123  36.8585896  30.9907222   8.9692456  36.5544486
  30.7125878  10.4151881  36.2039089  75.3475094  12.5979638  56.7525864
  75.6693745  13.3541787  56.2619019  75.8971739  11.8709886  56.4599991
  69.6324396  33.1041837  21.1513782  69.3302488  32.1961641  21.1310458
  69.3014717  33.4850287  20.3379583  84.0209198  14.3313932  60.0293493
  84.9096680  14.5633733  60.2986860  83.5496807  15.1644444  60.0156260
  74.2418575  20.7129979  85.5033684  74.9299622  20.9668732  86.1184216
  74.4632483  21.1723828  84.6933174   2.2621052  55.4290056  94.7863197
   1.9481432  55.3436804  95.6865311   3.0095184  54.8331404  94.7358418
  66.8175697   4.8829481  24.9128103  67.1880198   5.6703597  24.5140862
  66.2840271   5.2096474  25.6372619  54.2187166   8.9080322  13.9165163
  54.8249054   8.7249035  13.1987214  53.5665321   9.4957936  13.5351753
  93.5019112  13.0110860  59.3366766  92.5938511  13.1502676  59.6055603
  93.6712837  13.7033725  58.6977053  20.7920313  18.5130429  29.8455215
  21.6785407  18.7302732  29.5571709  20.7386374  17.5612235  29.7593832
  77.4605370  11.1885667  10.0235486  78.3674574  11.0458648   9.7526902
  77.4950361  11.1988306  10.9800720   2.4605936  75.5820179  86.0382843
   2.1997787  75.6763649  85.1221466   1.6358840  75.5897093  86.5241051
  32.4709344 102.4743843  16.0248566  31.5193033 102.4186420  15.9381306
  32.8035378 101.7653656  15.4744947  57.8917170  24.8629522  26.7225218
  58.8339901  24.9964976  26.6199493  57.5942898  25.6257153  27.2184682
  82.4252224  18.6974108  63.0452776  82.3676968  19.6393466  63.2055235
  82.6646233  18.3243096  63.8936377  73.2314777   8.6715025  32.4337816
  72.5343513   8.6020035  31.7815399  72.7716255   8.7147146  33.2721710
  92.8536224  73.5808182  95.0495338  93.4077358  74.2016649  94.5765114
  92.7459908  73.9691305  95.9177780  35.5932426  21.3863730  19.1115141
  35.1384306  21.7074418  19.8901629  35.3949761  22.0333481  18.4345007
  71.1562824   7.4733609   4.3053153  70.6940556   7.8443396   3.5536838
  70.5298090   7.5356615   5.0263435  72.7729273  54.0889645   3.4538469
  73.0337143  54.5156574   4.2700315  72.9667759  54.7340631   2.7737677
  46.3555813  17.3470569   9.5373249  45.8124495  16.6083562   9.8122090
  45.8495188  17.7717495   8.8446712  49.8868942  16.4791107  31.9112897
  49.5851183  17.2001457  32.4638009  50.2395535  15.8368087  32.5271726
  35.5118656  11.1612606  39.7817373  35.6773281  11.4135456  40.6901455
  34.9217677  11.8375182  39.4490314  41.0725880   9.5676273  23.9045000
  41.4905310   9.4572806  24.7585368  41.5316677  10.3075373  23.5069942
  90.0195026  11.0857725  21.8864322  89.6007538  11.0547459  21.0262489
  89.3535519  11.4593256  22.4636745  73.2828951  35.5636811   4.1538763
  73.1012154  36.2760425   4.7668731  73.0710649  35.9275460   3.2942477
  38.6982369  31.6871309   9.1273898  37.8798699  31.8951654   8.6765802
  38.4880519  30.9237099   9.6652031  76.7282677   9.8633945  47.9416275
  76.2890577  10.6175208  47.5484085  77.5974846   9.8566353  47.5408268
  68.6419201  29.2132998  37.4425745  68.1968641  29.4789004  36.6378331
  69.5059824  29.6209908  37.3841572  81.0332680  41.6274357  29.2470336
  81.7944336  41.6540861  29.8268151  81.0984802  42.4297714  28.7291193
  47.5954259 106.5580325   0.1121492  47.7687735 105.6387811   0.3150243
  47.2139836 106.9127422   0.9152097  19.3086720  90.4287434  58.8487196
  18.9292502  89.6842861  59.3156719  20.1728749  90.1232624  58.5729218
  69.4601965   5.9512776  53.0947161  69.9492788   6.0040718  53.9158392
  68.5420656   6.0120875  53.3584642  70.7728672  13.7758756  31.0074234
  71.2620544  13.6831403  31.8249345  71.0560465  13.0337167  30.4733467
  11.8241334  38.5295486  24.9677777  11.7731810  39.3487573  24.4753027
  12.3077774  38.7571311  25.7618356 116.9020748  51.5423298  58.7580252
 117.7810383  51.2132502  58.5699701 116.8737793  52.4026585  58.3393764
  18.0626047   5.3404069  69.1515255  17.6554704   4.8184186  69.8429012
  17.3308992   5.6251472  68.6040211  82.5299644  43.8549423  13.2925820
  81.6441345  43.6136103  13.0218446  82.4027824  44.5615578  13.9256334
  55.5631113  31.8284917  38.8303900  55.1882029  31.1191535  39.3524218
  54.8133135  32.2151685  38.3781552  34.3366170  44.1584492  19.0984213
  33.8710117  44.2225075  19.9322903  34.9860382  43.4694576  19.2390287
 106.3819122  17.6234889  11.0853326 107.0018005  17.1979368  10.4929829
 106.8979359  17.8286517  11.8649864  89.5043755   6.4789212  77.6358128
  90.2496719   6.4541548  77.0356798  89.7083282   5.8188623  78.2983494
  51.4753008  42.4817896  10.1654565  52.1079350  42.3565960   9.4581163
  51.9060993  43.0886030  10.7674742  73.8590765  40.8777475  14.3335974
  74.0409279  41.6931629  13.8664138  74.4426203  40.9009647  15.0919950
  62.7631998   9.5331061   0.8293848  62.3750973  10.1725292   1.4266679
  62.8101206   9.9883449  -0.0113218  87.1605968  35.9729290  30.9862590
  86.8828392  36.5989470  31.6549778  86.5288544  35.2567673  31.0514545
  33.5508037 102.3688412   8.8056123  33.5369420 102.0709991   7.8960359
  34.2394590 101.8473339   9.2179394  67.2314119  30.5699205  24.3371868
  67.1561670  29.6174884  24.2785215  66.6169119  30.8166027  25.0283980
  75.6917286   0.1851375  19.1488028  75.0080538   0.7081768  18.7301707
  75.7865572  -0.5815711  18.5836506  55.1006699  27.5535440  40.9470797
  55.0345612  26.6491437  41.2535429  55.4558372  28.0343986  41.6946554
  36.3973022   9.0310341  30.6896925  36.2559175   8.8136500  31.6110969
  36.1357880   8.2422513  30.2146506  17.1583652 109.1534328  56.3331890
  16.9202530 109.4880486  57.1978092  18.0388129 109.4954777  56.1781263
  74.5092869  10.1578403  69.7633123  73.7826157  10.6663549  69.4033241
  74.6751547   9.4801199  69.1080141  37.8422046  16.3621283  54.5448017
  38.6860657  16.1533666  54.1441154  37.4035549  15.5160403  54.6339798
 113.4114552  82.8328514  81.2075520 112.9758835  82.5367546  82.0068264
 113.5099602  82.0398426  80.6806183  35.7411551  43.1312990  59.4929361
  35.1062822  42.4609566  59.2403316  35.5151558  43.3463335  60.3978777
  80.7255840  29.8583889  26.4588714  79.9660778  29.5548797  26.9561315
  81.4558315  29.7949386  27.0744562  62.1507645   1.1941619  59.8849630
  61.9980717   0.7250275  60.7052279  62.4186945   0.5144240  59.2665768
  52.3167372  24.5869064  56.6828537  52.8380871  24.5661044  57.4853468
  52.5513124  25.4161644  56.2662697  45.9982300  25.3596401  43.5992432
  46.2581635  25.0164247  44.4541550  46.7127037  25.1094985  43.0134201
  68.1994211  20.7146218   0.4191942  67.4007284  20.9310153   0.9003324
  67.9570543  19.9628738  -0.1215201  29.6204996   1.6356511  77.6916981
  29.8386717   0.8233800  77.2346973  30.3628969   1.7883973  78.2762909
  88.7125206  23.8055897  49.5569372  88.8272381  24.2001343  48.6924124
  88.3453846  24.5078230  50.0938892 100.9831524 111.4893055  14.7890627
 101.8128395 111.0908508  15.0518918 100.6647682 110.9328651  14.0782630
  64.5610189  15.4475391  22.2846127  65.3710461  14.9450350  22.1975613
  64.1051769  15.3129041  21.4537597  66.6428041  17.6367581  26.6058493
  66.4221191  17.7638721  27.5285459  65.9376812  18.0739844  26.1284995
  75.0865507  74.0318203  89.9364376  75.1236200  74.9823093  89.8295212
  75.8493185  73.8214636  90.4751110  85.0009060  11.3944316  29.8205423
  84.9666691  11.4467752  28.8653874  85.7588291  11.9265962  30.0625610
 107.9828072  86.4857483  67.4640846 107.8292942  85.5983067  67.7882862
 108.8805962  86.4676857  67.1326065  47.6129055  42.8890324  22.1466351
  47.6839066  42.8021908  23.0972385  46.8327713  43.4273052  22.0129037
  56.1620712 106.0718632  26.2573671  57.0683861 106.3709164  26.1838746
  55.8856487 105.9208393  25.3534794  38.7126875  46.1270952  36.6390920
  39.0956664  45.5923367  37.3344994  39.3215704  46.0383797  35.9058642
  65.0609684  18.0344748  34.3341446  65.0483608  17.3753846  35.0281715
  64.5622396  18.7688601  34.6921659  54.1717577  16.2807214  29.1235590
  55.0015831  16.2341368  28.6487436  54.3641233  16.8215692  29.8895311
  75.9758759  45.0882101  11.3235247  75.2026749  44.8295736  10.8220315
  75.8489323  44.6870613  12.1832907  70.9553432   5.8950979  29.1474771
  70.5220842   6.5543640  28.6053634  70.2500820   5.5139565  29.6705174
  86.9424915  21.5216875  33.7645388  86.1054897  21.6319919  34.2156506
  87.4435902  20.9338164  34.3298149  71.4796829  30.9783888   6.5022886
  71.8743324  30.3522611   5.8952904  70.5711222  30.6893945   6.5873653
   0.0024377  71.9073343  94.3636322  -0.4540472  72.3057652  93.6226177
   0.7884255  71.5185785  93.9798069  61.1853456  58.3467102   9.3763852
  60.5471182  58.6174345   8.7163824  61.1582470  57.3900795   9.3575531
  73.2802963  37.1733332  14.3788981  73.2764673  37.4908018  13.4758866
  73.4998655  36.2445641  14.3053281 105.5693436  36.7591143   5.0820619
 105.8545685  37.6726270   5.1012486 106.3335800  36.2761307   4.7675836
  51.8688869  16.5554035  12.9565525  52.5418139  16.0473955  13.4096849
  51.5004110  17.1226811  13.6337924  35.9423685  95.3728867  93.7197208
  35.9882736  95.7659149  94.5913029  36.4459133  94.5623875  93.7956429
  93.0508232  28.2611942  79.8353148  92.6984024  27.8665209  80.6329727
  93.9320278  27.8958178  79.7564459  89.8839760  49.3069792  10.8754694
  89.6403694  48.6494207  11.5270054  89.1050529  49.8561621  10.7866073
  62.1118879   0.6187515  19.1946423  62.8515863   0.7254407  19.7927177
  61.4274740   0.2166255  19.7295296 115.0160778  58.9711541  96.3430840
 115.9236610  59.1913173  96.5529712 114.9905145  58.9471188  95.3865272
  67.7637720  14.4747269  35.7075691  68.4690428  14.1108572  36.2427592
  68.1571007  14.5960975  34.8433971  60.0372076  14.8124862  15.5083191
  59.7002268  15.5492115  16.0181332  60.2508688  15.1896071  14.6548784
  75.1932240  33.0100989  29.0803671  75.4499865  32.7080345  28.2091236
  74.3100929  33.3598113  28.9619946 100.1274109  15.5148721  26.1877871
 100.3078175  15.2722597  27.0959830  99.5958233  14.7947431  25.8485770
  89.4562149 107.9888725  89.5951271  90.2441025 108.1781292  89.0855694
  89.5487213 108.5206604  90.3856087  77.1257353  17.0756102  40.5069971
  77.1680212  17.9197073  40.0576115  77.2705936  16.4290023  39.8162389
 109.6102333  13.9520752  36.5689373 110.4227352  14.4502449  36.6578364
 108.9372253  14.5235443  36.9386864  74.6374035  38.6297083   4.3890059
  73.9561605  38.1053925   4.8099902  75.0163507  38.0465364   3.7313271
  86.5193558  37.6977038  25.7057261  85.8125496  37.7517939  25.0625062
  86.0792351  37.7746892  26.5522504 111.4013863  99.5190620  86.6359711
 111.4228058  99.0292740  85.8138561 111.7916775  98.9262295  87.2782040
  95.7262325  38.1326580  25.1145840  95.2617550  37.5140548  25.6783366
  96.4930630  38.3926988  25.6250548  47.7723074  19.8123336  37.3753881
  46.9388390  19.5263660  37.0015049  48.1356478  20.4097366  36.7216849
  91.1882401   4.9025920  14.5961797  90.8074760   5.2973413  13.8116932
  90.4495525   4.4799408  15.0342882  86.2824821  34.3715382  23.2643580
  86.0800648  33.4685397  23.0197120  86.0669041  34.8847270  22.4856448
  87.1868420  83.1139851  81.0220337  86.4471531  83.0333519  80.4198837
  87.4864292  84.0166378  80.9138775  74.3835020  32.8489518  38.2072353
  73.7582207  33.5607076  38.0706382  75.2393675  33.2775378  38.2010317
  66.9998074  26.5295076  23.7313104  67.1817970  26.7895746  24.6343493
  66.8643236  27.3554444  23.2668734  25.5356956   6.1609715  87.7001858
  25.0256324   5.8566922  88.4508324  25.0000215   6.8522024  87.3109722
  97.7860641  62.4813795  22.4768710  97.2186661  63.1891394  22.1713042
  98.0338478  62.0121527  21.6802144  69.7919703   9.9333262  51.9866848
  69.9415779  10.7258272  52.5022316  69.2391968   9.3857211  52.5441837
  85.3305721   1.9062273  23.7695408  84.7798920   2.6816216  23.6611462
  85.1015091   1.5689436  24.6355677  88.4343624  55.2241230  19.3297505
  87.6891804  54.6286488  19.4094586  89.1435814  54.6765280  18.9930439
  31.3085628 110.7709885  37.8648424  31.5874052 110.2080917  38.5870814
  32.1082067 110.9315491  37.3638248  77.1329021  12.7129018  23.1306434
  77.6015043  13.5282564  22.9522085  76.2305403  12.9864049  23.2954884
  62.9362011  23.1539083  19.5295835  62.9923820  23.6149240  20.3665662
  63.2788563  22.2794437  19.7143281  80.0609875   2.7457339  13.4655941
  79.2428589   2.2968712  13.2524621  80.1429939   2.6561838  14.4150615
  99.1381741  31.4789081  37.3469043  99.2369747  32.4248481  37.4549246
 100.0278950  31.1611986  37.1929717  84.1599178  52.7008152  95.1530647
  85.0895596  52.8791666  95.2951241  84.1430759  52.0901775  94.4161320
  82.4874878  40.9584045   0.9356118  81.9588852  40.7735300   0.1593245
  83.3790112  40.7212114   0.6803511 102.4141693  92.0084381  95.2972507
 102.1208668  92.6510143  95.9432316 101.7861652  92.0869160  94.5791435
  89.3529415  47.6259041  13.2725918  89.8368359  46.8544292  13.5673881
  88.5595703  47.6300669  13.8080978  82.0475578  35.5562091  42.4225140
  81.1257267  35.7895613  42.5320911  82.0951080  34.6374536  42.6868248
  23.8333821  14.4683075  13.4218597  23.9275408  13.5929930  13.7976134
  22.9416585  14.7318316  13.6490571  68.7607670  23.7343287  11.6609371
  68.7957573  22.9589081  12.2210538  67.8385162  23.8119388  11.4166844
  38.3958864   2.0604579  94.4119740  37.8525877   2.5582364  95.0229454
  39.2770576   2.4145922  94.5317841  66.6944981  21.3932467  19.8140061
  66.8054962  21.0396004  20.6965280  67.0438910  22.2828388  19.8667598
  67.5635958  21.0877705  33.3503461  66.9259977  20.5411005  32.8911591
  68.3578491  21.0265565  32.8196430   7.8710675  86.2328097  96.4289687
   7.3182415  85.4753610  96.6210438   7.2566914  86.9614884  96.3406476
  76.3652277  41.4056683  17.5875592  76.4881659  41.1661053  16.6690135
  76.9153547  42.1795273  17.7089512  58.3334684  56.9844389  13.8085330
  58.4156513  57.9282761  13.9451063  58.0970287  56.6376448  14.6688008
  40.0109816   1.1695059  15.1783609  40.2666855   1.6656193  14.4007230
  39.1626740   1.5359461  15.4280186  73.0096912  23.6625218  19.5231211
  73.2641411  24.3501902  20.1384258  72.8759384  22.8887939  20.0705576
  86.4229298  34.0887499   9.1918123  85.8236885  33.3528781   9.0667695
  85.8552170  34.8591590   9.2120379  21.0740161  29.6837544  19.9208820
  21.1082935  30.2523804  19.1516483  20.3892970  29.0465808  19.7174025
  61.9140434  12.1312857  48.4537935  61.2378168  11.4671636  48.5875368
  61.9803762  12.5788224  49.2973232  94.0527534  41.3647985  11.0346067
  93.8962269  40.8390236  11.8190145  93.3619118  42.0272017  11.0484791
 118.0892467 103.2508564  91.5423298 118.2029724 102.9453945  92.4423218
 117.1450138 103.2062435  91.3917637  49.3740273  11.7480028  46.2313080
  49.9872780  12.4811232  46.1794233  49.4201469  11.3356590  45.3687096
  82.2469807  48.0825377  28.0634785  83.1295300  48.0886984  28.4340239
  82.3830318  48.1627131  27.1193933  69.5122623  32.7779770  17.7680624
  70.4412222  33.0070567  17.7960086  69.0567493  33.6184430  17.8166568
  66.7771626  36.6629148  20.8872485  66.0876560  37.2741628  21.1464548
  66.3209438  35.8335495  20.7449627  54.3352890 102.0646763  13.5077596
  55.0024271 102.7042866  13.7568593  54.3062019 102.1087933  12.5520194
  72.5822687  30.3411031   1.3752715  73.4802151  30.5030942   1.0859844
  72.2602892  31.1998820   1.6492414  64.2318916   9.5119399  44.3826342
  63.5806894   9.4422513  45.0807142  64.6913719  10.3316772  44.5646811
  65.4307222  20.8079910  13.5494256  65.5236197  20.3415346  12.7187526
  65.1421261  21.6859436  13.3001375 103.7212753  71.9313002  81.9828987
 103.9838505  72.5007057  81.2596703 104.5402718  71.7204857  82.4312687
  89.5530796  33.8503718  26.5932536  89.1068840  34.4603038  26.0057783
  90.2119923  33.4267020  26.0431886  15.8480358  11.1432242  14.8048842
  16.5332854  11.5585220  14.2812514  15.4598808  11.8615460  15.3044641
 108.0033100 105.8499381  95.2046370 108.5969913 106.5647027  94.9746811
 107.8759182 105.9388634  96.1491452  53.7566185  52.5846624  20.3868985
  53.4543371  52.8633976  21.2512851  54.4475603  53.2078791  20.1623297
  78.0846834  37.7443552  32.7049041  77.7664804  38.6248183  32.5055003
  77.2906017  37.2294259  32.8481507  28.6929107   4.2070553   6.0572362
  28.6918616   3.2505888   6.0946929  28.1595230   4.4766164   6.8049443
  84.7239113  26.0227323  51.7229366  84.1369343  25.4524660  51.2264633
  84.2619705  26.8598032  51.7693806  52.5814486  13.1333232  19.6268332
  52.9945183  13.4694207  20.4222226  51.7870331  13.6583281  19.5293140
  69.4059467  26.9565749  38.7071180  68.9357185  27.6195860  38.2016158
  69.7566938  27.4331784  39.4594884  74.9063396  33.9665484   5.8660173
  74.3344545  34.5685196   5.3897673  75.1840401  34.4600677   6.6377383
 101.9345570  79.5626116  87.3216248 101.1039734  80.0234222  87.2032261
 102.5853443  80.1329708  86.9124794  68.4590864   9.7221780   5.7839239
  67.6070356   9.3359864   5.9866512  68.9699078   8.9984441   5.4212910
 117.4666595  61.2118292  31.2774801 116.8309307  61.7894888  30.8551168
 117.6285744  60.5223370  30.6335711  95.7837677  32.9109812  31.2984157
  95.6592941  32.7875471  32.2394276  96.7292786  32.8352284  31.1699128
  86.0327911  30.6652927  33.9460754  86.8263245  30.7240152  33.4140134
  86.3016319  30.1766372  34.7240019  88.6437511  30.7805896   5.1081723
  89.3269634  31.3218975   5.5036944  88.8522339  30.7765198   4.1739628
  91.5567303  52.8067970  15.7316899  91.3082504  52.3010206  14.9579453
  92.5013638  52.9328632  15.6422269  73.9027023  49.2384720   6.7922437
  73.2668495  49.6009874   6.1753935  73.8882208  49.8431015   7.5341654
  80.5892563  42.3218012  37.7657318  80.1692009  42.8858280  37.1163774
  80.7024288  42.8828859  38.5329390  62.0588779  31.2563252  17.0328784
  62.6637554  31.5112495  16.3361943  62.1483994  30.3051329  17.0916295
  86.9395256  46.2265921  30.0396204  86.0907745  45.9985256  30.4188776
  86.8298340  46.0781765  29.1003799  46.1955690   0.8499195  30.8752036
  46.5758944  -0.0239888  30.9639120  45.4044199   0.8225739  31.4133191
  70.5714655  22.3717356  22.2798443  69.8785305  22.3334217  21.6206002
  70.2009296  22.9006982  22.9863358  95.3665257  33.7782288  28.6571383
  95.3180027  33.6900306  29.6090317  96.2811184  33.5911679  28.4455776
  42.9008913  42.4646902   9.1962832  43.3979940  41.9355726   8.5724586
  42.2701073  42.9414272   8.6567825  81.8274879  41.7790985  20.5208611
  81.1474514  41.2951374  20.0522876  82.4135017  42.0951939  19.8331809
  84.6503639  45.3162670  10.5790079  84.6642685  44.5512533  11.1541545
  85.1681805  45.9741735  11.0429704  88.0128479  16.5551937  23.9019251
  87.8637695  16.5881920  24.8468685  88.9280987  16.2894177  23.8129807
  28.1022429  24.1006041  72.4214792  28.6445045  24.8333216  72.1294022
  28.6986136  23.5475206  72.9261255  90.1836599  23.8085464   0.5398244
  90.5805255  23.5490659  -0.2916842  90.5260897  24.6870330   0.7048387
  46.6121244 107.0750713  28.9592290  47.1044779 107.2460461  29.7620916
  46.3930655 107.9440689  28.6229491  44.9497223  17.2266054  90.3002739
  44.9915981  16.7194676  89.4895458  44.9889517  16.5700936  90.9957504
  70.4644299  19.9009728  18.8957953  70.0332785  20.6663704  19.2759347
  70.9085560  20.2380443  18.1177413  99.8447704  36.4201474  36.1385655
  99.1712475  36.1660218  35.5076790  99.5121861  37.2268414  36.5320873
 104.5589638  30.0383258  12.0357466 104.0175438  29.5808530  11.3924646
 104.1802406  29.7984529  12.8814793 116.9879723  20.2205801   1.8975125
 116.3310242  19.5322561   1.7933147 116.7772961  20.6275129   2.7379009
  69.4242096  70.1665401  84.9644661  69.2120981  69.2847586  85.2705669
  68.5773897  70.6082630  84.9011517  63.4611082  17.9274774  43.4906435
  62.9211473  18.0889523  42.7169561  62.8641272  17.5208664  44.1187429
  72.3456049  36.2876654  27.1131587  71.9197798  36.8488479  26.4650965
  73.1947851  36.0758448  26.7255282  89.4798470  18.3986545  30.1831508
  88.6966038  18.8843954  29.9246788  89.1485691  17.5523710  30.4836273
 115.4310322  84.6051979  88.2937241 115.4454613  84.8910713  87.3803234
 116.3459778  84.6461201  88.5719872  60.2286005  19.9474204  26.8796206
  60.7842636  20.3189921  27.5647521  59.7808456  20.7027340  26.4985037
  96.3495827  50.2537346  30.8072782  95.5393982  50.6889486  30.5419159
  96.2030125  49.3299818  30.6037283 116.3707447   9.1410655  35.5124426
 115.5469799   9.3373972  35.9586477 116.9147396   8.7295723  36.1839914
 104.2921066  16.9790196  33.6420250 105.0934219  16.6212296  34.0242767
 104.3268299  16.7152083  32.7225518 112.2237778  46.7801046  16.6469622
 112.4578190  45.9110117  16.3211691 112.7036381  47.3851442  16.0813701
  57.2979498  48.9455032  18.4709513  56.5181971  48.7308407  18.9829457
  57.2262573  49.8860598  18.3083332  97.5625134  83.7098694  93.2633305
  97.7774620  83.6887264  94.1958427  96.8145275  83.1189346  93.1764984
 104.6419811  85.0622272  92.0338726 105.5279255  85.2703857  91.7372227
 104.7535324  84.3046856  92.6082706  28.2032514  20.8036971  16.5507126
  27.5468993  20.2577686  16.9836068  27.7650261  21.6440296  16.4164329
  67.3858118  45.0958776   6.4181983  67.6130676  45.1898003   5.4931223
  66.6444492  45.6881428   6.5440381  89.1977978  56.3897276  22.2929621
  88.6375999  55.7708788  22.7614117  88.9546871  56.2840271  21.3732028
  61.5728807  51.0138369  22.4632573  60.7384539  51.3178921  22.1061707
  61.3544369  50.6839800  23.3348703  82.1197891  39.9683523  33.3471441
  83.0352116  39.7554851  33.1656790  82.1048164  40.1865530  34.2790222
  93.8850594  58.9415407  88.4479237  93.7241364  58.9679480  87.5047112
  94.1276550  58.0325174  88.6241436  70.5019379  51.7973042   0.8531271
  70.6442976  50.8521700   0.9050117  71.3713741  52.1776867   0.9781140
  74.5055676   0.3430498  89.1780472  74.4382238   0.1016503  88.2542419
  74.8734713   1.2266724  89.1685009  19.4113493  33.3690310  58.6025620
  19.1875935  33.8385105  57.7989769  19.2018580  32.4546838  58.4120035
 102.1522045  45.3495073  11.2886345 102.4952030  45.1690769  10.4134035
 102.7786446  44.9345684  11.8816185  11.3728750 102.1315765  87.2282887
  11.3399649 101.6330528  88.0447578  11.4420748 101.4659786  86.5438747
  65.6936979   1.9220674  92.8540707  66.3501740   1.2344464  92.7424908
  66.0669947   2.5045276  93.5155964  96.1941528  56.4684820  58.2046366
  95.7328129  56.3669777  57.3721170  95.5080605  56.4000082  58.8685703
  94.2275906  88.9621067  25.4765511  95.1404953  89.0691376  25.7437015
  94.2725468  88.4466839  24.6712255  26.5240192   8.7229723  91.5736866
  27.1799946   8.6328733  92.2649193  25.8055425   8.1538886  91.8496609
  98.1271553  51.5235567  10.0623250  97.1839333  51.3629627  10.0901592
  98.5184574  50.7064056  10.3711534 115.5587387  30.8096766  23.3410788
 115.4943562  31.1845660  24.2194557 116.4987278  30.7750869  23.1637263
 102.3548794  36.8232608  13.4899211 102.3618984  36.7735767  14.4458044
 102.0070744  35.9770083  13.2086480  42.7628565  35.2777839   6.7805314
  42.1108770  35.7637596   7.2854829  43.6004877  35.6640339   7.0363003
  53.6320019   6.7914408  82.8052044  54.0608740   6.0012043  82.4768353
  54.1123581   7.0104754  83.6036491  94.7234344  40.8296204  21.8632364
  95.5174351  40.5044365  21.4389062  94.0928173  40.1154757  21.7707920
  61.0452461  22.4792266  28.0000210  61.4212322  23.2523584  27.5791478
  60.3109837  22.8184342  28.5119104   0.4656207  39.5859027   8.9939690
   1.1969363  39.1501641   8.5563076  -0.1313890  38.8751841   9.2278165
 109.7389221  45.2989292  15.6385422 109.7539902  46.2296534  15.4154658
 108.8304520  45.1266146  15.8859682  84.5675945  54.8234558  21.9235110
  84.9787235  54.3311405  21.2129974  83.7633801  54.3409967  22.1151280
  84.7963619  35.0056481  25.4404044  85.3659153  34.5015407  24.8592615
  84.5230675  35.7575297  24.9148440  82.4820518  31.0827684   2.7668729
  82.5852394  30.6271839   1.9313926  81.5530586  31.3106871   2.8022593
  54.9767876  26.7726421  75.9106779  55.8090258  26.7926025  76.3831377
  54.9003935  25.8711553  75.5980825  40.8328402   6.0760779  96.1363129
  40.3837216   5.9801049  96.9761441  41.5374338   6.6998667  96.3114077
  94.4235802  63.3298874  73.3337498  94.6781349  64.1358137  72.8844023
  93.8318634  62.8914118  72.7223206  74.3500614  24.9257684   9.3934619
  74.1919518  25.8142376   9.7126079  74.8785257  25.0452280   8.6043561
  82.8635120  64.5547295  17.2322214  83.6561108  64.0514183  17.4185121
  83.1507015  65.2384996  16.6270626  77.0054340  51.4357996   9.1371804
  76.1017323  51.7438269   9.0688372  76.9265032  50.5163527   9.3913925
  73.2562351  56.2308502  14.9324405  73.8235235  55.5891609  15.3598201
  72.3743486  55.8705378  15.0256050 107.1572304  64.9765158  39.6151042
 106.4456749  64.3549681  39.4614625 107.7694321  64.5048952  40.1799202
  69.8259497  18.8947415  34.3367124  70.1159286  19.7883558  34.5200062
  68.8726377  18.9592683  34.2795253 104.5176125  40.1197386  19.9703181
 105.0675297  39.3399096  19.8948979 104.0647507  40.1757574  19.1288853
  85.2338696  32.0221567  20.0416708  86.0322952  32.5501180  20.0405526
  84.6079636  32.5355458  20.5524564 116.7929649  13.7181461  38.7912011
 116.7299747  13.2378829  37.9656053 115.9079647  13.6869740  39.1545534
 100.0490856  34.1893268   2.3626329 100.0682640  34.7686338   3.1243870
  99.1886330  33.7717271   2.4009104   6.6910863  51.3937569  12.1230590
   5.9887910  51.8105602  12.6223469   6.2679970  51.0951614  11.3180315
  24.5078349 102.0085716  88.6932087  25.3615904 102.3100853  88.3826923
  24.5821810 102.0204163  89.6474457  56.7834377  43.8654280  14.0662980
  56.0394621  44.2275715  14.5475256  57.1663761  44.6180296  13.6155427
 107.8474522  63.3465910   2.8809908 108.0691147  63.2049513   1.9606432
 108.6365414  63.0920410   3.3593085  93.2708454  61.0649633  19.5395052
  92.4209118  60.7402325  19.2421961  93.2168770  61.0375977  20.4947901
  98.2523823  23.0884767  23.8793707  98.3872223  23.9259124  24.3229342
  99.0000248  22.5533223  24.1455793  80.1779175  61.0754061   8.1446719
  79.9936390  61.9373369   7.7713865  81.1313725  61.0479450   8.2247484
  95.0777149  66.1187887  38.2987666  95.6764889  65.5037498  37.8751826
  94.6281815  65.5963993  38.9630437  82.7143288  45.2725315  25.2237463
  83.6050987  45.4927111  25.4962921  82.3958015  46.0618973  24.7859359
 101.4425087  60.2496052  39.4217014 102.0207500  59.7798872  40.0227308
 101.9585228  60.3492451  38.6216807  80.0158310  64.8696327  17.4036074
  80.9070301  64.5226526  17.4435854  80.0549603  65.5538940  16.7354107
 114.7110558  34.3305063  24.0786934 114.5559406  33.5685349  24.6368814
 114.8085117  33.9668584  23.1986403 107.8884983  73.1285954  50.8471251
 108.3502293  72.7622509  51.6013336 107.7686501  72.3856211  50.2556372
  93.5012913  96.8206978  18.2334852  92.9496574  96.1770821  18.6781168
  93.7876797  96.3791084  17.4339736   9.2202568  92.7060604  95.8477974
   8.8921136  91.9379234  96.3152504   8.8992298  92.5969219  94.9526596
  16.5718842  58.2956648  35.8219838  16.1853933  58.1938314  36.6917467
  16.7908621  59.2257118  35.7645917  86.3148499  68.4125662   7.9215884
  85.5038738  68.7622690   7.5524461  86.0266590  67.7395439   8.5382032
  86.5135002  39.9028111  30.7662153  85.8636189  39.3544221  31.2057137
  87.2989750  39.8238540  31.3075256 101.5070820  43.3123779  21.2929177
 101.8583870  43.6208057  20.4576421 100.7307720  42.8059673  21.0538936
 100.3283882  76.5193987  20.0210524  99.3753529  76.5204144  20.1102138
 100.5053902  77.1623135  19.3343496  77.7717018  68.5139847   6.2066501
  77.6750803  68.2361937   7.1175432  77.4752426  67.7618694   5.6941432
  78.6451292  38.1473351  20.3725743  78.1712198  38.5333347  21.1092210
  79.1213894  38.8807964  19.9834132  98.0677700  59.6559715  30.5769515
  98.0951691  60.3985929  31.1802697  97.9643250  60.0534821  29.7123599
   8.1827211   1.3512053  64.9807882   8.5481852   2.0855659  65.4741287
   7.3591429   1.6867416  64.6267176  86.0973358  53.2498026  15.2226341
  85.2988243  53.4698153  14.7428370  85.8069515  53.1238604  16.1259866
  93.2600021  26.4745712  30.4974627  92.4418736  26.3878965  30.9867311
  93.9273930  26.6133475  31.1694455 113.3464241  38.7616014  30.9527993
 112.7377224  39.4416952  31.2412310 112.7850151  38.0264568  30.7065797
  47.4933577  84.3770981  93.7475109  47.5864697  83.5622597  94.2410851
  46.7818546  84.8431301  94.1866207 115.9147072  32.8398514  42.0418310
 115.1061249  32.7473307  41.5379667 116.1230373  31.9498444  42.3259354
  77.2210073  13.9793551  75.2574110  77.3710918  13.7126684  74.3504477
  76.6468382  13.3017755  75.6144142  56.6233778   3.4114802  92.8757477
  55.7354927   3.6987862  93.0886841  56.9732428   4.1072279  92.3191833
  70.6169128  69.3331385  40.3227520  70.0891113  69.7029448  39.6150088
  69.9761295  69.0261889  40.9641647 111.5580177  56.5393448  50.0532198
 111.3330269  57.3613262  50.4890490 111.2416172  56.6492653  49.1565323
 111.6391563  68.5539436  39.3011665 110.9743595  68.2946205  39.9391532
 112.0786572  67.7363586  39.0674639  22.2566509  68.9544296  89.5444775
  22.2632742  69.9088097  89.6176243  23.1292748  68.6861086  89.8321629
  12.2727394  54.4054508  60.4829931  12.4102795  53.9366293  61.3061047
  12.3241794  55.3306818  60.7228518  59.4740200  48.1251717  10.0099134
  59.0529728  48.3144379  10.8484411  60.3612804  48.4718561  10.1037693
  93.6336899  64.7538805  17.0628560  93.3872509  64.5728636  17.9699016
  93.6312866  63.8960171  16.6382444 105.4607391  69.5005322  23.1496716
 106.3896275  69.7221708  23.0842304 105.0047874  70.3184462  22.9512811
   5.6435114  75.2350092  39.0838909   5.8285058  74.3547392  38.7565756
   6.2300712  75.3401852  39.8329687  83.1281948  29.4426465  27.5645781
  83.6326504  29.6510983  28.3509016  83.2501507  28.5008812  27.4444366
   9.2064828  76.6428518  67.0439529   8.4384412  76.4041233  66.5249586
   8.9270550  76.5276861  67.9521847  92.3668289  61.2357950  22.1127367
  91.8297195  60.6289959  22.6221871  91.8393803  62.0325184  22.0555949
  62.4420071  22.9781795  76.8567085  62.1525526  23.4929085  76.1033821
  62.0529556  23.4192562  77.6119041   8.5342193  75.6893301  69.4943857
   7.8603864  75.0677204  69.7696733   9.2677927  75.1403141  69.2174721
 104.2989254  73.5392857  12.6158810 103.5446739  73.0375481  12.9250884
 103.9345455  74.3869638  12.3611152 104.9349785 102.0397663  87.7677059
 104.9255276 101.0833263  87.7309036 104.8108673 102.2450352  88.6943626
 114.8761272  58.2078838  13.6144817 114.3227100  58.5900688  14.2955840
 115.4109097  58.9379835  13.3027256 109.7181892  59.4721270  13.7710989
 109.3068027  59.8681355  13.0028713 109.5687008  60.1033592  14.4749677
  92.8265095   1.3531655  94.7481441  92.1335602   1.9494948  94.4645119
  92.8226471   0.6535257  94.0949059  80.4292965  80.0959682  26.9579387
  80.2409458  80.9160423  27.4142599  80.9249210  79.5775223  27.5918198
 101.2548542  44.0613747  16.0409880 101.7383480  43.7345791  16.7997241
 101.3222122  45.0139713  16.1061978  97.3817730  69.4727182  32.1019006
  96.8167019  68.8931227  31.5910196  98.0835247  68.9043522  32.4192739
  96.2460423  22.4332857  26.8500543  95.7159424  22.4682379  27.6462936
  95.6090164  22.4685144  26.1364746  95.0548553  43.4000826  28.0279183
  95.2163124  43.7759686  27.1625423  94.1020393  43.4091473  28.1190085
  91.6330719  55.2730751  27.8314757  90.7975769  54.8382139  27.6609373
  91.8024158  55.7850599  27.0406365 109.4695950  45.8412504  11.3054132
 109.3972015  45.6948423  10.3622508 110.2484512  46.3889265  11.4036942
  77.8921986  19.9734056  13.8512826  78.7594557  19.6344507  13.6294508
  77.8994656  20.8763051  13.5335529 102.1691990  93.7842655  81.5990353
 102.6442623  93.4704304  82.3684883 101.7068672  93.0126381  81.2718105
  96.5151691  62.2082186   3.5176960  96.2598133  62.2743654   4.4378310
  96.9163895  61.3424540   3.4421220  92.3748684  71.6297436  30.9766436
  93.0400181  71.4159250  31.6309333  91.5817070  71.1955976  31.2906981
  85.8251762  45.2718735  17.0949042  85.8359051  45.5127239  18.0212462
  84.9019432  45.3173256  16.8462956  96.9998360  47.3918867  19.0936291
  97.8480911  47.5299883  19.5150757  97.0767498  47.8361464  18.2492650
  85.5312347  62.6555014  24.6940494  85.4904366  62.5876951  25.6479740
  84.7067642  62.2748566  24.3913984  82.7781868  40.1323509  26.3260341
  82.6487732  40.9560585  26.7961335  83.6517334  40.2101469  25.9425163
  77.9903603  32.8896856  11.1388862  78.1050253  32.1205711  11.6970503
  78.8089228  32.9526305  10.6467223  94.1228008  35.3781986  24.1373587
  94.9247360  35.8792019  24.2861176  93.8597202  35.6064224  23.2457662
 106.6142750  62.5765753  94.4732761 107.3806572  63.0915308  94.7256851
 106.7583370  61.7199183  94.8752975  14.7044039  62.9734945  51.6608238
  14.4213951  62.1169567  51.3406944  14.5091391  63.5744095  50.9417915
   2.0281480  54.0253973  30.5099201   2.8767398  53.6793375  30.7862592
   1.7570150  53.4511328  29.7937250 100.0597572  17.7658629  38.3470511
 100.5970478  18.5449815  38.2038116 100.2127838  17.5344992  39.2631745
  84.4027042  85.0604630  14.5771241  83.6795902  84.6160412  15.0196517
  84.1122627  85.1445770  13.6689377  97.9882526  19.9108565   1.4082886
  97.6392078  19.4328403   2.1605514  98.9294338  19.9643874   1.5742467
  80.4951859  27.9001617  37.3065090  79.6653175  28.0359411  36.8492126
  80.2997589  27.2328687  37.9643536  77.4863195  49.6878338   3.3223048
  77.0707130  50.2166033   2.6411980  77.1591854  50.0549650   4.1435400
 100.2887917  46.7501593  16.2033820  99.5729351  47.2808361  16.5528858
 100.1319218  46.7282486  15.2593780  93.7022591  59.4528675  48.0157900
  93.3382797  60.3343678  48.0976963  92.9423237  58.8736868  48.0730343
   4.4313934 100.4783630  78.9177275   4.1791236 101.0671616  78.2064533
   4.2825153 100.9876156  79.7144222   1.7406118  44.2541552  12.7159262
   1.6581440  44.7631311  11.9094682   1.6457196  43.3439064  12.4354315
  32.9315996  20.5884671  90.1549530  32.3687601  21.3341212  90.3633785
  32.3525047  19.9673522  89.7132587  98.3744240  69.9591637   6.1935484
  97.9540157  69.1237402   6.3973755  99.1847992  69.7164965   5.7456172
 108.5967636  47.3083496  55.0619459 109.0612221  46.5101290  55.3136539
 107.7605152  47.2548771  55.5246115  98.9913845   7.0923781  29.3356633
  99.9064636   6.8679297  29.1668868  98.7107277   6.4671206  30.0038838
  85.4357719  66.2982798  18.2228565  86.2569046  66.0340738  17.8079355
  84.7661400  66.1232090  17.5616622  79.7912598  83.2506275  15.2642643
  80.2294731  84.0546322  14.9853778  78.8593102  83.4303856  15.1401842
 108.3662224  58.2505322  10.6621587 107.4116135  58.2695150  10.5943680
 108.6152077  59.1653252  10.7940459   8.1554633  96.4154243  94.1762733
   7.2986835  96.2588215  94.5733070   7.9845649  97.0500374  93.4803677
  51.7325830   0.9045632  82.9609203  52.4141359   0.8111990  82.2953415
  50.9268475   0.6391869  82.5175285  90.1725292  70.2296019  27.0201349
  89.6801758  70.2002859  26.1997938  90.7038498  69.4334793  27.0091677
  68.2383442  43.6275148   8.3645332  67.6039553  42.9127932   8.3101875
  67.9666853  44.2412996   7.6821095  97.9919243  37.5833321  39.9591994
  97.7927589  37.1149087  39.1485572  98.7065792  37.0843148  40.3547812
  83.3091068  55.0183868   4.6814567  83.3839226  54.3847656   5.3950095
  83.9103699  54.6954250   4.0103367 113.9308739  38.2065535  20.2065969
 113.4499073  37.4129558  19.9718392 113.3583450  38.6592293  20.8258915
   6.4577830  49.8706770  29.6456766   7.0007998  50.6529045  29.7430849
   5.5590469  50.1930714  29.7132540  40.8265209   5.6761712  82.6794434
  41.2841606   5.2578956  81.9501686  40.8077526   5.0084329  83.3650208
  18.9476609  85.0747204   7.0778561  18.7181306  86.0039520   7.0870566
  19.6202683  85.0008488   6.4008230  39.8939228  35.6910610  85.4580593
  39.8273921  34.8757935  85.9552002  40.0496340  36.3637853  86.1209583
  26.5269423  33.1834173  93.3143997  27.1862292  32.5242925  93.5314846
  26.7506075  33.4625459  92.4265480  51.6318130  65.1677942  22.6123977
  51.5503454  65.2001095  23.5655761  51.8210030  64.2495871  22.4191761
  66.6083288  27.3064661  66.5991259  66.5542698  27.3693871  67.5527239
  65.7212687  27.0751953  66.3236809  92.9185200  36.7277932  18.8996506
  93.5690022  37.4246788  18.8132989  93.3626080  35.9441543  18.5757327
   9.7429675  60.4175568   6.5783334   8.9111197  60.8834362   6.4933944
   9.5979202  59.5846367   6.1295086 112.1815205  19.5524037   1.4686128
 112.7551079  20.1975870   1.0551344 112.3376751  18.7446630   0.9793267
  61.0334015  12.8264558  88.4128380  61.3083601  12.1284413  89.0073204
  60.9123325  12.3893309  87.5699329   0.1323057  78.4090281   1.3131732
   0.5261973  79.2292356   1.0159494  -0.0047124  77.9047060   0.5112271
   1.9588532  40.7044077  20.2264261   1.1504649  40.3088284  20.5524015
   2.0522679  40.3608751  19.3378949  93.6372566  51.5271997  21.7471647
  94.1083813  51.1874294  20.9863544  93.3467102  50.7458115  22.2175407
  98.7379265  22.9784465   8.0620205  99.4933605  23.3318567   7.5922889
  99.1173267  22.4875617   8.7909341  97.0025635  47.4151134  11.1525500
  96.4855671  46.6101980  11.1199713  96.7778778  47.8101587  11.9949794
   3.6349523  64.5967388  24.5512938   4.4041729  65.1650953  24.5125151
   3.7101820  64.0387297  23.7772155  83.7387371  40.7589912  63.8146448
  82.8858852  41.1368275  63.5998917  83.7817478  39.9550366  63.2969189
   9.1766256  68.3307457   9.6464932   9.7751570  68.2160091  10.3846180
   8.4511310  67.7343655   9.8314840  78.3811331 110.6564999  24.1335583
  77.5980902 110.1300335  23.9726090  78.6031199 110.4821777  25.0481963
 102.8272915  52.4617624  21.9444180 103.0782318  53.3158302  21.5925264
 102.1848106  52.1248198  21.3199806  97.6314068  54.9077559  30.4057741
  97.2116089  54.1307259  30.7748532  97.2067642  55.6425238  30.8485246
   2.8707191  78.8418818  52.1880913   2.6859272  78.1368971  52.8086376
   2.2481588  79.5319271  52.4171877  99.8821831  70.9981012  25.3859472
  99.2920303  70.4724932  25.9260345 100.4917717  71.3914633  26.0103655
 109.3386841  89.2961121  18.7850249 109.4224644  90.1850891  19.1298985
 108.7519741  88.8551426  19.3994713 108.3697414  66.6048145  20.6036854
 108.2051373  66.4268160  21.5296745 109.1533661  67.1544981  20.6010604
 118.0212593  77.8244114  37.9665112 118.4646797  77.7794123  37.1194100
 117.8362465  76.9119406  38.1887770  91.6287708  31.8458438  25.7721543
  92.4082470  32.3981047  25.7116175  91.4728355  31.5524077  24.8744845
 112.5625229  44.4862556  11.4083433 112.3378849  43.9947557  12.1984053
 113.0733490  45.2306223  11.7264760  68.4684181  87.5916100  21.3625765
  67.9780102  87.3588085  20.5742002  68.7809706  86.7546272  21.7061043
  84.9027824  74.5682240  58.2064533  83.9576530  74.7056627  58.2702637
  85.2055550  75.2569389  57.6146507  44.9599600  27.0988488  77.5865507
  44.4550323  27.8682876  77.8496885  44.3829250  26.3583350  77.7733564
  61.1553335  88.1123638  27.4773693  60.8212233  88.1710339  28.3724451
  62.0660639  87.8359509  27.5793028  60.9058762   4.6423516  87.2858715
  61.0026646   3.9304453  86.6533756  61.3286638   4.3160969  88.0802536
  86.8649101  61.5318060  19.4910586  86.6785336  61.5737343  20.4290009
  86.1614609  60.9916735  19.1309917  83.1726646   3.2019001  73.2060862
  83.8364887   3.8847584  73.3023643  83.4711266   2.4952903  73.7786722
   7.5842935  18.4864783  18.5416198   7.0975184  19.3087840  18.4859979
   7.9070491  18.3386075  17.6526904  97.0734692  80.6572533  17.4626386
  98.0204678  80.6218433  17.3278427  96.7017269  80.3905678  16.6218543
   1.0686345  95.3867054  55.6975842   0.8039808  95.4525185  56.6151142
   2.0199129  95.2852631  55.7293844 102.4229050  76.2934208  25.6892037
 101.7354107  75.6950426  25.3967571 102.8132057  76.6236210  24.8799682
 113.4936047  89.8430920  17.0418525 114.1766739  90.0589466  16.4069903
 113.8576508  90.1107883  17.8856790   4.1639039  59.7295284   7.8031856
   3.5054997  60.4191017   7.7181584   4.9591702  60.1895189   8.0718780
   8.2755464  37.9957795  75.6994772   7.3347658  37.9187870  75.5406141
   8.6115295  37.1069956  75.5836725 108.9029026  67.4322844  14.7340453
 109.8385620  67.2349739  14.6912050 108.8559246  68.2723045  15.1905417
  50.1301003  49.2056942  94.0835571  49.7697258  48.5139990  94.6384621
  50.9945917  49.3838453  94.4538975  98.1987572  57.4070930  39.4536710
  97.6934624  56.8962383  40.0860786  99.0960598  57.0881796  39.5504808
 104.9485874  63.2215977  39.0635777 104.2950821  63.2987452  39.7587061
 104.5959663  63.7453222  38.3441329  98.1215000  73.4847832  19.4945276
  98.0236816  74.0207958  20.2815175  98.4153938  72.6337147  19.8193991
  63.6739016  69.1240835  20.0944471  63.5464764  69.8965025  20.6452298
  64.0871286  69.4619989  19.2999089  88.4360409  83.9133644  19.5159554
  88.6335182  84.0814114  20.4373670  89.2829704  83.9755917  19.0742838
 102.6873970  60.9124947  31.8006539 101.8216515  60.8293104  32.2004032
 102.5101280  61.0263538  30.8669281  83.5428429  40.9191227  30.1582217
  84.1944981  40.4824305  30.7067418  83.4685802  40.3609848  29.3841410
  68.0680525  18.2680506  96.3846383  68.4367907  17.3938794  96.5114963
  68.8216841  18.8558430  96.4373080 111.0864830  90.8726311   0.1354519
 110.5815220  91.0105419   0.9368435 111.8666363  91.4158249   0.2474703
  87.1688557  68.4616566  68.2453680  87.0207596  67.5160074  68.2521391
  87.9630566  68.5759783  67.7234316  90.7785511  62.1062708   7.7243173
  91.0574055  63.0219269   7.7183050  90.7090282  61.8709898   6.7990917
 101.3429928  30.8130741   4.8853019 101.8021679  30.1130009   5.3492993
 102.0409393  31.3442755   4.5019919  78.4657097   8.0640537  85.7532597
  79.0095425   7.8146362  85.0060940  78.1442690   7.2332358  86.1034775
  74.0434074  72.2665787  11.6119051  73.2733917  72.0607233  11.0818768
  74.2257023  71.4594507  12.0930946  88.5590839  77.9369497  27.3727989
  89.2332935  78.5819340  27.5865126  88.8506603  77.1337700  27.8042102
  71.3521290  26.4335060  92.7698708  71.6304731  27.3262453  92.9742622
  71.1965799  26.4414263  91.8254280  94.2330551  37.4604940   8.2306659
  93.8481045  37.6004839   9.0957946  94.4829655  38.3359814   7.9352009
   7.5868416  49.1216612   8.5147041   6.9978052  49.2562246   7.7723026
   8.0533040  49.9527216   8.6040473  35.0779366  22.0590091  73.0639267
  34.7716403  21.3876581  73.6736012  35.5402398  21.5708470  72.3826027
 105.3119469  43.4690762  35.5953479 105.4866219  43.7210512  34.6885777
 104.4325829  43.0916023  35.5738926  76.0101604  21.5736628  81.0988235
  76.0547161  22.1501637  81.8616390  76.8856716  21.6170740  80.7143307
  84.6704769  59.5559692  44.5983171  83.7384510  59.4166088  44.4306040
  85.1083851  59.2061996  43.8223457  99.1879845  65.8907223  27.5433540
  99.2396069  66.1550426  26.6248226  99.3175030  64.9424601  27.5273514
 116.1250114  51.5977526  52.4440384 115.6978893  52.4513149  52.3717499
 116.9067097  51.6739845  51.8968868  44.8381853  12.3984051  88.6203194
  44.0899515  12.6001012  89.1821861  44.8519325  13.1065047  87.9763985
  69.4904280   3.9147821  94.3415070  69.4095087   4.2899522  93.4646130
  69.8572063   4.6222454  94.8717880  15.5229831 109.3095398  24.2357635
  16.0449398 109.9163723  23.7108421  15.4194164 109.7503185  25.0791025
 109.8860455  74.1181278  43.0601692 110.5985832  74.2718267  42.4397612
 109.1041088  74.0434837  42.5131559   9.8478329  55.4685068   3.2058537
   9.7587228  55.0749636   2.3378581   9.8161769  56.4116669   3.0456093
  98.3306980  39.9105024  12.5060368  99.1572285  39.4308472  12.5608122
  98.5902500  40.8167887  12.3401654  34.9297071  48.6470127  89.5767689
  34.2830300  49.2966413  89.8524952  34.7659707  47.8915167  90.1412582
   4.3874192  97.4643517  83.3706665   4.6973571  98.2625008  82.9427338
   3.7576798  97.7713490  84.0229034  89.9855232  16.5419364   1.1114300
  89.0353203  16.5385842   1.2269005  90.1365852  17.1487582   0.3867387
   2.4800268  73.0493593  27.7516580   3.1477553  73.3412170  27.1310210
   2.5875053  72.0989752  27.7897692  85.3863621  48.7104464  95.7391453
  84.6301460  48.5922194  95.1643467  85.0235081  48.6689186  96.6239262
  88.1220722 104.8847198  14.8329318  88.2769203 104.1526508  14.2360079
  88.8258266 105.5041504  14.6398950  12.8271437  74.9010515  20.5551291
  13.5851359  74.7338390  21.1152387  13.2033348  75.1680136  19.7164154
   2.4092273  63.3145905  41.3233376   1.6271962  62.8500271  41.0252714
   2.9391432  62.6417685  41.7508125  73.7877607  59.3943977  12.5137722
  73.1495380  60.0423622  12.2153699  74.4836664  59.4236517  11.8571949
  21.5142155  51.1682653  94.5923138  21.2816119  51.3064146  95.5104828
  20.6911016  50.9201193  94.1714382 107.9125977  62.8221369   8.2112473
 107.2516918  62.3392582   8.7074906 108.3029652  62.1675253   7.6321745
  27.1595287  69.0210295  11.9226015  27.9601955  69.2609501  12.3890805
  27.2476149  68.0813026  11.7632663 109.9635315  79.1026735  32.9679608
 110.2757359  79.5609760  32.1877551 109.7555256  79.8009539  33.5887456
 105.6707764  41.2838078  31.9070673 105.0981712  42.0292330  31.7262483
 105.3072453  40.8892965  32.6998115 112.0911026  80.6190205   2.2245282
 111.3081264  80.0911713   2.3812380 112.6415062  80.4648590   2.9923302
   7.8655577  53.0032587  64.0226316   7.5241172  52.8364944  63.1440878
   7.0868832  53.1631327  64.5558643 100.9777451  64.8158169   1.0508820
 100.2627182  64.5330715   1.6209899 101.7128372  64.9661446   1.6452502
   0.2480040  51.9695997   1.0807174   1.1421458  51.6280174   1.0727798
  -0.2626025  51.2938261   1.5266334 103.0271816  56.7867136  34.3438387
 102.8327084  56.2411594  33.5817480 103.6812496  57.4114323  34.0305471
 110.6377220  71.1585712  37.3664451 111.3698959  71.1027479  37.9804754
 109.9660969  71.6506720  37.8386664  40.9282589  85.5396271  87.6904202
  41.0923290  86.0817337  88.4620667  40.8813429  84.6462631  88.0309010
  92.3066044  61.0640335  50.9327316  93.0591393  61.5042734  51.3278389
  92.4676609  61.1136246  49.9904823  15.6301081   9.9997258   7.2464132
  14.7710133  10.3644216   7.4589819  15.7625365   9.3062824   7.8928113
  98.3730125  67.8180027  48.5446501  98.9877796  68.3059502  49.0925598
  98.5325813  66.9001770  48.7645721  63.3026838  38.1184173  13.0254602
  63.5632467  38.8844919  13.5367990  64.1243172  37.7720213  12.6773882
  76.5555620  15.4683399  88.2156754  75.8985901  15.5899811  87.5302315
  76.3196373  14.6377742  88.6288738  54.4682360  50.4299164   6.6416931
  55.2460957  50.7804632   7.0756078  53.8508844  50.2639437   7.3541254
  96.9332600  85.3927422  26.8409538  96.4093876  84.8213387  27.4024606
  96.3146687  85.7187366  26.1872673  87.4540138  88.5945320  24.1578650
  86.6417027  88.2326508  23.8037014  88.1414318  88.2317162  23.5992479
  88.9437771  64.5482874   1.3254640  88.8279915  63.6745024   1.6987237
  88.8936806  64.4130754   0.3791868  90.5104446 100.4774284  21.5696144
  91.4036846 100.1359272  21.6112900  90.4150677 100.9967232  22.3680305
 104.9136066 106.9057083   7.0032322 104.4165897 106.8322372   6.1884880
 105.5867577 106.2286186   6.9350469  64.8609972 101.8661690  87.2698689
  65.5124760 101.2039280  87.0391178  64.0193319 101.4270687  87.1473217
  70.2707005  96.4887905   9.9860263  70.4900026  97.0891380  10.6985724
  69.9512196  97.0562553   9.2844927  92.8269768  62.1217966  33.5045099
  92.3881435  62.2791004  32.6684999  92.4652767  62.7842140  34.0932441
  76.3804340   5.3469944  12.5511825  76.9826031   4.9096751  11.9492030
  76.4904070   6.2793863  12.3646796  19.8308861  94.5194626  83.4080505
  20.2208185  95.2527046  83.8840103  18.9028311  94.7440052  83.3407688
  66.5170240  71.9424582   1.0750964  66.1594200  71.7864466   1.9491747
  66.5997124  72.8942823   1.0165240 115.6645775  73.7654877  14.9556279
 116.2328434  73.0694056  15.2854371 115.0731564  73.3234167  14.3465126
  29.3048286  55.1235533  47.4420404  29.4194317  55.3443670  48.3663464
  28.6194062  54.4554090  47.4386072 105.7646084  76.3559628  15.3494930
 105.4707336  75.4779816  15.1065624 106.2921524  76.6463709  14.6054602
   6.4866257  55.1331329  27.5894237   6.1637068  54.2451525  27.7425480
   5.9204239  55.6894588  28.1243491  22.8686643  56.4435625  26.4012194
  23.3241796  55.6154060  26.5525150  22.2753382  56.2609386  25.6726289
  86.5931225  41.6891623  15.4311156  86.8848991  42.3984194  16.0038733
  85.8403111  42.0523405  14.9646163 104.5172787  66.2858820  39.5851636
 105.3745270  66.4314795  39.1849494 104.7031498  66.1821461  40.5183983
  61.4025497  78.9034033  22.1894360  61.6803217  79.0667629  21.2881112
  62.2118473  78.6922693  22.6549387  38.1365204  11.0433888  80.3589344
  37.6961660  10.2224433  80.5788708  38.9930558  10.7742906  80.0270271
 106.4459229   5.1891208  92.8929520 106.8992138   4.8616722  92.1160793
 106.3285351   6.1242080  92.7254295  84.7610092  58.3865595  17.1775711
  85.6774807  58.3100510  16.9121170  84.7397327  59.1565132  17.7458572
  71.6851425  21.4228916  71.2183571  72.1043062  21.6359138  72.0521164
  72.2806597  21.7714334  70.5549479 114.8538494  65.5482149  20.8105135
 115.1229572  66.3096428  21.3243628 115.6743813  65.1722288  20.4917693
  69.0579224  28.0950570  84.2892075  68.4725809  28.2469797  85.0311852
  69.6316147  28.8611722  84.2759418 106.2870502 100.4768467  33.6618447
 106.6482639  99.7673512  33.1304693 106.1710644 100.0907326  34.5300007
  99.9060440  22.0294094  10.8136082  99.5298100  21.2868309  11.2861085
 100.0310993  22.7012515  11.4838457 112.0124817  70.8777332  30.3114581
 111.4900494  70.1606512  30.6707549 112.4510193  70.4967594  29.5506811
 105.0342178  73.6973906  15.2836156 105.0806427  72.8730345  15.7678866
 104.8471737  73.4354019  14.3821669 116.7516708  95.3621769  63.5176325
 116.3337517  94.5079041  63.6262131 116.4178944  95.6875706  62.6816034
  67.5800657  14.5010960  68.6525583  66.7472458  14.3683195  69.1053343
  67.8759861  13.6180210  68.4315586   9.8175770  75.0402164   7.0348632
   9.7918564  74.1527891   7.3926932   8.9516568  75.1673603   6.6472453
  56.0405970  29.2525077  88.7226772  56.1078691  28.6814713  87.9574108
  56.4057636  28.7351131  89.4404411  71.4864016  72.8598690  39.3521214
  71.9092512  73.0509377  38.5149097  70.5714893  73.1086111  39.2206335
   0.8249842 105.8226109  95.2793026   0.0454890 106.3411808  95.0800514
   0.4829203 104.9718094  95.5538464  81.0762691  19.2683220  19.7837102
  81.4083767  19.8337722  19.0864277  81.2348652  19.7619414  20.5883336
  86.8102646 103.6809826  31.8231964  87.0369530 104.4202042  31.2589169
  85.8891201 103.5061646  31.6304302  81.3269043  16.1279690  84.2205715
  81.2830925  16.2499225  83.2721806  80.6481457  15.4802895  84.4103718
  97.2743511  67.5619030  65.4479504  97.7832699  67.4658251  66.2529325
  96.4448071  67.9448652  65.7333040  90.4714489  72.6987743  42.2572136
  89.8879051  73.4571266  42.2324991  90.1331139  72.1594143  42.9719591
  10.4792380  62.9472589   2.2409679   9.6704763  63.4499693   2.3380254
  10.8227050  62.8718948   3.1312391  94.7487545   5.9965950  91.6183472
  95.2719593   6.2971634  92.3614120  95.3928661   5.7757634  90.9456062
  -0.0208105  58.1434202  16.7074096   0.4682910  57.8691196  17.4831486
   0.1405989  59.0847063  16.6429353  14.0322614  81.6745949  78.8083601
  14.4741881  81.4703846  77.9842043  14.3036115  82.5700665  79.0101624
  16.3949406  80.6205845  16.5437400  16.5673792  79.7263098  16.8383157
  16.0680771  80.5194473  15.6497800 100.4126549  65.9108162  13.2190418
 101.3170052  65.6705284  13.4206450  99.9713993  65.0753880  13.0654848
  76.6073561  66.3312197  33.8062549  76.6123152  66.8492079  33.0013323
  75.8099699  65.8049536  33.7475014 100.9504604 106.2374401  89.1926765
  99.9943066 106.1948395  89.2069435 101.1803150 106.1504459  88.2675648
 101.7393398 103.2176685  11.7788446 102.2055340 103.2344532  12.6146722
 101.2814903 102.3770714  11.7768121 104.3910885   2.4476440  10.9196186
 104.2587471   2.8612578  11.7726362 105.1555252   1.8847972  11.0423708
  70.9771061  79.5153999   8.2797158  70.1497889  79.6923256   8.7274605
  71.5074110  80.2961826   8.4390193   2.6246110  55.7125235  26.1561728
   2.4660875  55.8293724  27.0928955   1.9238347  55.1287937  25.8656478
  78.7347984  82.8712368   7.3182696  78.1867361  82.9828644   8.0950582
  78.1243038  82.9325771   6.5835828  -0.0184358  69.0323210   7.5342792
   0.5783164  69.7807026   7.5276268  -0.2202714  68.8951445   8.4598482
  90.1804638 106.8735695  14.1741955  91.1012554 106.8555069  14.4350731
  90.1712990 107.3814678  13.3629036   2.9405722  50.5265284  14.0347934
   2.1715879  50.3343582  13.4981692   3.4923884  51.0732508  13.4754825
  92.6279259  94.7926712  34.5315123  93.0666065  95.6356907  34.4169950
  92.0817566  94.6989059  33.7510347  42.0197392  93.2831573  84.9935055
  42.8108120  93.1791401  85.5222893  41.6776705  92.3943996  84.8968601
 113.2772923  36.0735726  45.4067898 112.9471970  36.6189671  44.6927834
 114.2247677  36.2090278  45.3933096  96.5674019  77.9136944  56.6247606
  97.3733997  78.0171967  57.1306086  96.0358334  78.6732006  56.8631124
  39.0088773 109.6221924  58.2450056  39.8861647 109.2494965  58.1572676
  39.0777087 110.4920197  57.8514290 104.5506382  75.1143265  23.8237906
 104.8378086  75.9968090  24.0583038 105.3626251  74.6300840  23.6741042
  32.8988218  88.8835621  94.6349525  33.4018731  89.5528507  95.0988770
  32.6777887  89.2884922  93.7962627  52.8652668  17.4909115  90.7206917
  53.0623960  16.5924287  90.4559231  52.9056358  17.4731600  91.6768837
  20.5096078  64.1879654   8.5745466  19.6883535  63.8342667   8.9161104
  21.0662198  64.2893553   9.3466443 116.6965675 106.1639023  78.9065170
 115.8271980 106.0432720  78.5245895 116.9192886 107.0743370  78.7122536
  11.4508641  54.5388794   8.5481900  10.9855032  55.3152132   8.2367897
  11.8551409  54.1707611   7.7625173  90.2500916  62.6774693  25.7511520
  90.2765846  62.5628757  26.7010999  89.8592281  61.8676615  25.4230237
  76.5041018  61.4257669   8.5401797  76.6940069  61.8118286   7.6851231
  75.5674362  61.5758801   8.6680508  94.9479103  60.2252340  53.2167339
  95.0537205  60.5709791  54.1030169  95.0255489  60.9923601  52.6495266
  93.4568787  40.1463461  13.4023309  93.4434795  40.8823156  14.0142131
  94.2661572  39.6784520  13.6081576 116.3348103  92.4295235  93.8851070
 115.6782436  92.8525734  93.3317852 116.7703342  91.8049049  93.3051014
 115.2045918  52.4518585  41.9082880 115.3226566  53.3693981  42.1540976
 114.8971081  52.4842453  41.0024023  97.8253078  67.2204638   6.5597117
  97.3209286  66.6603708   5.9696937  98.5890770  66.6937876   6.7953247
  14.5934355  57.8151989   3.8153329  14.8868966  57.4847507   2.9662648
  14.9665606  57.2052383   4.4516984 100.2033234 100.2296066  61.3216972
 100.1151943  99.2764854  61.3171005 100.1733780 100.4684448  62.2481346
 100.7027626  38.7567234  12.4020255 100.3525925  38.2193756  11.6914833
 101.4165020  38.2343435  12.7679825  12.6082516 104.6287823  86.4408112
  12.1996415 104.0881252  87.1168041  12.0653534 105.4162407  86.4033127
  43.9933920   8.8587832  80.7840729  43.1300974   8.7055880  80.4000378
  44.4845390   8.0590111  80.5960178  91.8746185  43.3817530  21.0920334
  91.9077778  44.1699600  20.5499387  92.0098877  43.6992455  21.9848561
  21.6752601  46.2566996  16.8264270  22.2046065  45.4969263  17.0688581
  21.2084484  45.9814453  16.0374057 113.2484913  39.6278763  45.9715605
 113.0394268  40.3696775  46.5392399 112.4004364  39.2292237  45.7763195
 111.5632343  95.8684349  12.5587153 111.3349915  96.7966747  12.6087761
 112.3057270  95.8365536  11.9554555 101.7954290  81.1893174  95.1711086
 102.6887882  81.4271685  95.4192303 101.8626249  80.2813765  94.8755456
 102.2128391  41.3379240  39.7720385 102.4861240  42.2321129  39.9769115
 102.2816372  41.2788296  38.8191438   2.3321562  63.2535172  52.4503899
   1.7970094  63.6601686  53.1319237   2.7223945  62.4900723  52.8759480
  74.7783756  29.1297197  88.8020420  74.2010403  29.7188663  88.3164215
  74.2868662  28.3107591  88.8649178 104.8647213  96.1067104  50.6215763
 105.0457573  97.0258617  50.4250431 104.2876339  96.1341286  51.3847637
  42.3486042 108.5281086  91.3297272  43.1982470 108.0877972  91.3514042
  42.5512695 109.4481945  91.4988518  96.6553116  53.5632229  13.1484723
  96.6026020  54.0882730  13.9470816  96.8912506  54.1902018  12.4647605
 117.1509016 108.2171532  95.6656853 117.6835764 108.7552544  96.2512922
 116.5061367 107.8042027  96.2401284  75.3343964  26.2151527  69.2611790
  74.8182154  26.7686200  68.6751223  75.0200891  25.3272486  69.0906811
  17.6767087 110.9361649  79.6060038  16.9339037 110.3452682  79.4822741
  18.4373176 110.4264545  79.3269062  97.6236057  98.4199238  70.7373667
  98.3827496  98.8746262  71.1023045  97.1648693  98.0689907  71.5006733
  90.5754185  80.4668427  47.3400545  91.1662769  79.7154140  47.2903347
  90.2560711  80.4611301  48.2423973  98.7375546  18.2060921  85.3972054
  98.0227089  17.7115810  85.7980633  98.3077240  18.9523113  84.9793148
  30.3104925  13.9744532  21.0941887  31.2090468  13.8826776  20.7773113
  30.3843999  13.9088356  22.0462728  11.0207796  78.0779743  11.0278404
  11.8955040  77.6988316  10.9421647  10.8797967  78.1439686  11.9722986
  72.7990007 108.8668537  33.6853409  72.2222853 109.5869923  33.9403534
  73.5253334 108.9099312  34.3072844  70.9456062  36.5625691  70.4037046
  70.8654261  37.3506331  69.8663425  71.8191338  36.6240883  70.7902288
  97.9345512  72.2478199  13.3003390  97.7525997  72.1925068  14.2384577
  97.1907043  71.8105888  12.8859055 113.1724930  48.6897135  20.8767605
 113.5309696  49.4834185  20.4795647 113.8611794  48.3856773  21.4679503
   0.0495093  98.6619282   1.1498217   0.9890642  98.5820866   1.3144234
  -0.2774699  97.7630901   1.1874324 110.0834942  75.7477474  16.6142952
 110.5015373  75.7833385  17.4746430 109.1967010  75.4341030  16.7916930
   0.6671242  73.3980417  14.8255169  -0.1285968  72.8742409  14.9187660
   0.5542623  73.8592148  13.9943671  57.1592617  31.2234712  86.9269657
  56.8620300  30.6953359  87.6678848  56.7412663  30.8231997  86.1645412
 100.7125187  37.4633741  17.9837871 101.3534260  37.0936179  17.3765385
 101.0876369  37.3095679  18.8508880  78.3803320  74.4417238  21.7683291
  79.0215826  73.8255453  22.1223760  77.6551867  73.8903093  21.4744973
 104.7220707  92.6565456   7.8277022 105.4071331  93.1979656   7.4355316
 104.8752117  92.7221012   8.7702966  89.4079208  15.0719643  26.7729974
  89.8090744  14.3436491  27.2471929  88.6199570  15.2797079  27.2751904
  56.5174198  67.9715824  10.7117689  56.8974257  67.7619076   9.8586190
  55.8298874  67.3171186  10.8350992  81.8801594  20.5757976  77.2657824
  81.7866325  19.7107184  76.8668795  81.3626575  21.1548138  76.7061710
  98.7177658 104.3089294  40.8331871  99.1195869 103.4811974  41.0970736
  98.9798069 104.4218159  39.9195027 109.0136623  96.1027718  38.1070232
 108.4440804  96.5057564  37.4517226 109.0268326  96.7291927  38.8306594
  99.1622543  20.8597827  93.6074829  98.4510612  20.3406858  93.2320023
  98.7935543  21.2246943  94.4119263  82.5721169  20.8004928  80.0149250
  82.2667694  19.9280131  80.2634716  82.5619793  20.7941508  79.0578032
  83.3552873  91.6858774   0.2204770  83.5991991  91.8208509   1.1361856
  82.3982418  91.7030316   0.2225084  83.7403107  69.5997763  10.3595281
  84.5531940  69.0945578  10.3451753  84.0237331  70.5115175  10.2914846
  64.0315437  81.0416126  15.5858040  64.9413109  80.7443810  15.6002903
  63.5889530  80.4896641  16.2305534  32.5193477  79.1779470  22.1830416
  33.2910633  79.6184540  21.8271780  32.8655767  78.6007833  22.8636599
  13.9889812  62.9506159   3.1836733  14.7116494  63.4317446   3.5867822
  13.3529174  62.8377008   3.8900059 107.8032112 101.6768265  11.6239953
 107.6842403 101.0796165  10.8854699 107.9916954 101.1039543  12.3673153
  91.8361187  38.7439513  15.7771385  92.6435757  38.9877105  15.3245521
  91.8796730  39.2097163  16.6122425   9.1401094  73.2626534   9.4279331
   8.8675952  72.9466200  10.2893806   8.3202946  73.4584904   8.9743012
  86.6654587  13.6797643  91.0399342  86.2163258  13.3864915  90.2471542
  86.6668606  14.6347618  90.9750462 100.2080345  60.5173540  32.6737475
  99.3736649  60.9566736  32.8382611 100.0170135  59.5872831  32.7950263
 105.3290081  40.8767033   6.3132870 105.5309868  40.0037193   6.6499317
 104.5505142  40.7500553   5.7709414  26.1208534   5.6480956  29.5675731
  25.5920887   6.3317233  29.1561222  26.4238787   5.1078874  28.8377905
 105.0737858  85.1116371  23.4508681 104.7124481  85.0061893  24.3309522
 105.9496689  85.4706097  23.5929918  88.1956005  78.7096167  32.6087022
  87.2842121  78.6780548  32.3178053  88.1640720  78.4356451  33.5253119
  51.7665625  10.9623730  87.7753067  51.4298105  10.2612209  87.2174358
  52.3256493  10.5152678  88.4107208   4.9723119 107.7813053   8.3559996
   4.4514039 108.5463333   8.1118250   4.4882125 107.0375156   7.9973048
 117.1592522  72.0823717  34.4913840 116.9562435  71.3118839  35.0218225
 118.0384827  72.3394346  34.7690701 104.4167423  48.9731026  21.9720912
 105.1404858  49.4609213  22.3651147 104.1584110  49.4972229  21.2139392
  10.9328711  73.1293821  13.5365915  11.3283157  72.2768974  13.7185943
  11.1940956  73.3274937  12.6372886  99.8281574  73.8183069  35.6585097
 100.2194023  73.2728815  36.3409090  99.2854595  73.2146740  35.1512265
 101.3476658  91.0419941  22.9595327 100.6432343  90.5119514  22.5866222
 102.1121693  90.4660988  22.9487109 114.6025467  94.2874050   7.3362947
 113.8047695  94.1779232   7.8537762 115.2170658  94.7167683   7.9314774
  22.8035808  66.8288517   4.6803129  23.7229776  66.7692709   4.9399099
  22.3526192  66.2071896   5.2516294  43.6292887   1.8469843  38.8737249
  43.0721378   1.1224366  38.5893941  44.4172573   1.4237210  39.2145801
  99.1737461  53.3179188  28.6216521  98.5697460  53.8555193  29.1339016
  99.2563248  53.7794209  27.7871299  80.6682301 103.6344051  15.6758535
  80.7782269 104.5842361  15.6315529  80.7314110 103.3432961  14.7661877
  97.3473263  67.2663116  45.5646229  98.0257702  67.9137516  45.7563639
  97.6112652  66.8834019  44.7279930  80.3624439  80.2922440   9.5566261
  80.4066753  81.0064602  10.1923752  79.6468115  79.7381830   9.8682415
  93.4810925  12.0006299  87.5485325  94.2253494  12.6023889  87.5625038
  93.8651466  11.1495316  87.3379040  72.6700306   4.3505499  84.7237015
  71.8233967   4.7709796  84.8742962  72.9981947   4.7539368  83.9200687
  55.3045177 102.8913784  81.7632580  56.1201525 102.5806332  81.3703156
  55.4661083 103.8159847  81.9509315   4.0938225  77.1131182   3.9148092
   4.5341665  76.7223454   3.1600735   3.1647897  76.9346428   3.7689438
  78.0335855 104.6549606  41.8269634  78.8612938 104.1828156  41.7363024
  77.4093485 104.1453934  41.3103390   3.0844715  56.7598867  20.2323318
   2.8737214  57.3266649  20.9743404   2.9070351  55.8743238  20.5493927
  94.8745441  76.7374229  36.0630703  94.4079781  76.6119862  36.8893909
  95.7303429  76.3337183  36.2075543  40.6181145  58.4577560  87.6540947
  40.0352573  59.0446329  88.1358528  40.0685692  57.7075911  87.4271870
  82.9710007 102.9304409  63.8323641  82.3774529 102.1801567  63.8641214
  82.9324532 103.3037758  64.7129154   8.0290765  81.6398335  33.6329651
   7.2205234  81.6847801  34.1433120   7.7355379  81.5358353  32.7278399
 100.7807827  51.5588665  26.9306755 100.2784729  51.6792536  26.1248112
 100.1629543  51.7673826  27.6314211 104.0712547 100.0607204   8.4199464
 103.3482361  99.8662090   9.0162939 103.8292217  99.6283054   7.6010054
 101.5962505  86.9739437  27.4171615 101.7600441  87.6445484  26.7540646
 101.1476135  87.4395561  28.1229687  33.5956645   2.6795381  34.2188597
  34.4299054   2.6620597  34.6878648  32.9363465   2.5341186  34.8973775
  91.3216305  83.4843159   7.3135293  91.5566254  84.2678261   6.8164170
  92.0982933  83.2921505   7.8389823  43.9659929  16.6258824  79.3386507
  43.6867571  15.9301901  78.7434435  44.8108101  16.3278520  79.6758366
  38.7080979  14.7291982  85.9692764  38.2816482  13.9899945  85.5357456
  38.3747482  15.5005229  85.5108356   5.0762779  85.1479912  36.1172438
   5.5037469  84.3760967  36.4883065   5.7132846  85.8531094  36.2323642
  87.3164654  78.0246687  35.3030944  86.8732548  78.7443113  35.7524395
  88.1024647  77.8641224  35.8252621 115.0547695 104.4893932  67.2777510
 114.7809124 103.7378693  67.8035259 114.3231010 104.6428680  66.6799736
  58.3520174  10.9078741  90.4436016  57.7149296  11.6154337  90.3450394
  58.0190706  10.2061462  89.8841763  14.5399690  75.5343866   8.9676297
  15.1123130  75.6160402   8.2047492  14.6583784  74.6307373   9.2602623
 101.3427162  65.6031227  40.4906607 101.9668388  65.8568096  39.8107004
 101.3957310  64.6478462  40.5200863  98.0848980  26.8289566  89.7973633
  98.4066105  27.7303433  89.7819901  98.8713074  26.2959409  89.9143791
  30.7997012   8.0230337  34.9457097  30.2851987   7.2483397  34.7190690
  31.1723685   8.3148682  34.1137338   7.4519920  88.4070778  86.6677189
   7.0961750  88.2357025  85.7957935   7.2592288  87.6125240  87.1654892
 113.7116814  48.3711338  14.7062707 113.1441498  49.1270781  14.5556700
 114.5085907  48.7417030  15.0855601  98.8269806 101.9906712  36.4435458
  99.1657925 102.2019100  35.5735946  97.8755569 102.0288467  36.3458014
  75.0122023  75.8548117  33.7979507  75.9166336  75.5432796  33.8323617
  75.0676632  76.7031527  33.3580899  94.7087002  92.7879429   3.3779544
  93.7856197  93.0409622   3.3661443  94.8556709  92.4594307   4.2649221
   6.6710895  61.5763569  24.8346210   6.5535080  61.9822598  23.9757562
   6.4151031  60.6631708  24.7050285 107.0491982  81.0468388  30.5664301
 106.5623188  81.8271065  30.3011799 107.0724869  81.0924816  31.5222573
 111.9512177  59.7676563  32.8024435 112.8484631  59.5152044  33.0202484
 111.6207600  60.1868105  33.5970140 108.6715889  72.1029234  24.7501421
 108.0347919  72.4397469  25.3804350 108.8632298  71.2157393  25.0541234
   6.4312589  75.5911398  59.4845247   6.1538941  76.1275196  60.2272224
   6.7885518  76.2185860  58.8561296   1.6715042 110.1294613  77.4265623
   2.4552214 110.6667423  77.3110294   1.1199158 110.3456783  76.6747427
 105.5551147  47.5956917   4.1336042 105.3429508  48.3919430   4.6206403
 106.5099907  47.6027727   4.0672669   5.2820456 101.5196609  20.3759646
   5.8533710 101.1646461  19.6949470   5.0062215 102.3713684  20.0372219
 100.5311203  64.7663784  20.9894514  99.9014187  64.3869162  20.3764892
 100.3036785  65.6956005  21.0218811  91.4577007  73.1727886  18.3343673
  92.1403503  73.8173342  18.1478703  90.6411934  73.6141968  18.1004715
  22.1274877   4.3788022  16.8734825  22.9657292   4.6707737  17.2317195
  22.3418260   4.0488756  16.0008776  -0.1012815  87.5398445  58.2688808
   0.2372157  88.1887245  57.6519537   0.5819022  86.8707752  58.3116198
  95.0264645  70.2531099  38.0595660  94.6328926  71.1255360  38.0738974
  95.4241467  70.1839876  37.1916366  85.2255535  72.9298973   1.0945653
  84.4800472  72.3386955   0.9900160  84.8445702  73.8066769   1.0461469
  99.1624641  50.7750845  13.0637622  98.9464283  50.2741718  12.2772205
  99.9715042  51.2351227  12.8400528   1.2414752  96.7528343  22.3100233
   0.3224349  97.0141983  22.2526956   1.2593031  95.8617687  21.9608712
  84.6069717   3.0342689  79.3285227  83.7262058   2.7102500  79.5169067
  84.5007801   3.9818767  79.2448997  81.0575104   7.6405668  64.8631811
  81.1441803   7.3652709  63.9505291  80.3732204   7.0744091  65.2201796
  89.0723991  76.1538649  31.9497275  88.4264278  75.5145073  32.2500277
  88.6724091  77.0035410  32.1348953  96.2579727  75.5389643  52.2712326
  96.6095161  76.2968874  52.7383518  95.4122925  75.3722000  52.6874638
  91.9890022  61.7173195  39.5357728  92.0327568  61.9846058  40.4538536
  92.5215626  60.9231615  39.4918847  11.6233826 105.6935978  33.3008003
  12.2120464 104.9702072  33.5162139  12.0230126 106.4588356  33.7142467
 102.3263836  85.1863766  42.7685118 102.6250362  84.9572945  43.6486053
 103.1217480  85.4530621  42.3075342 115.2975273  55.4803705  42.5697660
 114.8812294  56.0413551  43.2241535 116.0856915  55.9580898  42.3113012
  25.8355546  38.4477091  55.8851624  26.6788769  37.9993248  55.8219814
  25.4543519  38.1268740  56.7024612   1.9852634  73.1508303  30.3785896
   1.9811933  72.2213888  30.6073833   2.0026247  73.1618452  29.4216108
  21.3151646  16.7501068  81.0281849  21.5792084  17.4609685  81.6123009
  22.1335578  16.4461362  80.6356716 109.0027523   0.8022931  90.0485039
 108.4844780   1.5414554  89.7302914 109.2412281   0.3188250  89.2575359
   8.3355153  59.8473835  12.8675842   8.5780144  60.0096416  11.9559383
   8.7212658  60.5775356  13.3516312   1.3581672  86.7504406  36.5025020
   1.6236377  85.8934784  36.1687541   1.6594377  87.3700809  35.8380389
   0.3478796  53.0630302  10.5184889   0.6030375  53.9660358  10.3295195
   0.2427663  52.6586294   9.6573037   0.2104304  86.5770817  55.2140045
   0.3005902  87.5250530  55.3112602   0.7439400  86.2120724  55.9199524
 104.0038395  67.2940445  22.6430011 104.7945309  67.7883768  22.4269366
 103.5273075  67.8585339  23.2516837  20.6800008 103.0985069  20.0351310
  20.7243705 103.9513206  20.4675436  21.1176443 103.2331181  19.1945481
  66.0385990  18.7634528  73.8081551  65.6232405  19.0288007  74.6287012
  66.6282463  18.0518067  74.0573645 112.6080894  51.8530273  23.8487434
 112.1024704  52.1403694  24.6090198 113.0505848  51.0566807  24.1424489
  20.1057601  78.0198908  10.3247559  19.9964797  78.9708138  10.3307247
  20.1092315  77.7733898  11.2496662  18.8828361  88.1573296  84.8602104
  19.1391265  88.4397221  85.7381725  19.4597721  87.4180031  84.6684647
 103.7989807  71.9894791  25.1168537 104.4919109  72.5488949  24.7659492
 103.2678890  72.5756359  25.6559277  20.9605169 102.5132561  13.5324955
  20.5856133 101.6841412  13.8295698  21.0663819 102.4033165  12.5875413
 108.2472515  58.7550974  45.5167246 108.2339287  57.8598499  45.1782084
 107.9145432  59.2889452  44.7952366 100.4134178  71.4683914  30.9788322
 100.8070850  70.9184217  31.6561675 100.6326485  72.3629951  31.2393236
  99.7378826  54.3968773   1.1605582  99.4937706  53.8376379   0.4230659
 100.2215576  55.1206493   0.7624973 102.3554039  92.1889973  45.0897026
 102.5391293  93.1082916  45.2830219 103.2016277  91.7511559  45.1815891
  88.1854534  92.1993732  32.3580551  88.0308628  92.7086353  31.5624523
  87.3276997  92.1475506  32.7797174 107.2774124  34.1236663  94.5314598
 106.9996452  33.6591458  95.3209496 106.5619850  33.9887881  93.9099979
 116.3780117  64.5835686  43.1673813 115.8406830  65.0700569  43.7925577
 116.3094330  63.6719608  43.4511089  27.8834248   2.5497079  48.4116507
  27.1766186   2.6305476  47.7712393  27.4817514   2.1023935  49.1564989
  96.7644882  87.6052284  17.9133821  96.6546249  88.5508060  18.0136323
  97.4132061  87.3678970  18.5760093  88.8633442  84.7288609  25.0585628
  89.1249561  83.8325691  25.2693772  89.6134186  85.2643871  25.3170681
  54.7480154  99.1998863  58.9217854  53.9416742  98.6848259  58.9492130
  54.5865202  99.8620224  58.2496738  20.2972817   0.4416382  45.0364065
  20.0808334   0.4555158  44.1041040  20.7984495   1.2447810  45.1779175
 106.4377403  71.9632578   8.5596329 106.4711952  71.1485434   9.0609848
 106.4169693  72.6524019   9.2236197  87.1025276  96.9829845   6.5527886
  87.6218987  96.2601280   6.9048876  87.7493477  97.5882339   6.1901313
   6.0258925  79.7813511  23.0383205   6.4908081  80.5206394  23.4301591
   5.1076162  79.9286747  23.2648087 103.6502361   9.6683520  12.2167289
 102.9173756  10.2497542  12.4195135 103.7282085   9.7048110  11.2634063
  81.9513893  52.8235149  91.4215946  82.4781322  52.3741722  92.0825577
  81.0662746  52.4815989  91.5476799   5.2588069  30.9890389   3.9277869
   5.8990890  31.3061190   3.2908168   4.4110623  31.1333013   3.5073712
  56.1117887  17.2071266   9.6905303  56.8576860  17.0762277   9.1050917
  55.8643103  18.1228173   9.5620871  86.9936275   4.7949561  11.8713892
  86.1469746   5.1063979  11.5513563  86.9900513   5.0080234  12.8045678
  99.4687271  83.0947113  91.3826942 100.2060604  83.3241558  91.9483185
  98.7383461  82.9561806  91.9856739  26.3628793  93.7066650  95.2885628
  26.1971569  94.2343807  96.0697746  26.6249490  94.3415165  94.6218395
  75.4103470  36.0983706  30.0269818  74.7492743  35.8160472  30.6590509
  75.8248568  35.2864385  29.7351336  71.5061045  35.5281830  11.4608359
  72.2527361  35.7893968  10.9218180  71.2043619  34.7078514  11.0706568
  26.1335468  78.2099199  86.6334248  25.4080462  77.7860880  86.1748886
  25.7144547  78.7123346  87.3321152  79.3539333  18.0917668  17.6175845
  78.4366465  18.3649909  17.6305795  79.7212410  18.4473288  18.4268379
  49.1702604  95.5629921  23.7470508  48.6380148  94.9311829  24.2305303
  48.6412096  95.7852840  22.9809403 114.3503094  55.9700394  92.7644253
 114.0942097  56.8490791  92.4852562 113.5612583  55.6071424  93.1668282
  10.5594981  80.6012154  74.4976044  10.1584816  79.9363804  73.9377737
  10.7304192  80.1478291  75.3231096  41.2239552  34.9030709  96.2530899
  40.9988213  34.5114636  95.4091740  41.0172987  34.2238259  96.8950748
  63.6684704  17.8165042   8.3179235  62.9340124  18.3466840   8.0085576
  63.4385729  17.5916815   9.2194963   7.4364650 107.3073387  35.0790691
   7.8079689 106.9339466  34.2798209   6.8855006 108.0278397  34.7732115
 102.8541374  32.4138665  22.5796652 102.0274925  32.7921939  22.8792524
 102.6457977  31.4977551  22.3964477  24.9760056  84.8787689  69.8338366
  25.3798938  84.2180634  69.2711926  25.6505036  85.5500412  69.9372244
  26.4491320  99.3269253  13.8886118  26.4391756  98.4178734  13.5890317
  26.2618971  99.2723465  14.8257327  93.4122753   3.0561256  43.2909775
  93.7602901   3.3065912  44.1467714  93.2944202   3.8857025  42.8282213
  51.7446804 109.1922188   1.5625614  51.1262035 109.7478771   2.0368624
  51.7471552 109.5426846   0.6718335  70.3314114  12.2612226  21.1460924
  70.9381390  13.0013859  21.1626673  69.8690891  12.3491216  20.3125691
  65.2462959  33.6768055  15.6191647  66.1872005  33.8511944  15.5964065
  64.8437929  34.5426369  15.6867242  78.7597847  28.5084605  15.2329695
  79.2230844  29.1493750  15.7722425  78.1005478  28.1350756  15.8179653
  41.4781809   2.3147957  74.1553020  40.9485912   2.8727400  74.7249222
  41.0534382   2.3743677  73.2995701  50.0822926  12.9664564  29.6008515
  50.6659460  13.7248158  29.6225452  49.7158003  12.9209459  30.4839396
  53.1853199  13.4508455  11.2370348  53.9555645  13.0890894  10.7987511
  53.4997034  14.2562068  11.6478765  87.1363068  13.0094504  29.6341562
  87.1363640  13.9500284  29.8117709  88.0534172  12.7987683  29.4587755
  19.6920526 100.4627419  31.0652971  19.9655831 100.7213783  31.9453645
  20.2734756  99.7373676  30.8372569  60.9235620  12.9419577  22.3415637
  59.9831390  13.0949545  22.2497678  61.1418915  12.3524249  21.6197515
  67.0456743   4.2212614  29.3175101  66.4182138   3.7696329  29.8819160
  67.8220081   4.3353882  29.8656988  92.0798492   2.4840933  22.7062893
  92.4297142   3.3260363  22.4148202  91.2442684   2.4000125  22.2469759
 116.0982609  25.7206297  38.8085246 115.7178593  26.5945816  38.7205458
 116.2605476  25.4383302  37.9084158  95.0257397  26.7765307  32.5649071
  94.7347927  25.9915113  33.0289412  94.8622417  27.4922419  33.1791186
  60.0916815  33.4092927  11.1671889  60.9819031  33.7607646  11.1529720
  60.1911306  32.5187278  11.5036952   9.1852546  81.9274616  43.7814951
   8.8777590  82.6243401  43.2017994   9.7576773  82.3714828  44.4071198
  27.9747128  92.7525406   0.0746698  27.1518444  93.2393985   0.1204748
  28.3740639  92.8756075   0.9358377  96.7102623  17.8533769  31.9871593
  96.0236073  18.5011899  32.1455002  96.9703770  17.9975712  31.0773349
  33.2912850  66.9303799  95.3132725  32.4003601  67.0478916  95.6429291
  33.2155538  67.0580387  94.3676472  91.1707020  18.0872142  17.9353476
  91.8126869  17.3773599  17.9493046  91.6825771  18.8690424  17.7280831
  94.4224834  16.2587750   5.7540375  94.6480942  17.1761167   5.9083503
  95.1003170  15.9426284   5.1566929  65.9513712   9.0561700  34.7727251
  66.3058186   9.6135205  34.0799356  65.7914305   9.6541172  35.5028701
  73.6085224  15.1534534  56.5465927  74.0120268  14.8612869  57.3639345
  72.9160643  15.7539237  56.8225861  91.5223694  23.8275552  48.3960629
  91.0679245  23.2696295  49.0272760  91.2975121  23.4563828  47.5428915
  11.7078042  92.4344921  23.8253212  11.5790915  91.7798138  23.1389856
  12.3895574  92.0634270  24.3854570  54.6947861  68.3877420  33.1339979
  55.2138186  69.1919231  33.1228256  55.0866508  67.8594017  33.8293600
  57.7630329   5.8696944  34.1047215  58.4296942   6.3236332  34.6202159
  57.0934248   5.6233960  34.7428370  80.9046936  31.9301510  34.4744325
  79.9733019  32.0612621  34.6520448  81.3337326  32.0908451  35.3148723
  18.3064318  99.2316055   2.7146527  18.7918091  98.8949966   3.4678677
  17.4417531  98.8274479   2.7868611 108.0860996  82.6479435  72.1654797
 107.9565430  82.6262283  73.1136227 108.8436604  83.2194996  72.0402861
  32.8336740  94.5838261  10.1977026  33.7360620  94.2883110  10.0768793
  32.3431587  94.1462803   9.5018703  76.8955660 109.8975754   1.5522982
  76.6881895 109.6772575   2.4604221  76.2157488 109.4612789   1.0387556
  89.5302391  45.2231884   9.6526957  90.0779343  45.2008820  10.4373991
  90.0216103  45.7622814   9.0328902 116.4163208  45.8959866  96.2451935
 116.8133354  45.5629826  97.0500088 116.0488224  45.1206923  95.8208275
  69.5346451  25.9863901  19.3769336  69.3476629  26.8747497  19.6803916
  70.0217915  26.1091709  18.5621691  68.1714869  87.6471996  16.7741346
  68.1385279  87.2099113  17.6249695  67.2557354  87.8279591  16.5621102
  29.1106987  99.5755863  83.9239025  29.8820615  99.9178219  83.4721184
  28.4927869  99.3716717  83.2218838  73.2952023  30.0668406   8.4059012
  74.0900183  30.4254723   8.0110759  72.5896311  30.3522325   7.8254259
  41.4482450  98.0247784  28.0569577  41.2936306  98.3646488  28.9383268
  41.1121750  97.1288967  28.0833507   3.5539317  50.8945322  93.3825207
   3.0546001  50.4003334  92.7323914   3.8873160  50.2293777  93.9847279
  48.3511829   9.0515697   4.6067896  48.0281830   9.5235980   3.8392657
  48.7233686   8.2440925   4.2522633  71.9934702  23.4493041  52.2024870
  72.7863836  22.9720092  52.4468517  71.8481779  24.0587687  52.9261398
 105.5632877  35.7124734  92.1877384 105.0688744  35.3391790  92.9174232
 105.0119114  35.5576658  91.4207649  10.0010562  26.8333960  30.6851363
   9.3064839  26.9305515  31.3365674   9.7210568  26.0945249  30.1448584
  83.8849735  17.7785945  38.0486441  83.1230831  17.5609100  37.5116563
  84.3419456  18.4574127  37.5520372  80.5707836  37.8980970   1.9620822
  79.7920322  37.3431921   1.9189681  80.3655624  38.5469556   2.6352075
  83.6769390  24.4352984  32.5422931  83.9467430  23.5184193  32.4896312
  84.4976330  24.9277043  32.5272584  28.2129931  16.7929733   5.5813968
  27.5582004  17.0895672   6.2134647  27.9731607  17.2308958   4.7647351
  58.3235645 108.9259815   0.0006337  57.7994633 109.1346264   0.7739518
  58.8589478 109.7062492  -0.1435047  78.1326580  15.3515828   3.6417827
  77.9087305  15.6887710   2.7743775  77.3272371  15.4453170   4.1504523
  17.4370217  90.8386421  19.2563903  16.8631279  91.0108185  18.5099113
  17.8708100  90.0133610  19.0396583  85.3543854  29.8258042  25.8658767
  84.4925499  29.7056222  26.2646651  85.7368946  30.5640483  26.3401222
  93.6857128  88.0117512  88.2620621  93.7605667  87.7500153  89.1797256
  93.7257576  87.1891117  87.7743244  87.3717213  54.9178219  11.8531787
  87.4191380  55.6177759  11.2019908  88.2591152  54.5604372  11.8857074
  44.6585321 108.0092621  14.6201563  45.1616001 108.7240410  14.2299616
  43.9284849 107.8727055  14.0163279  76.2891293   5.1895761  29.2286134
  75.6051159   5.7701421  29.5622349  75.8410120   4.3592006  29.0676808
 114.4337368  61.6445208  84.4397640 115.2672958  61.5788651  84.9057007
 114.6793079  61.8455362  83.5367012  87.8732872  17.9837012  40.1355267
  87.5011444  17.5648165  39.3594646  87.1592045  18.5161412  40.4859829
  93.8016701  65.1901531  28.3250427  93.2058239  65.7499027  27.8271699
  94.5286751  65.0213814  27.7257013  98.1433201   8.5701019  50.6120634
  97.8452396   9.1888773  49.9453592  98.5009956   7.8351599  50.1139069
  50.4899263 106.7404842   2.1561131  50.8326578 107.5176907   1.7148311
  50.0388527 107.0826435   2.9279268  70.5523300  26.7336655  14.6073008
  69.8110771  26.2023878  14.8980308  70.8444643  27.1895528  15.3966415
  78.5575533  13.8936114  31.5238929  77.8978395  13.2980752  31.1684465
  78.5244465  13.7507010  32.4697852 110.5888557  69.5431232  59.5043850
 111.2963772  69.7593451  58.8970184 111.0355377  69.2251682  60.2889967
  86.5908146  34.7554684   0.4419971  86.0479832  34.2506409  -0.1635753
  85.9655476  35.2716064   0.9507938 106.6140556  13.3166027  22.8445172
 106.3832760  14.2211342  23.0561614 105.7753754  12.8905892  22.6674652
  46.8283129  92.4016762  37.4944925  47.2828054  91.8691444  38.1472373
  47.2654247  92.1932125  36.6688395  65.6111622   2.7191803  21.6202497
  65.8100700   2.3047791  22.4598551  65.7385159   3.6545470  21.7786860
  53.4586143 109.7938442   5.5378282  53.5312080 109.6802521   6.4854884
  52.6505232 109.3376350   5.3031212  98.1766701  25.0436163   5.5539793
  97.8775406  25.2057934   6.4486575  98.9783001  24.5311069   5.6586558
  39.6938086  29.0462351  27.4290872  39.4694829  29.8220253  27.9429555
  40.0265503  29.3947673  26.6020203   9.2476404  47.8528070  76.7668581
   8.2942849  47.8009367  76.6986322   9.4049859  48.5642767  77.3875761
  72.0806932  19.8662055   7.0230645  72.9428911  19.8437786   6.6079223
  72.2210455  19.4801879   7.8876585  48.1772089  27.5997329  20.2610230
  49.0813971  27.7775121  20.5200100  47.9117060  28.3768630  19.7692800
 115.7876205 102.1139908  20.7959962 116.6199017 101.7559052  20.4872513
 115.9673309 103.0420113  20.9466863  52.1084070   9.0211940  33.0025744
  52.2424507   8.1676358  32.5906253  52.2765541   9.6534258  32.3038316
   1.0909698  45.2561617  93.2257652   1.9469094  44.8555756  93.0736923
   0.6195192  44.6178913  93.7611008  88.3356285  30.9020948  24.1461825
  88.6155033  31.6680789  23.6450148  87.5158310  30.6317210  23.7325835
  95.0707150  22.4059963  31.3431287  95.6822777  23.1373167  31.4291263
  94.6901608  22.5132561  30.4714036  81.4565754  85.4481411  21.9836831
  81.6614914  84.9888706  22.7981234  80.8565617  86.1460209  22.2466922
  69.8255634  21.2844110  16.1276257  69.1105127  20.6823492  15.9215832
  70.5949688  20.8929110  15.7141328  89.7886753  19.2197192  38.4081244
  89.1058159  19.8873472  38.4730434  89.5211220  18.5422790  39.0291905
  14.8906612  55.6572866  92.8312206  14.3541515  54.9349976  92.5045872
  15.7245266  55.2495718  93.0650330  58.1621218  13.6823642  27.6857877
  58.9605856  13.8746822  27.1941543  57.9368162  12.7863097  27.4356747
  73.1735277  47.5545692   9.4354331  73.3535099  46.6863346   9.0748644
  73.2964420  47.4521780  10.3791702  88.0060005  43.4427500  11.2084711
  87.6192379  42.7778435  10.6387782  88.2672691  44.1454697  10.6133604
  60.8503878   1.0930965  55.5595875  61.3871301   0.8839462  56.3240433
  60.1617110   1.6644047  55.8995342  77.4837542  81.1955261  90.8773041
  77.7942038  80.3798580  91.2704277  77.9830503  81.2749004  90.0645065
  12.3135578 109.9462215  91.9511986  12.6369869 110.3625620  92.7501297
  12.9442846 110.1991755  91.2770844 115.9573078  75.5933666  80.9348679
 115.0084496  75.6012154  80.8090305 116.3094997  75.9602642  80.1239586
  68.1474972   1.4314839  11.8041718  68.9642859   1.2033781  11.3602614
  68.1010866   0.8277184  12.5454855 114.2055130  36.8947220   8.2198304
 115.0104237  37.3919225   8.3652228 113.5075378  37.5474334   8.2749581
  29.5572591 101.5375900  76.0200548  29.0128684 101.6852951  75.2467155
  29.0536642 100.9228134  76.5536022  90.0285053  39.4018555  20.9404945
  89.2239952  39.5715928  20.4504085  89.7617626  38.8046002  21.6393232
  72.2288227  35.8082652  17.8809977  72.2702217  36.6849017  18.2631302
  72.9415464  35.7915092  17.2422659 105.5023861  20.4629922  27.3194361
 105.3582954  21.4088750  27.2915387 106.1117554  20.3348851  28.0464077
  75.4712677  14.7660077   7.2418761  75.4474640  14.6321309   8.1893682
  75.9972239  14.0382338   6.9102925  40.3716421 108.2671356   4.5814180
  41.0523748 108.7084961   5.0893861  39.5501137 108.5666466   4.9707896
  29.0163374  86.6777515  94.1813183  28.9947224  87.2881699  94.9183083
  29.8648000  86.2411118  94.2567730  90.7492447  31.4686489   6.7849362
  90.7609653  32.4082375   6.9673389  90.7595253  31.0567904   7.6489377
  90.6138229  54.5434761  71.9529152  90.0294781  55.2988672  72.0173311
  91.2974548  54.8208284  71.3430262 108.6801720  86.2489605  81.9601536
 108.6591244  85.4923248  81.3742447 109.1224861  86.9309998  81.4547634
 116.7195797 101.3785934  80.4034996 117.2357082 102.1589184  80.2011681
 115.9685040 101.7093182  80.8961773 101.3141632 103.4087086  85.2235031
 102.0047569 103.9144039  85.6519890 101.7645741 102.6438618  84.8652172
  82.2917271  15.2622819  47.5994492  81.9981575  14.4607687  47.1662951
  82.1357632  15.1024270  48.5302305  25.7059407 104.5422554  33.2704186
  24.8330307 104.1539669  33.3294678  26.3046098 103.8053036  33.3917665
 118.2134425  64.5348787  25.2099657 118.3458959  65.2519798  24.5899224
 117.3329140  64.2121172  25.0183272 105.4024696  19.5302165  30.1071334
 105.8841801  19.3422163  30.9126425 104.5812321  19.9215114  30.4049563
  31.8798566 106.9752693  20.4844403  32.1832108 107.2587299  19.6219707
  32.3728776 107.5160980  21.1014223  77.9181337  21.8692398  28.7284541
  77.4998760  22.6967740  28.4907913  77.5049114  21.2199092  28.1593776
  70.3635931  93.4546852   7.3938358  71.0415554  94.1250515   7.3089868
  69.8408604  93.5404301   6.5965688 105.1692104  63.5670757  18.2873678
 105.5716801  62.7561140  17.9765844 105.8942986  64.0648699  18.6651051
  78.3650589   1.8423508  19.0124083  78.7553453   2.2035365  19.8083067
  77.4729300   2.1891579  19.0044427  88.5894203  61.0555601  12.0261574
  88.3531570  61.4009380  11.1652720  89.0474319  60.2363539  11.8381083
  81.7647171  29.8026705  19.1867232  82.0935822  30.5784774  18.7326217
  82.5527287  29.3288159  19.4527030  14.1557944  81.1347866  75.5402851
  14.8997867  81.7087460  75.7226896  14.4266915  80.2787685  75.8720779
   7.8171682  93.3083534  29.5612955   6.9877249  92.8377151  29.4791389
   7.5679040  94.1823196  29.8617768 113.3051872  89.8204327  88.3347225
 113.6559677  88.9298820  88.3245850 114.0437508  90.3717327  88.0762196
  39.5399928 101.6779900  47.7009964  39.3660045 101.1957836  46.8926430
  40.2759457 102.2505379  47.4846697 108.6200905  49.8713589  76.3998365
 107.8693390  49.7762442  75.8136988 109.2135143  49.1646481  76.1455822
  57.3504734  23.0627227  38.5669327  57.8372002  23.2201719  37.7578974
  57.4353123  22.1213579  38.7181449  98.7709713  66.6976166  15.1859570
  98.5511398  67.6280403  15.1388800  99.2642403  66.5271521  14.3835449
 108.1979084  42.8225422   7.1647024 108.5541439  42.3226166   6.4302582
 107.7029514  42.1805859   7.6737541 109.0097141  16.6882062   0.8846449
 109.2166519  17.5290513   0.4767402 109.7220612  16.1089432   0.6140011
  77.3246765  13.2884490   1.7731483  78.2816410  13.2845962   1.7938913
  77.0647955  13.1271625   2.6801661 107.8655052 104.9755096  91.5664101
 106.9580650 105.1283073  91.3029289 108.2450199 105.8513832  91.6374016
  90.6126881  22.6555419  51.1202145  89.9591160  23.2167459  50.7029390
  90.0999165  22.0343518  51.6373396  89.7687340  11.6106427  49.9482203
  90.2012730  12.4543560  50.0797033  90.3849697  11.1056805  49.4176483
  99.5476627  45.2172518  23.8121271 100.1258564  45.9426785  23.5761642
  99.7647953  44.5250368  23.1876898 103.2992458  37.6573110  16.1515760
 104.0853596  37.7115202  16.6950178 103.1081676  38.5650635  15.9155655
  23.2808495  89.0570068  91.0635471  23.5408616  88.9896870  91.9822979
  24.1075301  89.1098499  90.5839252 107.6489830  56.4338017  44.2680264
 108.1703568  55.8417320  43.7259436 107.3707199  55.8967447  45.0098991
   0.6489262  76.3141584  83.1436539   0.2242000  77.1077681  82.8180313
   1.2341344  76.0475636  82.4346447 109.4574261  29.7601652   9.3133503
 110.3028297  29.9749851   8.9191639 108.9651203  30.5806088   9.2862362
  50.1726341  80.8750439  87.7254295  50.6003428  81.1707115  88.5290909
  50.5342960  81.4376736  87.0406818  88.9415932  18.6112881  16.3259172
  89.5936584  18.3303177  16.9678700  88.1005287  18.3945525  16.7282367
  97.5960255  94.8459435  67.1338129  98.4992504  94.5685291  66.9806242
  97.2744560  94.2512131  67.8113937   9.8950201  54.1237831  94.7370529
   9.9682581  53.3203554  94.2219067  10.6381536  54.0906239  95.3394508
  46.5016127  12.5777817   4.8313081  47.1738529  11.9403327   5.0721025
  46.5886784  12.6708949   3.8826346  16.2568688  70.3734493  95.3168011
  15.8594751  69.5066738  95.4005432  15.5439103  70.9831858  95.5069160
  83.1024361  52.9103231  10.5447519  82.5952530  53.4095955   9.9046624
  82.4445820  52.5239325  11.1228120  63.5979319   9.3078762  83.1203461
  63.9671469   9.7444266  83.8880253  62.9015160   8.7532896  83.4720135
  30.7484674  22.1949816  90.7798672  30.7004356  22.5707912  91.6588974
  30.1116800  21.4803958  90.7897663  92.6453876  76.2848186  88.1027412
  92.6534367  77.0835257  88.6302090  92.4975395  76.5903330  87.2077370
 113.3629990  34.1568208  27.2952104 112.7282619  34.8546648  27.1328616
 113.3017254  33.9914370  28.2360220  26.9166183   5.5990380  90.7357597
  27.7271748   5.1893187  90.4335117  27.0443702   6.5331835  90.5705929
  16.4432549  82.4920940  76.0683155  17.2426522  82.9808712  75.8726215
  16.6719472  81.9518280  76.8246508   5.4857099  49.1980696  88.9312363
   5.7130873  50.0597286  89.2806339   5.4745531  48.6243010  89.6973324
  -0.1772798  13.6894011   1.4559409   0.5230319  13.7793994   0.8096488
   0.1192462  12.9865277   2.0341049  79.7715855  73.2759905  94.7512913
  79.3366957  72.8708792  94.0009689  79.2647314  74.0698338  94.9220085
 110.3589344   8.7313634  15.6554294 109.7377491   8.2898736  16.2346089
 110.8793259   9.2837363  16.2387860  57.4843025  24.9147558  22.3243618
  56.9803524  24.9601007  21.5118289  58.3334494  25.2959991  22.1011329
 103.3454609  67.1725941  76.3398266 104.2051029  66.7525434  76.3113689
 102.9407024  66.9467688  75.5023289  84.5180225   6.0111314  11.5056217
  83.8681889   6.0937798  10.8076870  84.0562725   5.5566621  12.2102261
  11.3142073  66.7906809  29.3232918  11.9907367  66.1156511  29.3768692
  11.8004644  67.6135778  29.2720222  75.1961040  31.0194683   6.7623025
  75.9031725  30.6525135   6.2316185  75.1497746  31.9381070   6.4973688
  11.3868964  46.9204569  23.1035614  11.3059604  46.8507910  22.1523356
  12.2107208  46.4775229  23.3069205 107.3132992  59.3562794  27.2600603
 106.6284370  58.9755583  27.8098321 107.1838856  58.9522266  26.4020252
  70.1591635  12.0441556  53.4384727  70.9524870  12.5651026  53.5629129
  69.5280790  12.6557410  53.0590963  69.3558550  17.7731073  11.5924251
  69.1755486  18.6848235  11.3633049  69.6828556  17.8121805  12.4911880
  19.6719849  86.1743259  91.3197708  19.8980713  86.6745949  92.1039009
  18.9862251  85.5724525  91.6091156  52.1369457   2.7211401  40.8911467
  51.6838312   2.6544359  41.7316628  51.7284489   3.4704256  40.4576302
  78.1994867  25.6753635  53.2311010  78.8157654  25.5184746  53.9465141
  78.5664940  25.1947737  52.4890947  84.3426704  64.3043137   5.1316148
  84.6529865  64.6976089   4.3159819  84.6702957  63.4053564   5.1038718
  96.4398003  17.4432433  35.9301519  96.7599010  18.2659531  35.5601287
  95.7583618  17.1563041  35.3222585  99.1947079 102.2619915  70.3437042
  99.2780876 103.2129860  70.2737331 100.0950813 101.9392300  70.3063965
  97.8708553  34.1951704   9.8360842  98.6258602  34.5091414   9.3384618
  97.1694469  34.1252804   9.1885018  43.5319996   6.0901421  86.3106537
  44.3984842   6.4138776  86.5568829  43.6563158   5.1504195  86.1776161
  98.4506321  75.1662350  87.9448509  99.2022800  74.6346903  87.6827049
  97.9542065  75.2942228  87.1365166 110.4108810  65.8658123  93.6867619
 109.9084187  66.3526392  93.0334949 111.1139107  66.4631271  93.9420986
  74.4497967  33.3510184   9.3729699  73.6668253  33.8507915   9.1418529
  75.1755285  33.8666153   9.0212548  86.7608833   0.8883159  13.8581157
  87.6137829   0.9177805  13.4246111  86.9679832   0.8513714  14.7919130
 115.1580620  70.8558893  59.4416952 115.0764084  71.2082720  60.3279209
 115.1810551  71.6289616  58.8777256 103.6361217  48.2428265  33.8473248
 104.5124435  48.2152653  33.4632182 103.0644131  48.4939337  33.1218433
  69.9349737  16.0558915  29.9359345  70.3021240  15.2550983  30.3103161
  70.6862211  16.5059996  29.5495939 108.5284710  55.3636456  15.6873691
 109.0912342  56.1249590  15.5461943 107.8764820  55.6620455  16.3214815
  97.2908211  64.7178698   9.6590090  97.9723167  64.1695690   9.2702174
  96.5473080  64.6352959   9.0618491  10.6581950  99.7793198  85.8366108
   9.7558671  99.6389484  86.1235523  10.6276393  99.6668911  84.8865318
   5.3030330  64.9859238  89.6688175   4.5544684  65.3067970  89.1659069
   5.1726884  65.3437519  90.5469990  96.9687080  19.3616426  16.7344725
  97.2586632  18.5893917  17.2200477  96.4225006  19.0110564  16.0309279
  87.3264122  43.0760622  17.6816535  87.7107906  43.0900478  18.5581756
  86.6414261  43.7440681  17.7098227 110.8200264  74.7225237  80.1145077
 109.9122143  74.8646927  79.8463631 110.8231449  73.8432312  80.4927444
 113.9651394  32.3365808  12.0556009 113.6477470  31.4335346  12.0570517
 114.6247292  32.3597431  12.7488863  90.4154301  37.3737860   8.3666694
  90.8512974  37.0539737   9.1565883  89.9055767  36.6260195   8.0550200
  70.4952908  15.8768725  46.6797733  71.0128927  16.2645388  47.3854876
  69.5893145  15.9477246  46.9804764  28.9012957  90.1832771  77.5466967
  29.8314953  90.1862335  77.3209715  28.8815117  89.9627686  78.4779406
  17.7071393  38.8422275  91.2893009  17.3565519  38.4481454  90.4905415
  18.3151102  38.1874084  91.6325378 104.7918129  39.8050141   0.9071505
 105.7160282  40.0279045   1.0184395 104.5679569  39.3108988   1.6957986
 113.8823700  13.4737432   0.4514478 113.7455845  13.9139664  -0.3874353
 114.4756413  14.0516818   0.9312917  12.2766221  83.0064297  82.3456383
  12.6053822  83.4816456  81.5825367  11.8125713  83.6682892  82.8583145
  41.1473131  26.3297939  20.0955892  42.0020962  26.7135644  19.8998916
  40.5939960  26.5891290  19.3588281  77.1584606  30.1460385  38.9855981
  77.3884678  30.7480741  38.2778645  77.5288534  30.5476737  39.7715569
  57.7269506 104.8636055  50.8282948  57.3823261 105.7187939  50.5711889
  56.9588280 104.2929077  50.8513260  45.7990694  26.5221739  12.0612311
  45.4835463  27.3530149  12.4167299  45.4246521  25.8569455  12.6387393
  79.5374632  62.0000267  18.5877705  79.8308992  62.4769163  17.8114295
  78.8258028  61.4431763  18.2720339 104.0090179  22.4032831  12.2004128
 104.3899727  22.3717523  11.3228512 103.6981773  21.5119171  12.3587501
  23.5222554  92.2132587  26.5697432  23.1543803  93.0006123  26.9709563
  24.3189383  92.5162601  26.1341763 112.8605366  42.8995419  29.7824359
 113.7528706  42.5820637  29.6439242 112.4341011  42.2044134  30.2836108
  79.5010233  25.3602862  22.7788210  79.0903187  24.9793577  22.0026469
  79.7276926  26.2524652  22.5163937   3.2492268 106.3906193  69.5769167
   4.0413237 106.4407158  70.1119900   2.6334995 105.8848381  70.1072931
  13.8605654 102.1651936  67.5957012  14.1975760 102.4370670  66.7420387
  13.0204046 102.6166916  67.6763773  21.5407133  75.6623077  92.5562763
  22.0541430  74.9710512  92.9743481  21.9295907  76.4763212  92.8762436
  66.3798332   5.8442926  38.7120247  67.2294712   6.1786228  38.4246683
  66.2278271   6.2700367  39.5557475  19.8836291  63.8105249  92.5719166
  20.5652714  63.1670284  92.7655792  19.6160412  64.1413879  93.4293270
  40.4569149  16.4547634  32.1302342  41.3340092  16.0718930  32.1488667
  40.1198339  16.2390447  31.2607098  98.8008976   6.6526139   6.8384820
  98.7370300   6.1263728   6.0414726  98.7295437   6.0175854   7.5511396
  31.1776686  26.3420987  17.3315990  31.7517114  26.3532758  18.0974841
  31.6018152  25.7369828  16.7231846  81.8738079  33.8304567  28.5883951
  82.1929264  33.3990073  29.3810177  82.5255680  34.5070887  28.4050608
  85.1928520  36.9905281  28.2523656  84.7850037  37.2177291  29.0879941
  86.1093235  37.2467256  28.3556509 105.3459835  65.8162260  11.0096002
 105.9325409  65.8208513  10.2531862 104.6595669  66.4441347  10.7842469
  91.7424774   7.7713317  14.6329868  92.6891422   7.8702593  14.5315826
  91.6038895   6.8252420  14.6770048  48.6824942  97.0606899  92.7502060
  48.8915634  97.8951263  93.1700230  48.9912462  97.1615982  91.8498039
  82.8035927  26.8542409  15.6813765  82.6153946  27.7916884  15.7261765
  82.3475456  26.5557337  14.8945129  37.6307869 107.3459530  31.9825673
  38.4092402 107.0440102  32.4506235  37.2941184 108.0653381  32.5167608
   3.6136684  11.5710771   4.3487445   3.8247067  11.6902673   3.4227377
   2.6577535  11.6068506   4.3830749   7.1749729  87.6319408  80.5859756
   7.7792001  87.0861149  81.0891819   7.5207746  87.6121044  79.6936369
  90.0430382  98.5193154  95.8022800  90.3828609  98.6830279  96.6820240
  90.6008423  97.8228566  95.4558214 113.9542961  17.8283501  19.5160675
 113.7872410  18.7275052  19.7986329 113.0868340  17.4261320  19.4717610
  69.7607136  17.6638174  16.6552377  69.2706299  18.1557107  17.3140931
  70.6369591  17.5702071  17.0289457  61.1350584  15.6237352  33.4208560
  61.0141897  14.7434378  33.7768030  62.0816278  15.7078004  33.3060956
  87.3982239  39.9747086  19.7614026  87.1948242  40.8566427  20.0729299
  86.7194366  39.4216013  20.1481199  85.4973125  34.0899849   5.1129049
  85.7445431  33.3906746   4.5078641  86.1701202  34.7600651   4.9922657
  97.1243000  22.5829649  13.5831785  97.0843792  23.3942151  13.0767131
  96.6121864  21.9561625  13.0722094  94.7282124  23.6106586  45.9000158
  94.0629673  24.2453575  46.1661673  94.5894623  22.8612041  46.4790678
  63.9223289  23.2285380   0.6180554  63.4004927  23.5964680   1.3311777
  63.2766438  22.9387951  -0.0264367  85.2323246  43.3800411  12.5533235
  85.8138943  44.1031170  12.7882004  84.4307995  43.5465193  13.0493808
  88.5802937  11.1608493  18.2474303  88.0838013  11.5550816  17.5302756
  88.5640621  11.8204224  18.9409232  20.8316970  10.8210897  21.3533831
  21.4447856  11.4533603  21.7283368  20.8765316  10.0666606  21.9407988
   8.5321677  34.9325466  20.4822016   7.8354603  34.6245170  19.9025917
   8.9114308  35.6821823  20.0234699  82.9799747  34.1367173   2.2633053
  83.4016037  33.3125567   2.0199418  82.2434998  34.2171001   1.6571961
  94.0281105  73.5694933  72.3004675  93.8155842  74.4756746  72.5238514
  93.4059715  73.3408260  71.6098928  77.4555969  38.7569189   5.1895952
  77.6956654  37.9443812   5.6349969  76.5678263  38.6003590   4.8677552
  98.5433292  34.5636344  50.9942150  99.0524483  34.1108036  50.3219175
  99.2005157  34.9343085  51.5832281   4.8792386 103.2674789  91.0484505
   4.9298462 103.5305214  90.1294899   4.0837592 103.6882877  91.3745785
 107.8583527 103.2002831  94.0332699 108.2543373 103.5066509  94.8491001
 107.8126144 103.9809513  93.4812832  17.4342859  96.6602612  88.8225365
  16.8975294  95.9618855  88.4478474  16.8230271  97.3835754  88.9618969
 102.7509499  65.1503611  26.6302276 102.3861217  66.0028553  26.3927746
 103.1169224  64.8105955  25.8136153  13.9175427 106.2748909  26.0899162
  13.6295450 106.9080067  25.4323101  14.8734128 106.3092899  26.0530448
  66.6100788   9.5218623  32.0376706  65.8877373   8.9403141  31.8004823
  66.2555933  10.4034770  31.9222283   8.9895684  81.4715099  86.3324356
   9.5721120  81.3189220  85.5883980   8.5719723  80.6242466  86.4873695
  44.3394232 101.0463810  43.0815983  45.0290108 100.4059601  43.2564116
  43.5969687 100.5226803  42.7803707  40.8742666 105.9102821  91.0772038
  41.6739941 106.2983227  91.4322948  41.1833525 105.2521706  90.4546356
  90.9682751  42.1239424  27.8811073  90.5939960  42.8730965  27.4175167
  90.4000092  41.3897848  27.6480341  70.4294586  39.2079377   2.1744935
  70.3501272  38.2541108   2.1869037  71.3003826  39.3711519   1.8124345
 103.6030579  52.5119781  16.9405222 104.0596008  53.2792091  16.5953231
 104.2341232  51.7977524  16.8518615  14.3171084  72.6027918  93.7045002
  14.2261374  72.4266815  94.6409512  15.1779056  73.0129051  93.6204243
  23.4534383  91.9264030  90.0789928  23.0469918  91.3782501  89.4077396
  23.1391668  92.8103447  89.8889923  20.6289840  81.9378948  85.6094170
  20.5459166  82.3480701  86.4702892  21.3843155  82.3696327  85.2102852
 111.6573524  48.0379248   0.1580671 112.2274017  47.3873425   0.5679657
 112.2501087  48.7389421  -0.1129485  25.8698177  87.5733376  76.4228201
  25.1497841  88.1190872  76.7389488  26.3325286  88.1276989  75.7944775
 112.9978848  55.4130936  16.4186478 112.7255440  55.0112391  15.5936790
 113.7793159  54.9242258  16.6767156  81.9909668  38.8284945  10.0008798
  82.0963764  39.5157266  10.6587780  82.8226376  38.8209081   9.5270765
  90.5660439  36.4468741  17.0400202  91.0509586  35.9816694  17.7216899
  91.2395573  36.9047189  16.5370393  27.3664188  90.5144215  95.2700615
  27.4656487  90.8901978  94.3953228  26.5418959  90.8767509  95.5942726
  92.1668816  74.3643141   8.1588995  92.3069096  73.4518957   7.9056919
  92.6612854  74.4657421   8.9722323   6.8758845  80.8370686  20.2568269
   6.5087354  81.0495472  21.1148977   7.8185225  80.9668636  20.3608370
  95.9682369  75.2696085  29.1741061  95.3553963  75.0666094  29.8808217
  96.7127228  74.6880388  29.3282437  43.1823587 103.6868858  93.6088371
  43.7838364 102.9574203  93.7582779  43.4891462 104.0874958  92.7954292
 101.7591476  18.3178818  23.1962156 100.9179688  17.9626191  22.9090953
 101.5704441  18.7277651  24.0403819 102.7194023  71.2585878   6.4933103
 103.1294918  70.8635426   7.2627258 101.7822361  71.1089182   6.6179925
  52.4593210  10.0115037  95.6693935  53.3975792  10.0041080  95.8587265
  52.1225119  10.7632089  96.1569786 104.7954845  29.6628451  15.1563454
 103.9867878  30.1741838  15.1283824 105.1450920  29.8154163  16.0342562
  88.7643242   0.9315699  18.4302354  88.4777641   0.2606766  17.8105474
  88.1594944   1.6602790  18.2909703  60.7694817  16.3234043  94.9960327
  60.0501728  16.6441655  94.4520378  61.5484524  16.7499769  94.6389961
  55.7416153  87.7712154  89.3161678  55.1131344  87.4118423  89.9423313
  56.5096045  87.9874897  89.8449898  79.1020727  64.6515083   3.3052143
  79.6527529  64.3611050   4.0322992  78.5265779  65.3126431   3.6898315
 106.8001270  28.7151194  13.3004379 107.0607376  29.4234419  12.7117193
 105.8571720  28.8334346  13.4147787  30.2295303  26.9143772   5.8585626
  31.1116314  27.0464849   6.2059480  30.3682160  26.6204095   4.9582395
  71.4461374  30.2913165  11.9249296  71.6528511  29.4151020  12.2501194
  70.6250906  30.1812792  11.4453423  88.3710003  51.4632607   8.3331490
  88.7542915  50.5964994   8.1988311  87.7054310  51.3288927   9.0078264
 111.3391018  49.1719437   9.9436682 111.8828869  49.9440622  10.0997388
 111.5370178  48.5876942  10.6755948  44.3891573   3.0617356  79.0507793
  45.1266956   3.6394271  79.2471123  44.2090416   3.2103157  78.1224918
  87.5667572  31.3171530  14.9971211  86.8973064  30.6559348  14.8214400
  87.9431343  31.0592437  15.8385789  78.5769701  62.6048517  10.1075542
  79.3261957  62.0459461  10.3137529  77.9302025  62.0087385   9.7299600
  65.5779886  50.7619619   8.4280592  64.7114325  50.4039621   8.2353282
  66.1627817  50.0049162   8.3944702 112.3472977  66.6372871  35.8102608
 111.3953304  66.6667604  35.9057641 112.6822376  66.8802166  36.6734147
  87.5147724  45.3176069  21.9883490  87.9711819  46.0815668  21.6358066
  86.9444180  45.6728458  22.6700687  34.7961879  14.6010280  94.2114735
  34.3463969  14.6692395  93.3692932  35.6676817  14.2718136  93.9915848
  56.5157080  83.9397717  86.3652706  55.5813980  84.0824223  86.2137890
  56.8047476  84.7229767  86.8335438  75.3015041  92.5157166  10.1357746
  74.3829584  92.2620583  10.2261400  75.2992964  93.1830692   9.4495761
  93.4297180  41.8401766  24.9854326  94.0355206  42.5734091  24.8777437
  92.5978851  42.1640205  24.6398735  23.4433079 111.5046310  88.4170628
  23.6787367 111.2081814  87.5378990  22.7418160 110.9130669  88.6894512
   7.6125175  67.0195913  20.0606370   6.7872757  67.4654579  19.8698139
   8.2861167  67.6759291  19.8825407 118.2855511  75.1743221  36.0216236
 118.5228348  76.0700083  35.7814527 117.3288155  75.1796389  36.0508084
  82.7407646  39.7356081  22.2058821  82.4248791  39.7062993  23.1089854
  82.2805691  40.4784393  21.8151665   1.3230363  83.9678192  81.2073612
   0.8253743  84.0225697  82.0231915   2.2010627  83.7012577  81.4798450
  91.6463470  49.2927599  13.3224189  91.3557148  48.3811855  13.2940972
  91.5559292  49.6010971  12.4207628 110.7531738  73.1597757  29.4031239
 111.2551785  72.3556376  29.5357323 109.8932266  72.9698849  29.7781920
 114.5063305  69.3355846  49.1661882 115.3999996  69.5726919  49.4139051
 114.2329693  70.0278330  48.5642719 104.4021797  33.3901739  16.0930181
 104.0801716  32.9003143  15.3363276 104.0942478  32.8915405  16.8498373
  65.0579309   6.6542149  79.2387104  64.9377823   6.8268538  80.1725101
  64.2045307   6.8430525  78.8484812 107.1603680  43.6995125   1.2345989
 106.3959026  43.7829304   1.8045683 106.8266010  43.2685137   0.4477855
  14.3007731  37.8477025  22.7686644  13.9420128  37.7622151  23.6519623
  15.2495754  37.8535247  22.8950429  94.5924187  20.3512406   3.2981664
  94.1568375  20.8406138   2.6003018  94.7290421  20.9952497   3.9930159
  49.8897076   6.8844146  75.6271648  50.7788229   7.2389317  75.6227350
  49.3561840   7.5805855  76.0104799  87.6012707  46.7016935   6.9991535
  86.8096066  46.9468069   7.4781305  88.3201504  47.0088863   7.5514871
   4.3079931 108.0185413  91.4944553   3.6695364 108.3877563  90.8843040
   3.8328555 107.3202133  91.9448090 102.8316212  24.9235797   7.0740068
 103.5986900  25.4923749   7.0083666 102.8022671  24.6664524   7.9955578
 106.7167568  37.7767229  13.7905872 106.5227985  36.9017363  14.1267586
 105.8660221  38.1246400  13.5233235  73.0808926  43.4672165   5.7638997
  72.8567982  42.5539064   5.5853599  74.0334463  43.5016584   5.6761986
 102.0125866  45.4856062  27.5151181 101.2079144  46.0033369  27.5413346
 102.7126884  46.1239910  27.6513457  79.4993877  62.7494431  52.1230221
  80.0953197  62.1735048  51.6440773  78.8332224  62.9927826  51.4801836
  75.8241045  48.3399966   0.4729909  76.7506086  48.3610919   0.2334375
  75.4790461  47.5663474   0.0273199  36.4840555  53.8663578  12.7327883
  35.9333992  53.8156557  11.9514823  37.1484017  53.1897879  12.6019061
  98.4839249  63.6812162  19.1990697  97.5634766  63.4185505  19.2005455
  98.6183834  64.0780210  18.3384323  59.5861912   4.6647000  93.3401489
  59.8397636   3.8471317  92.9117680  59.2851973   5.2261209  92.6257038
  89.2583752  36.1859250   2.2525322  88.4400463  36.2315845   2.7469817
  89.9342155  36.0616016   2.9188800  94.6674442  54.0457821   1.0782803
  95.4102898  54.2110968   0.4976906  94.5609093  53.0946064   1.0660273
 112.0573997  38.9260483   7.3998296 112.8702450  39.2566729   7.0174766
 111.4974213  38.7382364   6.6465777   1.4232574  87.5190449  84.1711426
   1.8787405  86.7656422  83.7954521   2.0925321  87.9722977  84.6838474
  92.0889759  29.7271323  36.8754268  92.8007126  30.1996493  37.3071551
  92.1745205  29.9581885  35.9504795 109.8155212  33.2540774  25.0671434
 109.0531921  33.8301492  25.1239586 110.4725933  33.7715387  24.6016073
  33.2364655  11.2846065  87.3582935  32.6376486  11.9228268  87.7460098
  34.0330219  11.3530087  87.8846455  74.0882063  39.0134287  12.3302102
  74.4509792  39.4378781  11.5527320  74.1272306  39.6858096  13.0103672
  94.1911507  64.9171734  13.6405265  93.6308670  64.7034693  12.8944445
  94.0568542  64.1958666  14.2552733 106.4402866  62.9966211  12.1050572
 107.0527840  62.9438734  12.8387439 106.4388657  63.9219999  11.8602967
  21.6878986  83.3736038  79.5343256  22.1126461  83.6156082  80.3572845
  21.2574744  82.5397396  79.7231054  95.7394218  51.1345243   3.0890262
  96.6692734  51.1917114   2.8691792  95.3643227  50.5835485   2.4020344
  76.4456797  44.6790695  17.1616495  76.0311747  45.4747009  17.4954021
  75.7204819  44.0683603  17.0299363  86.7529297  89.3116856  46.0855675
  87.5059986  88.8195896  46.4125919  86.0059166  88.7311745  46.2311840
  21.4855123  25.9096146  91.8416214  21.0007858  26.0517097  91.0285568
  20.8079314  25.7698131  92.5031090  78.6370420  19.8869801  92.9114628
  78.7950516  19.5458221  92.0311928  79.3519115  20.5058670  93.0603695
 115.3065872  29.4378304   3.7738067 114.6676064  28.7279820   3.8373676
 115.7701015  29.2700934   2.9532850  87.7645016  53.4493589  22.0082021
  88.5094070  53.2084990  21.4574528  86.9966221  53.2564688  21.4702511
  89.4677258  31.0656404  13.0388105  89.0774632  30.3210974  12.5810170
  88.7361717  31.4704919  13.5048139  77.3561382  31.7407155  31.1654902
  76.8279409  32.2474003  30.5486345  77.3779821  30.8587980  30.7940388
  93.6493492  81.2692451  81.9374561  93.6370945  81.0360146  82.8657246
  94.5762825  81.3946724  81.7342377  59.9938154  91.1735535   7.4381661
  60.7480860  90.9644222   7.9891402  59.7532701  90.3394985   7.0347750
  95.7367897  56.3816214   8.0579334  96.1674404  55.5507374   8.2589358
  95.9081268  56.5210438   7.1265703 111.0785198  87.8914833  94.1857624
 110.3960705  87.7523899  94.8423862 110.6955814  88.5175419  93.5712337
  66.6580200  32.6441097   9.4387698  67.4326277  32.0855808   9.5040226
  66.6214371  33.1019616  10.2785695 106.6727352  89.0349770  67.4683285
 106.8276119  88.0905056  67.4536180 106.0807133  89.1691113  68.2084274
  61.8994856  33.5462070   4.6993354  61.3919544  34.1116524   5.2814984
  62.6364708  33.2514548   5.2343220  96.9244480  23.9991498  49.2450571
  96.5727711  24.6198201  49.8832750  96.1837864  23.4328079  49.0284777
  28.0383492  95.9638214  90.5090904  27.8152204  96.8738842  90.7045841
  28.9383698  95.8658028  90.8198833  75.3865671  46.3618231  24.4746566
  76.1695910  46.1023045  23.9891148  74.9944639  45.5352736  24.7562742
  13.6056840  75.1625538  77.4263763  12.6789498  75.0056267  77.2453547
  13.6058056  75.8171177  78.1247854  36.3310575  30.0361037  81.0745239
  36.9589162  29.3723130  80.7892036  35.4770708  29.6140242  80.9807682
 105.4064369 105.8689880  62.0665598 104.7418404 105.6882381  61.4018297
 106.2054539 106.0368919  61.5669394   1.3760719  78.3662844  74.0208387
   1.5557030  77.4918747  74.3663454   2.1994571  78.6371756  73.6147785
  12.6174748  26.2967539  27.2076178  11.9620347  25.6347275  27.4275041
  12.5642920  26.9326735  27.9210687 110.6567764  38.6306977  34.0179968
 111.1075115  39.2324305  34.6104336 111.2935543  37.9354072  33.8527346
  59.7767735  59.1929960   7.3682004  60.1521492  59.0856266   6.4942455
  59.0567303  59.8115873   7.2452605  60.4234838  26.0199308   0.6203677
  60.9889126  26.3612270   1.3132165  61.0261869  25.7751870  -0.0818291
   7.0794046  17.8357220   2.5334713   6.1445522  17.8347993   2.7390972
   7.3693120  16.9454706   2.7325630  22.9140782 100.8362865  79.8865557
  23.6465740 100.9519100  80.4917908  22.2277880 100.4301167  80.4159546
  95.8486557  27.3606706   9.6277303  96.0842705  27.7425909   8.7822372
  96.3848782  26.5703177   9.6913016  54.4691801   3.0303341  84.1619587
  55.2225828   2.9476020  84.7465801  53.7092304   2.9232061  84.7340012
  38.9931631  93.8780117  92.2903156  39.3821740  93.0157757  92.1438789
  39.1841722  94.3661118  91.4893818  99.6262455  61.0240173  35.9793687
  99.6235275  60.7438612  35.0640869  99.3942070  60.2365351  36.4715719
  41.9275808  95.6072044  95.0787544  42.0568943  96.5556049  95.0848103
  41.4531469  95.4353523  94.2653656  87.0453739  16.3518178   6.5559524
  87.7846432  16.7649221   6.1097950  87.3300171  16.2705827   7.4662334
  78.9616489  71.2610054  20.1674438  79.0488529  71.4146709  21.1081958
  79.8612404  71.1571550  19.8573172  12.9807293   6.6129076  41.6538715
  12.6678479   7.4282175  41.2619448  13.4276879   6.8880337  42.4543476
  75.5152082  14.0740860  96.6458416  75.6773996  14.5132983  95.8109665
  75.7214355  13.1547642  96.4768696  91.1147881  34.3147898  19.7503018
  90.3467274  34.7406769  20.1310158  91.8355083  34.5561194  20.3321481
  38.5919726 111.6153854   6.7861307  38.6322605 110.9195292   6.1300880
  38.1394303 111.2174858   7.5298458  96.1339188  57.9197836   5.3931099
  96.8966770  57.4099636   5.6660831  95.6584454  57.3396969   4.7984239
  94.1691303  43.8648319  17.5793862  93.9869022  43.2105446  18.2538712
  93.5214233  44.5528984  17.7319562  80.9054470  37.7265286  12.9807758
  80.4795265  36.9648886  13.3741307  81.8283558  37.6334548  13.2170272
  96.9080925   7.2726917  78.3590794  97.2952938   7.3358327  77.4859715
  96.4420319   6.4366287  78.3545160 100.2678585  74.2821169  24.8731899
 100.8531570  74.2505407  24.1164422  99.4111347  74.0368700  24.5237589
   2.5769433  50.3768444  46.5860987   2.4451070  50.0264740  47.4670601
   1.8915319  51.0374737  46.4860296 114.0800095  15.1397836  12.7390695
 114.4071388  15.5297792  13.5496974 114.8570061  15.0454628  12.1880639
   7.5584900  39.1510606  22.0142460   7.6592481  38.5809016  22.7764773
   6.7617333  38.8389301  21.5853119  49.7765779  85.8303165  89.7437572
  49.0547180  85.4503155  90.2445030  50.3197479  86.2666988  90.4000854
  84.6436214  19.4222760  19.3950009  85.4505062  19.1403961  18.9640617
  84.0126228  19.5196414  18.6818421  93.8486576  32.5993824   9.1985649
  93.6764240  33.4179044   8.7331766  93.7029076  32.8126645  10.1202476
 103.7614059  13.5783887  25.6308961 103.0112839  13.1296551  26.0210180
 104.0023232  13.0345631  24.8809314  54.7268438  61.4177132  11.4645255
  54.1710472  62.0049715  11.9768262  54.8745441  60.6662226  12.0387006
  45.0637150  15.4164314  92.1648598  45.9991932  15.4152846  92.3676205
  44.8285532  14.4899690  92.1139050  15.2129173  28.9788270  37.1576285
  14.7978735  28.9313197  36.2964010  16.1166692  28.7036943  37.0034695
  89.3926144  23.0896807   3.2393554  89.4268417  22.1373057   3.3290401
  89.5073318  23.2462621   2.3020434  57.7901888  63.7610197  18.4661126
  57.5467110  64.2733574  17.6951027  57.3603249  64.2072344  19.1957271
  88.0443001   5.3384620   7.2936803  88.1416798   4.4418630   7.6143974
  87.6663399   5.2404970   6.4197338  91.9879436  51.0967064   8.1606936
  91.4354610  51.5972567   8.7610674  92.6438522  51.7250013   7.8585917
  82.2600937  30.6036353   8.6137623  81.9691849  29.6936131   8.5549110
  82.1937847  30.9346867   7.7180845 100.4374504  23.1882572  13.2993734
  99.8116970  23.8945365  13.4601140 101.2423134  23.4791732  13.7280905
  52.2086906  50.5016851   2.8764871  51.8879461  49.6727180   2.5212872
  52.9540777  50.2551985   3.4240973  74.1941833  21.3590956  32.3106623
  75.1372910  21.3285089  32.4714255  73.8576698  20.5547619  32.7056766
  93.0070305  48.4244156  20.5906367  93.0051041  48.3531761  21.5451813
  92.3421764  49.0856791  20.3984690  58.5612106  28.7177968  37.7547383
  58.4891319  28.4095883  38.6580896  59.4689417  29.0103936  37.6732087
 104.7221947  26.1924839  11.5423310 103.9305115  26.1766648  12.0801246
 105.4261494  25.9534550  12.1452808  26.4571190  11.8623698  89.4153881
  27.2468829  11.3320982  89.5217514  25.8966064  11.3440835  88.8379383
  97.3704720  60.0262070  26.1397934  97.4952412  59.1089201  25.8963847
  96.8993664  60.4085207  25.3994370  46.9065714   3.7998047  74.6024752
  46.9924974   3.4687459  73.7084675  47.7795267   4.1251466  74.8223400
 104.1309357  60.4982662  27.7626944 104.6719646  61.2704039  27.5973773
 104.1938496  59.9848318  26.9573021 110.3906822  57.2713184  15.1695549
 110.2728081  57.8958559  14.4538093 111.3332367  57.2732496  15.3363264
   4.1585961  32.4407530  27.2092414   4.5162994  31.5670347  27.3670244
   4.5012495  32.6883459  26.3504529  80.0724220  41.5879440  10.6006432
  81.0292816  41.5732527  10.6215608  79.8252249  42.1443701  11.3392341
  37.7944136  26.7140341  58.8741112  37.1967363  26.1787796  58.3520794
  38.3669090  26.0807920  59.3071079  30.3290486  58.4823322   3.5561442
  29.4630861  58.6862135   3.2029107  30.9114051  58.5165262   2.7972481
  69.9687672  33.7195110  77.5435734  70.8345318  33.8225436  77.9386282
  69.4523525  34.4386530  77.9074144  26.5635061  78.8226175  94.6180153
  26.8154788  77.9408646  94.8923397  27.0320725  79.4031143  95.2177620
 109.8097324  95.4137707  26.8635297 109.0761757  96.0229301  26.7795944
 110.1341820  95.5507660  27.7535868 115.1852512  88.1011486  22.6768589
 114.8115730  87.6955795  23.4592342 114.9505520  87.5072193  21.9638443
  51.1279392 101.8673897  87.1895695  50.5663061 102.3025036  87.8310394
  50.5620766 101.7301369  86.4298344  20.5326700  41.5123892   3.8842168
  21.1592293  40.9354687   3.4473923  20.0519729  40.9370995   4.4793639
  86.0084629  50.4663086  16.8743980  85.2833080  50.3038740  17.4777174
  86.0431480  51.4193821  16.7926872  58.4231806  94.4825459  60.9322977
  58.9589119  93.8830662  61.4517641  57.5614500  94.0670681  60.9001875
  25.9115744  20.2573967  78.5983229  25.0095749  20.0234199  78.3795023
  26.1673999  19.6239626  79.2688036  88.6464977  52.0792723  19.1976249
  89.2008305  52.6687717  18.6863232  87.7540970  52.3784590  19.0234375
 114.4564056  65.2418280  31.5487123 114.7586918  66.0924196  31.2303615
 113.8171864  65.4540205  32.2288537  32.6456881  48.2923317  18.0346131
  32.2974992  48.2220078  17.1457648  32.7797842  47.3859835  18.3117211
   2.9188794  76.4294481  18.4586143   2.4116811  76.0728407  17.7293599
   3.2831240  75.6598616  18.8959873 111.7284870  50.5909443  17.1823835
 111.5723610  49.7575283  17.6265395 111.2255478  51.2295866  17.6877749
  21.8208289  30.4486251   8.2708341  21.9479060  31.0647297   7.5493801
  20.9532833  30.6595659   8.6159408 100.0205803  83.7498093  36.3152933
 100.3537464  83.7532711  37.2126341  99.3228149  83.0945873  36.3213873
 117.8240871  76.3287306   5.1899022 117.0184040  75.9786463   4.8097083
 117.5323582  76.8231726   5.9558374  83.4024715  33.3344293  21.7948318
  83.0397701  33.6260056  22.6312923  82.9467201  33.8622427  21.1391401
  76.2242699  16.6480625  75.9365034  76.6344738  15.7895076  76.0406542
  76.9567060  17.2479093  75.7952738  47.1968651  14.2249000  52.4756908
  47.3461866  13.7653947  53.3020020  47.4855566  15.1217246  52.6447868
 111.5556240  78.5092831  16.2051523 110.9455681  78.4028244  16.9350302
 112.4159145  78.5748959  16.6196799   7.7103382  98.4946442  92.0833302
   7.6269841  99.3873119  92.4186325   8.2383239  98.5850811  91.2900639
  80.2589989   7.2507226  83.6807537  80.1037216   7.2523320  82.7362347
  80.8360386   7.9997373  83.8298893  37.9409075  13.4562790  47.0012569
  38.3057880  12.5832427  47.1458244  37.3866653  13.6138105  47.7656031
 104.1621208  70.5219126   8.7457931 103.6134911  70.6113815   9.5250458
 104.8829269  71.1353111   8.8886404 107.3582268  41.9609356  91.1684990
 106.5256691  41.8195438  90.7178497 107.2855186  42.8421640  91.5350819
  13.4588277  53.7279701  15.3542423  14.1653228  53.1923342  14.9934232
  13.7529862  54.6298790  15.2267182  41.9542694  11.1310041  93.5393429
  42.0498037  11.3369083  92.6094437  42.2850466  10.2365673  93.6218166
  17.4349368  64.7244787  21.7974353  17.8154731  65.1574516  21.0332656
  18.1834090  64.5367765  22.3638201 102.0635891  32.2991872  11.6420031
 101.7098522  32.1149611  10.7718492 102.8945351  31.8247771  11.6681159
 102.4997520  43.8583708   5.2794981 103.2763290  44.2064190   5.7177007
 102.5141335  42.9214573   5.4749942  11.2630033  89.2683697  86.4832497
  11.9092822  89.7897720  86.9593716  11.7577124  88.8687611  85.7678413
  31.7558455  89.7083378  80.8858776  32.4741459  89.3237400  80.3835201
  31.2941146  88.9567089  81.2574768  59.0075588   5.0663763  90.6589603
  59.8573399   4.8053265  90.3040504  58.4355736   4.3187791  90.4852867
 106.2438679  51.4188147   8.8920432 106.4253139  50.5313921   8.5825348
 105.2995968  51.4295292   9.0484816 102.2691154  41.1148453  12.0421338
 101.7176247  40.3324842  12.0415092 102.0833302  41.5381765  12.8802896
  19.3495846  77.0431137  91.1691284  18.8565826  76.6347218  91.8807411
  20.2299571  77.1624994  91.5253925 116.6821098  53.3381701  21.3078690
 115.9230900  53.4787989  21.8738508 117.3240662  53.9838028  21.6032958
 107.4412918  80.5375671   1.9922881 108.0854797  79.9719524   2.4181229
 106.9698048  79.9565077   1.3953777  11.5448594  64.3943453  24.8372269
  10.7824171  63.8627291  25.0659156  11.2543941  65.2973509  24.9654651
  45.4764509  43.2326412  10.7453823  46.1357403  42.8093767  11.2953067
  45.5915117  42.8332376   9.8831350 114.5041561  56.5015221   1.1727246
 113.9842796  56.0041428   1.8040511 113.8586903  56.9959402   0.6675883
  12.1482790  66.9845724  25.9118724  12.1685541  67.9280996  25.7519507
  12.3277998  66.8963861  26.8479419  26.4229608  61.2103844   1.9120236
  25.8237600  61.5682125   1.2569274  26.1362720  61.6009521   2.7375522
  48.6942959   8.2392889  90.5733299  48.7981462   7.8836972  89.6907234
  48.5384417   9.1739929  90.4381657  98.4073830  77.4964762  23.1939220
  97.7000523  77.0047617  22.7766275  98.3052540  77.3165178  24.1284895
  19.5818472  57.4528360  51.3389730  19.8362601  58.0955410  52.0011234
  19.4852746  56.6337872  51.8248415 109.0357399  36.3935137  11.5195501
 109.2320442  37.2390199  11.9230533 109.6929073  36.2988329  10.8300567
  71.1863041  35.5286741  90.9037399  70.3578854  35.9258938  90.6350899
  71.1302948  35.4801345  91.8580627  67.7450132  78.1149244   5.6960642
  68.5756969  77.6396942   5.6770915  67.4502897  78.1185389   4.7853741
 111.3858509  65.0527763  23.9921832 112.2065258  64.9254513  24.4681191
 111.4599800  64.4794464  23.2292747  13.5111403  60.3207493   8.2230258
  13.8367784  60.2041483   7.3305035  13.5268283  59.4412661   8.6005151
  43.4526110  95.2131844  88.7646103  42.7255774  95.8347321  88.7279797
  43.3891773  94.8214722  89.6356869  86.1277008  34.9897933  94.8837757
  86.4663315  34.2628837  94.3611240  86.8983459  35.5219817  95.0815582
 101.9802570  71.1601925  10.1591516 102.0243549  72.0834970   9.9105567
 101.2166786  71.1030102  10.7335413  49.4972992  24.8672748  85.7738495
  49.6400976  25.0313973  86.7059994  50.1602745  25.3984785  85.3328133
  80.3360367  51.6170502  11.9429421  80.0463867  50.7170057  12.0921361
  80.9129906  51.8086529  12.6822960  93.3207989  76.2895823  40.9272528
  93.5501575  76.7318296  41.7445946  92.7871418  75.5433321  41.2002945
 115.6333447  38.6186314  32.9754734 114.9125099  38.9036465  32.4138641
 116.0947132  37.9594421  32.4569798 116.7228880  58.5262966   2.0492746
 116.7543576  58.3155107   1.1161017 116.0369071  57.9583359   2.4001095
   3.9595839  28.3828139   9.7161412   3.9133772  27.4606776   9.9686527
   3.0890977  28.7289190   9.9128574  14.3428898  77.4782228  19.7427869
  14.8011863  76.8948984  20.3477025  14.5827341  77.1579456  18.8732314
  57.7377748  92.2571754  81.5294266  56.8397951  92.4245167  81.8155289
  57.8516865  92.8145599  80.7596302  56.6911888 108.4469032  94.6056175
  56.6953421 108.8820744  93.7530708  55.7644463 108.3788490  94.8352814
  57.2743034  85.8934975  87.7947712  58.0362749  86.1087704  88.3326244
  56.5415430  86.3255119  88.2337093   5.3138435  72.4781609   3.8973272
   4.6745148  71.7793512   4.0357402   5.0498134  73.1683064   4.5057800
  89.0055752  62.4737310  52.6516724  88.6056423  62.9520988  53.3779240
  88.8725567  63.0387592  51.8905687  96.3869381  89.4681072  10.6399179
  96.5144634  89.3130398   9.7040105  96.3104820  88.5927105  11.0194945
 110.1645660  75.7435226  13.9699566 110.1974201  75.7129192  14.9261022
 110.1467228  74.8249435  13.7013912 106.9988441  78.1703949   8.5085720
 106.3275909  77.7276421   7.9893285 106.6554737  79.0541029   8.6404634
  57.7449989 101.9782448  93.5999966  56.8641758 102.2206974  93.8856602
  57.8236818 102.3524380  92.7224827  19.0036476  96.8113995  37.0785666
  19.1162586  95.9022427  36.8011189  18.8223672  97.2882748  36.2686515
  16.9654810  85.4333210  94.5503807  17.5946760  84.8493481  94.9738407
  17.0978189  85.2890491  93.6134148  99.8026562  47.9492569  40.6452465
 100.7567024  47.9804134  40.5741882  99.5623207  47.1008635  40.2728271
   1.9293822  81.7958069  20.6442595   2.3000592  82.5550652  20.1944089
   1.3752627  81.3749409  19.9869561  22.2600985 103.1845284  78.5082245
  22.4570823 102.2844601  78.7676620  21.3810515 103.3456802  78.8510704
  53.3398485  77.1893692  18.8160503  52.3937082  77.3154116  18.8879263
  53.5130596  77.2073936  17.8748250  90.2065754  29.5801759  20.3504705
  90.6871700  30.2416563  19.8527658  90.6649780  28.7606931  20.1645923
  96.8446350  78.9725971  19.8347640  96.8174934  79.4849205  19.0266669
  96.3383198  79.4882870  20.4624104   1.8165140  79.2335224  18.6314750
   2.3583148  78.4448957  18.6588526   1.1006795  79.0535975  19.2409337
 102.1433258  81.4688110   6.5609133 102.9670906  81.4744568   6.0734504
 101.5052795  81.1022186   5.9487528  24.7302628  68.1490707  27.4611759
  25.5608582  68.2551050  26.9973874  24.9752021  67.7802944  28.3098459
  24.4150424  98.6068726  72.2138071  25.1144481  98.4851456  72.8558731
  23.8669538  97.8275585  72.3060322  96.8064404 103.4798717  27.8405428
  97.1140289 104.3138790  28.1955886  96.4302731 103.7058640  26.9898629
  79.9538422  59.8930120   3.3308199  79.2489910  60.3981400   2.9255211
  79.5409441  59.4646311   4.0806440  22.9891777  91.2259769  83.3581543
  23.1825471  91.4232540  84.2746258  23.0227733  90.2707577  83.3065224
  86.2464905  85.6374645  25.7960176  87.0597267  85.2019024  25.5407667
  85.7807636  85.7774067  24.9715519  41.5481138  98.4644699  81.3974380
  40.7473707  98.2470989  81.8747234  41.6871119  99.3949127  81.5740395
  19.7954559  15.2088344  18.7495804  19.1948795  14.9699461  19.4556057
  20.6583047  15.2232862  19.1637254   7.5367641  85.4137611   8.6520052
   7.1964866  85.7284355   7.8144944   7.7536398  84.4952011   8.4925044
   2.4488743 103.9771557  82.2042274   2.8911513 104.3495750  82.9670620
   2.2987311 104.7248268  81.6257191  74.8304319  68.8705921  17.6230180
  75.5167627  69.2195749  18.1916940  75.0626707  69.1822958  16.7482972
  92.8589249  70.2934742   2.2584438  91.9608498  70.2944851   1.9272470
  93.3960342  70.0867033   1.4935988 100.0784206 105.3266144   5.9929472
 100.7196236 105.1688099   6.6859019  99.9034691 104.4597816   5.6265879
  81.3446331  43.1872797   2.7545500  81.3656998  42.9468393   3.6808205
  81.7516422  42.4464035   2.3054682   8.8465881 106.0999966  85.0596714
   9.4318175 106.5558720  85.6645870   7.9982245 106.5266895  85.1798725
  96.6204834  52.8894711  31.6042161  96.6020584  51.9479895  31.4324594
  95.8445740  53.0502081  32.1412063  95.9527969 105.2449036   5.0727391
  96.2147903 106.1631966   5.0068170  96.1938381 104.9904156   5.9634525
  82.8137207  61.8658304   7.9837978  83.5623074  61.8488550   8.5800940
  82.6047039  62.7950191   7.8881735  44.4877958  93.3295727  86.9044018
  43.9702463  93.9324093  87.4382210  45.3594017  93.3475780  87.2996330
  95.8314514  72.4362755  33.5636139  95.0606632  72.9526377  33.3280540
  96.2509918  72.2367573  32.7267075  66.5706968  24.6547675  84.7230434
  65.9213209  24.1304636  85.1917076  66.2087488  25.5408978  84.7236824
  15.0988865 105.4775333  87.7491665  15.7563913 104.7859383  87.6742363
  14.3881810 105.1957607  87.1732044   5.5683249  42.8435469  89.2478848
   5.4971749  43.7909603  89.1313553   6.5024740  42.6595688  89.1491413
  11.4998889  67.4403000  91.3781548  12.2786415  67.9756021  91.5305614
  11.6480458  66.6490412  91.8960285   7.5654131  87.4405766  69.4974995
   7.5519317  86.7899609  68.7955284   6.6862452  87.4045944  69.8743296
 106.2515068  71.8439293  78.2048273 105.6795311  71.1121845  77.9732418
 105.8206558  72.2572136  78.9530230 101.7550755  46.6809320  35.1445556
 101.1349678  46.5825510  34.4220495 102.4863529  47.1702003  34.7676134
  17.6958477  74.8999500  87.9837894  16.8935871  75.4127407  88.0820465
  17.6595306  74.5679426  87.0867443  73.5061073  33.4012508   2.3639470
  73.5966730  34.2152023   2.8594413  74.2057657  33.4387350   1.7117964
   9.2199016 103.5413361   0.6363565   8.4848577 103.4263134   0.0341006
   9.1092157 104.4266510   0.9830361 101.1511612  78.3778095  72.6155043
 100.8014774  77.4909163  72.7013874 100.5752373  78.9159727  73.1585646
   2.4094737  69.8618555  67.9115057   2.7586946  69.9067402  68.8015985
   1.6760936  70.4769850  67.9106522 108.8860989  92.0812130  60.4856062
 109.6912575  92.5021267  60.7869101 108.2127762  92.7544880  60.5834675
  20.4411745 103.3661366  59.6017408  19.8863685 103.5821915  60.3512335
  20.5508590 104.1961575  59.1377783  23.1351542  12.5334001  66.7445993
  22.9592180  13.4025383  66.3842154  22.4083710  12.3719621  67.3462248
 104.3457317  16.8686843  16.3433003 105.0645828  16.3197422  16.0300076
 104.7766304  17.5808227  16.8159747  10.2982378  94.1809654  83.0741119
  10.5531502  93.3675766  82.6386356  10.5456090  94.0502548  83.9895153
 100.8343983  91.6478062  71.1887074 100.8662033  90.6912327  71.2025833
 101.6996574  91.9116974  70.8757830  49.6080112  28.2448244   8.5901487
  48.9923525  27.8560185   7.9688370  50.4715204  28.0092955   8.2508802
  17.1011198  72.4248934  76.4880419  16.1632514  72.6051426  76.4236593
  17.4126792  73.0182076  77.1715212  26.1755991  87.4094200  95.8107853
  25.8023548  87.4359608  96.6918182  27.1218538  87.4462509  95.9503365
  39.2686129 109.5909691  86.1221600  39.9634171 110.0118351  86.6284752
  39.0251613 108.8241863  86.6408253   5.3589410  98.2319164  87.6992321
   4.8202100  97.4996281  87.9988289   6.2596345  97.9257488  87.8052616
 109.9704933  99.0106964  67.9457092 110.0149250  98.0571747  67.8745699
 109.6205330  99.2977428  67.1022892  90.2945042  47.0299292  17.5548530
  90.6323624  46.1359167  17.6080132  89.8304462  47.1601677  18.3818471
  68.8472843  35.8846974   8.5522527  67.9270887  35.6844139   8.7235928
  69.0799284  35.3260469   7.8106207  33.8927364   0.9035901  51.1380386
  34.0766931   1.2563068  50.2674198  34.7357893   0.5690909  51.4439869
   6.4212823  82.5558472  75.8794546   6.3626164  81.6374397  76.1427498
   6.7321116  83.0101299  76.6625595  65.2364683  46.1868000   2.9689902
  65.6525612  46.1652899   2.1072264  65.0427437  45.2699947   3.1643721
 112.8949547   0.0954293  24.2356896 112.8199863   0.5205087  23.3813381
 113.5603428   0.6043275  24.6988463   9.4910771  62.4313068  73.8466120
   9.6716666  62.2889137  72.9174471  10.2393949  62.0414209  74.2985392
 116.3815784  88.0661964  70.1758957 116.6516399  87.1665764  69.9915791
 117.0422745  88.3944130  70.7858086  91.4776230  85.2922821  70.4733133
  92.2007465  85.7061005  70.0020647  90.8806324  86.0124779  70.6761742
   0.4379901  90.4189205  64.9469137   0.4043826  89.7897530  65.6675005
   1.1726171  90.9928322  65.1641178  49.4717169  17.0392907  37.6069045
  49.0392637  17.5132549  36.8965721  49.3402290  16.1155319  37.3933363
 117.9166317  81.7820740  88.6993408 118.6731815  82.3670483  88.7401104
 117.7831936  81.4996719  89.6041489  91.4748859  18.6049163  13.5805357
  91.4499950  18.6224818  12.6238203  90.7623863  18.0155158  13.8278806
  81.9157696  36.4230037  24.1829133  81.6442871  36.5998101  23.2822084
  82.1045399  35.4846978  24.1963649  91.5658188 108.5297108  40.0359917
  91.0340023 108.7260914  39.2647314  91.2725353 107.6621914  40.3145885
  79.6117401  90.1562786  90.4620266  80.2362347  90.8794498  90.5190563
  79.8344564  89.5887375  91.1999512   1.9804661  85.6411839  57.0319033
   2.1239512  84.6977901  57.1070862   2.6756072  85.9433460  56.4473438
  71.2546825  89.7667980  73.6034489  71.7382383  90.5532837  73.8561344
  71.9327116  89.1371918  73.3582973  23.8768244  86.5562630  89.4703960
  23.6741972  86.0737038  90.2718449  23.4155917  87.3891640  89.5692253
 110.6079578  88.7175655  80.3268242 111.1251259  88.9429665  79.5535469
 111.1955547  88.1824589  80.8603191   0.0228488  75.5537987  64.3222809
  -0.2047838  76.2981033  64.8794365   0.4884898  74.9528313  64.9038744
  30.4560947  83.7275314  93.0791569  31.2825513  83.3261108  93.3475971
  30.4802155  84.6044350  93.4621525  12.8648472  90.2962494  60.9047890
  13.4778225  91.0306072  60.9394884  12.1463299  90.5565739  61.4811516
  73.2943916  52.2020674   1.0590212  73.5316992  53.1114674   0.8776105
  73.1690788  52.1718740   2.0075020  34.4262052 100.6912708  85.3861332
  35.0788569 100.4694557  84.7220039  34.9098468 100.6751537  86.2120056
  86.7155170   4.6787012  84.3405437  86.9887447   5.1442564  85.1310062
  85.8692455   5.0651944  84.1154003  74.8961306  30.8344746  10.6339145
  74.8765469  31.7520213  10.3619695  74.3059921  30.3913450  10.0243199
   9.2866707  69.2198467  81.5917110   9.5303857  70.1308393  81.4276123
   9.7645402  68.7209988  80.9291172  95.4761600  67.2681999  82.6513290
  95.0348568  66.4843130  82.9784489  95.0001621  67.4952936  81.8525219
  87.7357769  86.0214329  81.0985851  86.8639088  86.1728001  80.7336521
  88.1985569  86.8484879  80.9642315  75.4298639  34.2147946   0.5640399
  76.3373280  33.9263749   0.6617603  75.1708698  33.9012241  -0.3024640
   1.2086207  68.0588388  75.2338791   0.8029227  68.7182474  75.7967472
   0.8313760  67.2292280  75.5265617  79.1733384 110.9064496   5.3616309
  79.7982205 110.7409387   6.0675770  79.3609820 111.8020680   5.0807577
  83.0064869  77.4528360  73.6787128  83.7774277  77.5915146  74.2288494
  83.3320618  77.5426865  72.7830791  21.3893867  72.6753807  31.3800955
  21.3279247  73.0533457  30.5028296  21.6283822  73.4123564  31.9422126
   8.9623100 105.3751659  45.9956074   9.2579573 104.9236679  46.7861605
   9.4624507 106.1912346  45.9846354 118.1753119  66.3740349  61.4822865
 118.8288214  66.3410187  60.7836723 117.4038082  65.9478951  61.1089039
  36.7632866  18.5583413  67.2909451  36.8443775  18.1082404  66.4500761
  37.2052598  19.3968248  67.1573925  10.8338523  94.1220379  63.0776882
  10.2084410  93.9016342  62.3873901  10.6513691  95.0391293  63.2823229
  72.1975040  21.1164904   3.6136740  72.6138830  20.3455877   3.9991230
  71.4812708  20.7632017   3.0860111  91.3869762  63.9626408  22.4307942
  91.6728210  64.1477633  23.3253670  90.4509163  63.7795782  22.5114942
  10.4843569 101.9010639  91.5479469  10.0448203 102.0318985  92.3881340
  10.6784117 100.9640789  91.5225124  31.5220666 111.5020561  44.6676493
  31.8868518 111.8393040  43.8494682  31.5204620 110.5514717  44.5553207
  19.6729517  16.2852657  90.1060009  19.4656456  16.8904757  89.3939781
  19.7414446  15.4302049  89.6812534   6.9247723  99.1057301  79.7430801
   6.0680377  99.3318462  79.3809938   7.1096927  99.8019123  80.3734589
  34.5344400   2.6228407  74.2609406  35.2456546   1.9846264  74.3164968
  33.8185167   2.2275504  74.7583675  75.6259298  28.5104918  22.4899268
  75.6291389  27.9230785  23.2456827  74.8514509  29.0586996  22.6159644
 101.1680222  86.8699551  50.9173059 101.0827065  87.3092651  51.7634487
 101.9799709  87.2171593  50.5479574 113.5875988  82.6778984  61.1147404
 113.7069511  82.4442577  60.1942015 114.1615391  82.0775700  61.5905809
  40.8390141 102.7954102  21.5445495  41.6173172 103.0116558  21.0310268
  41.1476851 102.7753925  22.4503946   5.2432793 105.5632305  78.2926273
   4.6235129 106.1534882  78.7212563   5.3954297 104.8689842  78.9337969
  16.8120062  61.3683128  94.5472336  16.7753565  61.8043423  93.6959076
  17.4624836  61.8654728  95.0431633  15.5727351  84.2816162  73.7732363
  15.5111361  84.1621780  74.7209549  15.5225563  85.2291870  73.6474848
   3.9160988  13.6039197   0.6324509   3.2150716  14.0361524   0.1446318
   4.6856752  13.6859810   0.0692011  28.6931586  79.1076565  90.1054859
  28.6970139  79.6583080  90.8884239  29.2809248  79.5539379  89.4958973
  84.4533730  68.1031227   4.0037304  83.6497879  67.7360106   3.6353356
  84.2174149  68.3455658   4.8991504  61.7821407   3.4687409  83.3137512
  61.4572382   2.6762801  83.7411594  62.5966787   3.1962246  82.8912640
  95.8295918  40.9970570  29.5156145  96.6137123  40.7551003  29.0228248
  95.7660103  41.9466591  29.4134283  46.5485620 108.7520790  78.6417913
  46.3364029 108.0550575  79.2625809  47.4702263 108.9492321  78.8088274
  95.8881760  51.7454481  18.9902830  95.0595665  51.4786911  18.5921943
  96.4023685  52.0942593  18.2621586  35.3070545  18.9659321  89.7955227
  36.0204005  19.6034718  89.7653294  34.5165443  19.4835973  89.6427059
  21.9771695 104.1227913  84.0028572  21.1939049 104.6572971  84.1333485
  21.7036510 103.2358932  84.2370319 107.1960449  74.0962124  54.5029449
 107.7265263  73.3393526  54.2539930 107.6379776  74.8422384  54.0975142
 106.0976791 101.3970375  79.1794443 105.4502583 101.6672039  78.5282230
 105.5906200 100.9243202  79.8394823   7.5027180  77.5229359  52.2594833
   7.7083009  76.6128922  52.0454931   6.8160695  77.4635506  52.9237270
  60.5565166   2.2974184  92.3471355  61.3661861   2.0913355  92.8142548
  60.8239746   2.9122299  91.6639805   1.4743568  82.2408676  67.5420666
   0.7630844  81.6232586  67.3721266   1.0384396  83.0176926  67.8924227
  82.1803779  49.9783614  -0.0539141  81.2520023  49.9541572  -0.2857905
  82.2156793  49.6159557   0.8313245  20.8261728  73.9445353  83.6422253
  21.5228868  74.5991802  83.5946655  20.0422478  74.4450617  83.8684273
  37.8938317  80.6405449  60.8425522  37.9192615  79.9332476  61.4869928
  38.6116886  81.2209892  61.0955334  91.2421227  58.9093924   7.0438731
  92.1774864  59.1126204   7.0375633  90.9790421  59.0205145   7.9574764
  82.5813293  66.3817358  74.6152163  82.5922775  66.5268040  75.5612993
  81.6814613  66.5764904  74.3534374   3.2939729  96.0845470  77.3112965
   3.4208840  95.9522343  78.2507753   2.3448530  96.0535526  77.1911144
 117.1221776  87.4065971  92.0042133 116.4259885  86.7694855  92.1643639
 117.2812579  87.3556900  91.0617065  56.0233879  26.7197037  24.4316959
  56.4725780  26.2184620  23.7510920  55.1674318  26.9224954  24.0542769
  10.4119420  90.8970737  50.0518227   9.5917577  91.3845539  50.1285315
  10.7608664  91.1484051  49.1966486  55.8322334  22.6885390  12.0379770
  55.7519865  21.7391825  11.9456840  56.1272860  22.9886675  11.1782694
  92.9758453  55.6633425  44.7040701  93.4111118  55.6870604  45.5562496
  92.5106525  56.4981174  44.6494150  14.3378878  86.5596485  82.3166656
  13.7197995  86.5251541  83.0467415  13.9611065  85.9782410  81.6561890
  30.6091785 105.8942127  75.1743412  29.8388600 105.4709625  74.7952652
  30.3315115 106.1546612  76.0525751  94.3245888  88.6428070  78.7860823
  93.5191536  88.7778759  78.2868290  94.8337364  89.4400120  78.6395597
 106.0583401  65.4485512  69.9061871 105.4281902  66.0233355  69.4717264
 106.9132519  65.7732773  69.6234989  22.1131539 111.0516739  61.9183636
  22.8532219 110.4515266  61.8269587  21.7656827 110.8721352  62.7920151
  23.4867978  70.2818871  92.8672886  22.6630092  70.1192999  92.4077606
  23.6351466  69.4880390  93.3811283  41.8484783  94.4186974  19.0010273
  41.6980314  94.2604351  19.9329889  41.3955116  95.2426720  18.8218272
  16.4862919 109.3007660  91.0154533  16.9141018 109.0710926  90.1905537
  15.7525980 109.8587894  90.7575035  85.2862263  25.7974124   2.5887665
  85.8475494  25.2289534   3.1160277  85.6105614  25.6914711   1.6944438
  98.8961887  94.8048401  91.5631390  99.5079994  94.3141079  91.0144043
  99.2431831  95.6969070  91.5700245   2.4677716 104.1369915  92.0144653
   1.6274586 103.9918995  91.5796661   2.3935637 105.0131130  92.3927975
  37.8244019  90.0856113  92.7307701  37.0868874  89.4874954  92.6101303
  37.6906395  90.7667732  92.0717144  23.1913960 111.3322892  91.1161327
  23.2181656 111.8751745  90.3282356  24.1036999 111.0856730  91.2681866
  69.0535355  35.3583598  19.1036510  68.1122780  35.2269912  19.2176890
  69.1231918  36.1744857  18.6083567  62.2602940  28.3865929  71.7169619
  62.3830652  27.6716352  71.0924625  63.1186914  28.4976578  72.1256733
  66.4025450  10.8497834  81.7774677  67.2110176  10.8003616  82.2875309
  65.7983685  10.2600682  82.2285080  60.6394100  34.9347115  85.1992130
  61.2628937  34.5175719  84.6046543  60.3148174  34.2194414  85.7462597
  29.7527456  74.5106077  58.5693359  28.8288927  74.3211412  58.7331343
  30.1788068  74.3748188  59.4156599  89.8761749  67.3745823   6.0447997
  89.9475002  67.6011658   5.1175416  89.6100426  68.1894588   6.4706933
  62.7785444  11.2154293  90.0500488  63.5710907  11.5165770  90.4943562
  62.9577494  10.3001273  89.8347759 105.0748062  22.5526667   9.6546233
 105.3607941  23.2204485   9.0313184 105.1766777  21.7257953   9.1833049
 101.1786747  33.8704491  18.5216618 101.7912769  33.4932542  19.1530704
 100.4253292  33.2801318  18.5368299  55.7102251   5.4593998  77.6946735
  56.2153912   4.7911632  78.1578159  56.0923338   5.4833120  76.8173790
  59.0114212  23.6021781  65.8867645  59.8153162  24.0114236  66.2069273
  59.3127871  22.8606176  65.3618860  55.1273012  23.0268121  85.7568741
  55.0703573  22.0832396  85.9074116  55.7752037  23.3319998  86.3919449
 116.4696217  56.4749336  67.3596621 116.5310097  56.8417740  68.2416439
 116.2425804  55.5553961  67.4979925  65.2797365  12.0018578  90.9088230
  65.5459261  12.0423186  89.9902725  65.8309698  11.3173187  91.2880039
  65.2229452  27.4332166  10.2109873  65.4815149  27.8503799  11.0327840
  64.3847466  27.8390527   9.9897301  41.8193913   3.1773844  62.8639841
  42.1470451   3.7280244  63.5750866  41.8935966   2.2838983  63.1992531
  28.4172153   8.1248450  74.1560936  28.9788985   7.5015837  74.6168423
  28.2913685   7.7385581  73.2893896  30.1180315   5.9633112  75.5210400
  30.1827025   5.8872139  76.4730167  29.3751192   5.4072726  75.2862310
 115.5402470  54.0359831   1.6792819 115.2678394  54.9149227   1.4156586
 116.4505959  54.1403055   1.9560677  20.4161549 110.2724743  42.4743462
  19.7954977 110.2797699  41.7456770  20.5824757 109.3441582  42.6380253
 112.1739197  70.7323217  14.3233049 111.5257835  70.8032608  13.6225057
 113.0063915  70.6067848  13.8678241   9.9846923  79.9880743  62.7024508
   9.9650973  79.0916872  62.3672867  10.9139574  80.1723194  62.8393984
   2.0735623  83.4405041  48.7788963   2.7952164  82.8230286  48.8979626
   2.0808515  83.9735985  49.5738697  34.0426850 102.3316574  78.1148291
  34.1627836 103.0200386  77.4606514  33.1154346 102.3811913  78.3471775
  90.1793385 110.3900146  79.8197174  90.4442692 109.9130058  80.6061649
  90.9064865 110.9877014  79.6457815  64.8630285  13.4477794  16.0884190
  64.7696638  13.7405038  16.9949663  64.1523314  13.8863957  15.6207013
  87.6735592  85.2970314   9.6319020  87.0061874  85.2941799   8.9457178
  87.3919296  85.9831047  10.2370644  42.7895927  31.3550043  63.5963011
  42.8479815  31.9460344  64.3469667  41.8549156  31.1666059  63.5119295
  23.7200165 108.2836151  83.0834293  24.1325021 108.7951565  82.3874283
  24.3750191 108.2562256  83.7808895  38.2820129  40.2972984  87.1061611
  39.1445732  40.4421806  87.4950409  38.2523870  39.3563747  86.9328880
   0.7040768 100.1827717  81.4561653  -0.0841954 100.7039928  81.3038921
   0.9070775 100.3202343  82.3814297  68.2496929  71.3057327   8.8129437
  67.3727131  71.2368202   9.1902870  68.5452747  72.1840048   9.0527332
  72.9452419  14.5913792  23.5823846  73.2111645  14.4501019  22.6737809
  72.0551586  14.9379766  23.5203123  91.6869259  22.4191356  69.5915413
  90.7863140  22.7208543  69.7102880  91.6137505  21.4670563  69.5250416
  90.1633453  51.1598682   1.2592171  89.5900249  50.9119749   1.9845398
  89.6810055  50.9018707   0.4737103  33.5615253  90.9395504  82.8470802
  33.2955670  91.6833401  82.3064613  33.7698722  90.2486897  82.2181606
  14.9331021  83.2725334  91.7300320  15.3779984  82.4539757  91.5103436
  14.2322922  83.0113792  92.3274422 100.4343987  70.8110094   7.9287332
  99.5540524  70.4353476   7.9385287 100.7674122  70.6639910   8.8140154
  43.0379915  16.7500186  49.3897104  42.8796530  16.9746768  50.3066015
  42.4866629  15.9835458  49.2322636  98.5515213  35.7821059   5.0243390
  97.7408218  35.3080559   4.8392144  98.6270428  35.7640052   5.9783834
  75.5387497   1.1169418  79.7146225  75.0943565   0.9576970  80.5473232
  75.0116062   1.7918710  79.2870474  73.5263872  20.0845122  57.4391079
  73.5876369  20.7050085  56.7128420  73.6492014  19.2267931  57.0323277
 111.2520885  97.3566246  61.7607164 110.4885960  96.7861462  61.8494606
 111.9823933  96.7572021  61.6071367  17.4163842 101.7593288  82.1189117
  16.9642472 102.4237919  81.5990162  18.3206201 102.0692062  82.1695518
 115.8452702  35.7459569   1.0388693 115.3326702  36.1743379   1.7244104
 116.7474461  35.7816792   1.3567106  85.9440327  90.8009434  85.7913208
  85.9602642  91.4787102  86.4670372  86.0497379  91.2797451  84.9692440
  24.2592645  86.0182095  92.2615719  25.1796722  86.2652302  92.1717834
  24.2583108  85.3387260  92.9357529 110.9290028  99.7630024  83.2021618
 111.8429470  99.5088863  83.3300591 110.9243011 100.7118225  83.3284092
  18.1073630  95.7216740  24.9980783  17.6233304  95.0080109  24.5825887
  17.4686313  96.4302158  25.0769377 113.3478165  72.6056099  73.2717276
 113.8054371  73.0233097  74.0013456 113.0411816  73.3346033  72.7324867
  86.5069008  74.9470043  94.9687481  85.6165600  75.1132441  95.2784061
  87.0073318  75.7101440  95.2575493  83.6393070  17.0689940  14.1993463
  83.5682583  17.3313558  15.1171434  84.0980339  17.7954638  13.7773967
  21.8671203  79.4420719  83.3664227  22.7597380  79.7860909  83.3998775
  21.4543462  79.7689438  84.1658020  63.4063959  16.9706202  84.3887711
  62.6451445  16.5152121  84.0291405  63.3261728  17.8665602  84.0615273
 102.7857685  16.1439919   4.0879127 101.9899559  16.6004872   4.3609050
 103.0987644  15.7120931   4.8827296  94.3265629  33.0311537  21.0126066
  94.7411346  33.8576865  21.2600017  94.3425941  33.0322003  20.0555420
  79.9337006   6.6363180   4.7913727  80.0360584   7.4025440   4.2268801
  80.7217884   6.6320562   5.3346306   7.2786397 103.2947445  64.4277716
   8.0322945 103.8821030  64.4847393   6.6009253 103.8157749  63.9971209
  25.3490257  16.9079447  74.0428972  26.1006379  17.2993958  73.5978365
  24.7108102  17.6185966  74.1052580  16.9393516 103.8972282  74.9127722
  16.7777276 104.7868061  74.5985317  16.3166952 103.3552265  74.4282484
  14.9136817  97.4226952  81.7968750  14.9110401  97.1565723  80.8774090
  14.8903120  98.3792114  81.7694378   4.1812834  93.1763458  87.9788303
   3.2578650  92.9640675  88.1147289   4.5518640  92.3890114  87.5800800
 111.8604279 107.5852203  67.7427149 111.9877911 108.0580235  66.9202375
 111.5975380 106.7047501  67.4746132  55.6623507  10.8884752  95.4447651
  55.6251812   9.9647415  95.1966476  56.2538576  11.2847221  94.8049736
  82.9077244  36.1287737  35.3352427  82.0611668  36.4663911  35.6277800
  83.4292984  36.0643291  36.1352706  35.2864313  75.5961990  95.9897137
  35.6573963  75.9672880  95.1891518  34.4321632  75.2567101  95.7228756
  18.2611120 104.4793510  66.0365248  18.4741020 103.9769459  66.8229437
  17.3319244 104.3058014  65.8857822  93.3670425  67.3773146  14.2218995
  93.6976624  66.4922857  14.0681064  93.9830017  67.9466057  13.7606585
  24.1778851   2.3519383  61.2407351  23.2882500   2.0202085  61.1193419
  24.1394663   3.2580787  60.9346867  92.9136944  43.9098883   2.4423763
  93.7184334  44.2239285   2.8546828  92.2209835  44.4432783   2.8321004
  14.8306382  66.1886644  81.5057373  14.1974056  66.6106987  82.0863724
  14.7279990  66.6423750  80.6691742  50.7522106  43.6273766   1.9225103
  51.4531803  44.0935135   2.3781338  50.1069355  43.4396458   2.6041341
 107.1259975 102.1296215  84.5392323 107.5685406 101.7048645  83.8044071
 107.5070286 103.0070496  84.5735073  43.2650423 109.5993900  93.7830353
  42.4295855 109.1502857  93.6544037  43.2972479 110.2506638  93.0823040
  86.4585781  47.8466368  10.4920185  86.2379742  47.8011131   9.5617008
  86.1466980  48.7077570  10.7702768  79.1603613  42.9440880  16.9565344
  78.8032484  43.3115149  17.7650511  78.6897564  43.3992624  16.2582648
  56.8231440  21.2240314  88.8189411  56.5535641  20.9543777  87.9409695
  57.6085091  20.7068682  88.9977551   6.8713158  48.7580967  93.7037086
   6.2704480  48.9614534  94.4205379   7.1349710  47.8516483  93.8620377
 106.5664482  87.6834202  71.4473009 106.1812115  87.0163727  70.8790779
 106.3096142  87.4221420  72.3316097  90.9365559  80.9684372  40.2864218
  90.2630806  81.6257381  40.4613733  91.3012600  80.7641220  41.1475182
  28.6868262  99.1576195  63.8028193  29.6317816  99.0051270  63.7966394
  28.4832549  99.3625641  64.7153902  16.7239392  92.9185581  58.9771175
  17.5230455  93.2851601  59.3556166  16.3583064  92.3720264  59.6727133
 100.1510429  66.3278818  55.8016872 100.7453537  67.0124960  56.1088181
  99.2946434  66.5822935  56.1453056  37.7006030  93.2774067  74.5555210
  38.5709047  93.5725880  74.8232412  37.4217343  93.9171219  73.9003706
 113.6221790  92.3017502  85.0209427 114.2894745  91.6236782  85.1266289
 113.1026077  92.0116901  84.2711830  25.8359289  82.0260715  78.9264107
  25.8917642  82.9347420  78.6307096  25.2292252  81.6114426  78.3130407
   1.2310895  24.2661428  12.3735356   2.1619721  24.1163588  12.5386238
   1.1113748  25.2056408  12.5122595  76.2925673  44.7550821   1.5756662
  77.1845722  44.4090128   1.5474458  76.3844156  45.6220722   1.9707993
  39.5585370  23.5308790  91.9635201  38.8521075  23.1982613  92.5171947
  40.3176308  23.5757089  92.5448990  65.3647423   4.9376041  86.0364628
  64.7283077   5.1536721  85.3549290  66.0385990   5.6128383  85.9576607
   1.3936079  86.6011620  16.0749269   1.9430208  85.8523750  16.3066328
   0.6432789  86.5397263  16.6660810   9.5471096  99.7892857  95.8694935
   8.6194050  99.6121693  95.7138443  10.0071716  99.1941738  95.2775288
  25.4518485  92.4374199  65.6012726  25.6101465  92.5848484  66.5337086
  24.5692897  92.0687771  65.5635166  19.8258722 101.6791916  94.4266224
  18.9871073 101.2220955  94.3652153  20.0939465 101.8110085  93.5172272
 109.9032402  81.7673874  68.4577227 109.8954391  80.8236599  68.2978487
 110.2426720  82.1449757  67.6462793  62.2434807  25.0750113  15.0328362
  62.6300764  25.0421238  15.9078753  62.9732227  25.3033376  14.4570124
  49.8147774 106.7074871  93.2714176  48.9291286 106.6909695  92.9086781
  49.6848488 106.7400551  94.2191982  98.9228916  28.5399222  10.6609201
  99.4220257  29.0147686  11.3254654  98.2493019  28.0730677  11.1554456
  95.3993893  51.9287920  10.9277344  95.5169868  52.7034426  11.4775693
  94.4621086  51.9125175  10.7341599  31.1555862  25.2430773  52.1631145
  30.6241298  25.5802131  52.8843117  30.5908966  25.3183627  51.3939047
   6.9400644 102.3355770  42.1664238   7.6337451 102.8471565  42.5827503
   6.4479190 101.9604588  42.8966999 110.8425808  20.1772738  82.2279167
 111.2315941  19.3789423  82.5850868 111.3395786  20.3487492  81.4280224
  95.6124890 111.3470443  60.8104992  96.3721109 111.7947165  60.4379463
  95.4319382 110.6327502  60.1994228  24.2685461  65.9625959  57.1473551
  23.7155080  65.5062389  57.7814817  24.9771214  66.3352919  57.6719999
 113.9821720  62.3663759  78.8008547 113.4336090  61.6080856  79.0016031
 114.6882439  62.0144176  78.2587957 106.6184521  61.3908768  75.4171133
 105.9025574  61.0434771  75.9491348 106.4271450  62.3255110  75.3390551
  92.8826618  11.5693653  75.2075243  92.2642040  11.1782312  75.8245802
  92.6072121  11.2408626  74.3516922  12.1225893  77.9334497  37.4919891
  11.8742490  78.8491774  37.3654628  12.8813827  77.8100777  36.9216895
  86.6975307  72.9125309  93.4282494  86.5192223  73.6478519  94.0145397
  87.5685596  73.0935907  93.0750179  74.9128771  12.4987245  -0.2528419
  75.8550835  12.5516641  -0.0926078  74.5617437  12.0644927   0.5245762
  41.8231392   7.0947230  19.8992097  40.8802271   6.9323236  19.8713565
  42.1916008   6.3006747  20.2864480  22.8841138  50.9291077  91.9026852
  23.8304853  51.0586166  91.9646454  22.5767946  50.9713173  92.8082275
 112.2762489  84.1384792  87.6336670 111.9713306  83.2663536  87.3833847
 113.2206345  84.1154861  87.4792385   4.8384708  69.3711424  44.4214392
   5.4597402  68.6663723  44.2382526   4.7373998  69.8248386  43.5846758
 107.3628330  85.5421066  58.4749317 106.5334511  85.9903526  58.3093309
 107.1880722  84.9884415  59.2359495  12.4709952  18.7939453  88.4625340
  13.0315638  19.3594444  88.9937687  11.8139350  18.4640718  89.0754700
 101.9093513  74.8640823  93.2714462 101.1134052  75.3802252  93.3990955
 101.7155743  74.3076277  92.5170994   2.4519958  41.4257240  92.8297520
   1.7782146  41.1331224  92.2160435   3.0041516  42.0151997  92.3160648
 105.6726074  98.8963223  43.2614613 106.0303783  99.2993736  42.4703979
 106.1896896  98.0994415  43.3791113 114.4812870  52.3117399  79.1963339
 114.4792366  52.1536255  80.1403809 115.3982162  52.4870968  78.9848471
 104.8868942 111.3222885  78.9580011 104.8002434 110.4306030  78.6209154
 105.7792377 111.3626385  79.3019962   2.0238325  87.6073551  63.2304430
   2.7220643  86.9558907  63.2959795   2.4143748  88.4121132  63.5711241
  87.5219727  80.8575344  55.4276752  87.5984573  80.0874805  54.8643017
  86.6343594  80.8075333  55.7824516   1.4076719  74.1142130  66.0529184
   2.2285967  74.5887375  66.1838341   1.3338833  73.5469913  66.8204117
  87.2891808  57.3641062  16.0201037  87.0726490  57.3354721  15.0881553
  87.7866650  56.5611887  16.1751890  74.0888453   0.3238596   5.0900376
  73.9698362   0.8821867   4.3217021  74.9376392  -0.0963869   4.9515703
 101.2718868  83.4871578  93.1195068 101.5761852  84.3104839  93.5013008
 101.4006042  82.8396893  93.8126469   5.9759778  71.9406271  75.6815100
   5.4414576  72.6505280  76.0372686   6.6809291  71.8288517  76.3193035
  75.9196186  37.8912830  70.7411766  75.5544996  38.5740209  71.3040161
  76.4109755  37.3265052  71.3376856  97.6999950  73.5130215  54.8545551
  97.9441261  74.2410612  54.2830753  97.1717739  73.9160919  55.5435753
  13.9967561  42.1426535  62.8886509  13.1752276  42.5790739  63.1141710
  14.6091497  42.8582716  62.7180624  11.3963592  45.0599718  85.4961205
  11.7660916  44.2323542  85.8036613  11.2230134  44.9139643  84.5661354
  95.4308987  80.4712486  64.3562174  95.0129986  80.5213833  63.4965181
  94.9838448  81.1368656  64.8790216   1.6337207  61.2985849  47.5128269
   1.6930217  62.2058535  47.2135305   1.2344273  60.8301592  46.7797661
   5.3107452  54.1622925  85.4411411   4.5037216  53.6677551  85.2983856
   5.6932813  53.7744331  86.2281990 115.9209251  78.0342293  63.1931019
 116.8764305  77.9794264  63.1776237 115.6273460  77.2066927  62.8120184
   1.5233342  24.3355274  38.4557176   1.8300490  24.3377233  37.5489902
   1.5380116  25.2566099  38.7157583 111.1311340  94.1627789  66.5654421
 111.3528156  93.6065865  67.3122644 111.9756603  94.4737053  66.2393475
 103.2847500  63.8736725  58.0809975 103.8351822  63.7082434  58.8464260
 102.9153824  64.7431946  58.2350254  21.0441828  83.0786133  62.2094584
  20.4327679  83.2520199  62.9252338  21.7238808  82.5310516  62.6024151
  91.9367409  82.7500057  76.1325026  91.0643101  82.3841095  76.2781811
  91.8334866  83.6875916  76.2952709  96.7617035  79.0818167  84.1246796
  95.9158134  78.6528730  83.9953899  96.5610790  79.8513889  84.6573448
  20.6879687  71.9574404  34.6461272  20.0294304  71.8139124  33.9664507
  21.1581063  71.1256313  34.7035718  84.9103260  17.3953438   1.5483505
  84.4152641  17.4205041   2.3671965  84.5989990  16.6065490   1.1043814
  93.0094624  45.6129313  83.0478096  93.7966251  45.8301020  83.5472488
  93.2323170  44.8023939  82.5899887 112.6172066  47.2226620  69.4084120
 112.8635979  48.0831671  69.0692091 113.3757496  46.9405174  69.9195242
 116.4493275  45.0028801  82.4609470 117.2952557  44.5594883  82.3973942
 116.4175510  45.5697584  81.6903210 111.3228798  39.1735291  64.1246700
 110.8756733  38.3665109  63.8697958 112.2541237  38.9598799  64.0666866
  67.0659876  96.1351585  73.4608221  66.6509438  96.8616295  72.9958248
  67.4956226  96.5454483  74.2113590 111.1299706  41.9930172  87.6055908
 111.8545914  41.9262075  86.9837379 110.9405422  42.9300976  87.6528454
  14.9283111  56.6987467  81.5452862  15.0647795  55.8966589  82.0495415
  15.1456535  57.4044609  82.1543503   7.1723658  90.2388287  55.1578903
   6.9718093  89.4620514  55.6800365   7.8452384  89.9468422  54.5428944
   0.1102244  45.2481937  67.5631905   0.5541693  46.0734224  67.3679161
   0.0168692  44.8193121  66.7125511  11.5437949  64.8651648  92.5988770
  10.7617772  64.6212530  92.1037102  12.2536659  64.3777370  92.1808720
   3.2935825  76.0103226  60.4362726   3.8096300  76.1382341  59.6403074
   2.9595774  76.8820524  60.6478453   2.7414963  23.7131929  83.0804157
   2.4057753  24.3267822  82.4269390   1.9576481  23.3319330  83.4759617
  48.0455780   9.6934265  22.5740838  48.3532619   9.0320450  23.1938720
  48.1511021   9.2842788  21.7151928 101.7670345  92.1095181  56.0515165
 101.7162991  91.1986732  56.3413811 102.0050240  92.0534515  55.1260710
  18.2375336   0.8252899  39.2644668  17.8703952   1.6853091  39.4689369
  17.5025856   0.2206342  39.3668175  21.2457395  84.2381859  48.6208153
  20.8014798  83.4253693  48.3795738  20.5505133  84.8959732  48.6351442
 101.8181419 101.6786766  79.6397591 101.1080170 102.2194099  79.9855137
 102.6132298 102.0621777  80.0098896 107.7141094 100.0476170  77.7423906
 107.1757507 100.5141926  78.3816957 107.2592354  99.2162800  77.6074600
  10.1736951  60.3038168  53.8072252   9.7032648  60.4497671  52.9864740
  10.9123957  59.7458220  53.5639238   8.2840723  74.5548439  52.9193354
   8.4324414  73.7717199  53.4493637   7.9593056  75.2065706  53.5406351
 101.7490768  98.8903522  94.3843746 102.3765755  98.9966679  93.6694145
 101.0333443  98.3830833  94.0014267  76.6862345  24.0892243   2.0200017
  76.0928202  23.4746075   2.4516709  76.2859917  24.9473119   2.1604411
 109.0618610  87.8430843  72.9016542 109.9603271  88.1190968  72.7205038
 108.6041164  87.9557323  72.0685863   6.1149210  84.6712017  62.6980066
   6.7649519  84.4379997  62.0351982   5.6140834  83.8671684  62.8355980
   8.6229080  65.9930468  78.0554724   9.1162902  66.3563347  77.3200655
   9.1448444  65.2460337  78.3483648  92.4365711  75.8517647  61.0923862
  92.9504776  76.3612270  61.7189407  92.4549866  76.3714886  60.2887821
 107.7045059  94.3819714  93.1753445 107.7256680  94.1775608  92.2404671
 107.0935726  95.1154232  93.2463741  15.8673489 102.4328804  72.5438356
  16.7272842 102.5333023  72.1355963  15.2495694 102.4720764  71.8137360
  96.2009525  69.4207287  77.9299164  96.0535812  70.1562929  77.3353910
  96.6469097  68.7650585  77.3937750 109.2504406  74.0159559  89.1395283
 109.2409897  73.0592680  89.1095829 109.9312592  74.2288923  89.7777843
  12.5631952  56.6834831  77.3897839  12.9351914  55.8829403  77.7598953
  13.2988727  57.2947645  77.3531103 106.9276047  30.6654239   2.2623877
 107.0126247  31.6154814   2.1824019 107.1698570  30.4787970   3.1694245
 113.6209869  76.9278717  72.3892403 114.4550323  77.2695732  72.7114630
 113.3844852  77.5129175  71.6694975  30.1248693  60.6836224  64.3174410
  30.8871150  61.1585093  64.6486425  30.4019856  59.7675657  64.3009377
   6.8789637  63.2391214  93.6905098   7.4536622  62.6019621  93.2662678
   7.3721951  64.0591383  93.6674976  12.4285734  66.2789059  61.7208481
  11.8467867  65.9100342  61.0562468  11.8938053  66.9328403  62.1709919
 105.5357647  91.1472797  73.0744171 104.6533775  90.7853031  72.9932594
 105.7289696  91.5040493  72.2074509  11.5029669  70.8645391  88.8028812
  10.8222294  70.1919842  88.7805653  11.0980916  71.5999603  89.2627430
 110.4736614  61.2951040  50.1315308 111.3101387  60.8510971  50.2707720
 110.4400063  61.4521360  49.1879034  20.2182031  81.1025906  79.7039318
  20.5447245  80.2044964  79.6488142  20.0295782  81.3449287  78.7973261
  78.3336067  67.1479845  60.2049494  78.0634785  66.6608286  60.9833717
  79.1136789  66.6887760  59.8937464  90.5105782  90.3409386  75.3581953
  91.0075092  89.8756218  76.0310745  90.0395966  89.6522331  74.8890495
 103.3251572  69.4938469  74.2909288 103.2532310  68.9932108  75.1035929
 103.6591148  68.8651371  73.6510658   6.9106418  51.9351673  75.6537580
   6.9490641  52.4550104  76.4565802   6.2572229  51.2600183  75.8366394
  49.4920921 104.3768215  14.7993720  48.9424896 104.1175175  14.0598238
  49.3092394 105.3088188  14.9184787   7.0511812  46.9744158  82.7306747
   6.9436777  47.6676846  83.3818626   6.2899566  46.4078236  82.8561497
  57.6073313 111.7279243  19.0696335  58.3472872 111.5606022  19.6533275
  57.0136166 110.9920216  19.2185676  36.6787219  86.9035244  39.7829723
  36.9676518  86.1093712  39.3334484  36.0104442  86.6010094  40.3978872
   1.9011952  73.4707594  40.1021814   1.1450788  72.9700279  40.4084301
   1.6763008  73.7199593  39.2057729  96.3930893  93.2418728  52.9801750
  95.5565357  93.2255268  53.4450817  96.1699963  93.5323334  52.0958138
  10.9408939  51.5716171  89.7672749  11.2449527  52.4718380  89.8829746
  10.0044560  51.6562843  89.5879745   7.4376333 105.9237194  95.8460617
   6.7138231 106.3038063  96.3439178   7.5539637 106.5155983  95.1028347
  96.0186958  93.7152004  50.4277897  95.2453804  94.2689133  50.3200960
  96.7151928  94.1845894  49.9686670 110.4370117  61.6048050  95.3084850
 109.9015522  62.1885824  94.7711563 110.7062149  60.9080553  94.7099018
  39.2563128  42.5182867   1.7816523  38.7484694  41.7705870   2.0967257
  39.5800066  42.9403925   2.5774425 118.5176849  50.2688932  43.3792496
 117.6062202  50.3385639  43.6631823 118.5827160  49.3945694  42.9951143
  48.0258942 104.3332005  12.4581826  47.3962736 104.8400784  12.9709065
  47.6124525 103.4766960  12.3500812   6.6372317  87.0273209  93.7322998
   7.3432124  86.3903236  93.8420868   5.8378470  86.5008163  93.7296200
 117.2375298  50.5240536  89.4550133 117.3675156  51.4131403  89.7849464
 117.5986862  50.5422783  88.5687447 112.0562935  81.9934368  51.8567133
 111.3042545  82.4068069  51.4326763 112.8161716  82.3467350  51.3941193
  19.5907569  36.5901542  74.5002222  19.4408572  35.6477904  74.5757866
  20.4448056  36.6634274  74.0742397   1.6043855  91.7521286  62.0261908
   1.0163145  91.0030460  62.1225739   2.1330982  91.5439987  61.2558794
  21.1143994  59.2056465  88.6958981  20.7694387  59.5309114  87.8643703
  20.7364130  58.3308887  88.7862396 116.9290543  82.4446297  74.7150278
 117.5761890  81.7492008  74.8326540 117.1211624  83.0710888  75.4127932
  14.8831570  57.9440641  77.2452784  15.5565405  57.3232222  76.9671774
  15.3063381  58.4674692  77.9258633   2.9990456  60.0855017  40.7908583
   3.5307547  60.6797075  41.3204193   3.5553282  59.3173933  40.6612682
  24.8883915  79.9521017  74.4300032  25.0811052  79.0185022  74.3435049
  25.0929666  80.3195667  73.5701466  14.9351585  86.6344833  74.1271591
  14.3898797  86.3451862  74.8587418  15.2520072  87.4981785  74.3914843
  11.7409849  51.3660955  57.9687071  11.6673768  50.7452440  58.6935186
  10.8822632  51.7867708  57.9255342  65.9322786  69.7079277  39.1632843
  65.4707575  69.0522003  38.6405492  66.8431282  69.6457481  38.8756752
 104.5372868  68.6556435  63.4253359 103.7651348  69.2212629  63.4343672
 104.6802139  68.4307623  64.3447018   9.4624567  81.1934853  59.9741936
   9.6637541  81.2122726  60.9097958   8.7640798  80.5440140  59.8924494
 115.5595207  64.9237490  61.4980888 115.0699234  64.3765020  62.1121359
 114.8941898  65.2718115  60.9044409  95.8723545  21.1039734  18.9056647
  96.5696716  20.6930590  18.3946621  96.2692165  21.2726641  19.7602272
 111.4585495  83.5231972  44.6294069 111.2557411  82.8885555  43.9421463
 112.3064613  83.8879490  44.3759489 112.4206257  67.3678017  56.5478325
 112.1867943  66.8866444  57.3415899 111.5804577  67.6069069  56.1564445
  86.7489243  19.3218458  73.9965630  87.6630116  19.5551562  73.8345671
  86.3068867  19.4937849  73.1651354  24.7663832  91.3969421  95.3136158
  25.3882337  92.1219635  95.3758907  24.0750170  91.7231846  94.7375965
  23.3231902  79.0985870  78.8740921  23.5117340  79.6283150  78.0994511
  23.5626745  79.6594429  79.6118736 100.5710602  65.3989935  71.9165373
 100.2102375  64.6001816  71.5319157 100.0731468  66.1073780  71.5084887
  41.6755581 107.2022724  67.8235912  41.5943003 107.8578663  67.1308994
  42.3859882 107.5258636  68.3774948  24.9122167  56.7091227  62.1474648
  25.3254366  57.5322580  61.8868351  25.5332255  56.3122463  62.7582598
 101.9544792  92.8410053  73.7159061 101.4121246  93.2870770  74.3663645
 101.3265705  92.4341583  73.1188917 108.3080578  75.3205872  52.2338629
 108.9996910  75.7604980  51.7395449 108.0292606  74.6011686  51.6673374
 117.6157570  73.0597973  91.6635418 116.9842339  72.3418427  91.6193581
 117.2513199  73.7349129  91.0911369 111.7270756  39.3830800  84.6221733
 111.9474506  38.4613800  84.7568512 110.8264637  39.4624186  84.9365520
  36.9139600   6.4514089  60.8082438  36.0040188   6.3795352  60.5200243
  37.2803116   7.1544087  60.2717638  15.5611515  44.0264511  64.6427155
  16.2783825  44.0830088  64.0113592  15.1276457  44.8782110  64.5896721
  13.5195959  57.5607538  85.9076023  12.8997493  56.8439722  85.7725143
  14.3413424  57.2400188  85.5359936   9.1899920  85.6650257  93.8673973
   9.9904329  85.1537991  93.9864731   8.9532894  85.9485626  94.7504616
  50.3932428   6.3273740  59.6732140  51.0310125   6.5246868  58.9872456
  50.0836802   5.4456371  59.4659901   8.4225434  82.2801685  50.5343533
   8.5836309  81.5149117  49.9823904   7.5581902  82.1235466  50.9146070
  -0.1199163  84.3908596  53.5249805  -0.0963987  85.0009727  54.2621613
   0.7822596  84.0823555  53.4405279  21.8845654  90.9656143  47.6988077
  21.3616729  91.7667007  47.7317238  22.1623683  90.8235741  48.6037302
  92.0558453 103.0786324  70.9243727  92.2643566 103.2802582  71.8365669
  91.1938953 102.6640606  70.9616995  10.8253825  68.2395744  11.8895411
  11.4497280  67.5140715  11.8815875  10.7044518  68.4413385  12.8173876
  57.5534916  74.2337942  58.9485931  56.6209602  74.4323826  58.8638353
  57.9011393  74.3335962  58.0623579   8.1376463  92.0746899  49.9806166
   7.3111331  91.7039680  49.6713018   8.3423042  92.7640057  49.3488026
 102.4742794  44.8275328   2.4991518 101.8339825  44.7007036   1.7990354
 102.0020866  44.5991373   3.2998389  58.2678366  37.3118591   9.8055720
  57.7050209  38.0526400   9.5803714  58.0119467  37.0793033  10.6981361
 104.2016411  30.5018735   1.9633260 104.6766281  30.7635736   2.7520800
 103.6782742  31.2695456   1.7331322  24.5624471  70.5369997  53.0400085
  24.8496580  70.2973557  52.1589231  24.7910976  71.4627790  53.1229496
  20.3984594  65.8883095  45.4805708  20.7140803  65.0746155  45.8736563
  20.0313544  65.6206656  44.6380568  99.6405029  80.8275223  87.1578979
  98.9951134  80.2602863  87.5797367  99.1234779  81.5389919  86.7800999
  15.6659377 102.9484940  80.5690098  15.8580959 103.6426449  79.9385595
  14.8373723 103.2114983  80.9696865 112.1819973  70.4986525  85.6358719
 112.1634865  71.4115286  85.9231853 111.3144493  70.3480721  85.2604771
   4.1527495  39.8940229  83.3600235   4.0574116  38.9965010  83.6787605
   4.3334639  40.4094315  84.1460991   0.4035960  99.4203377  53.4590387
   0.8981466  98.6625576  53.1469297   0.9691711 100.1693821  53.2711458
  11.6798472  40.0199604  63.3895159  11.6821516  39.7515106  64.3082952
  11.5080380  40.9612560  63.4154463  53.6272907   2.6202288  77.3684549
  54.5131636   2.3212138  77.1633720  53.7535238   3.4661460  77.7982473
  34.9229479  85.2588940  58.0898809  34.8479843  86.1578083  58.4101534
  34.1994548  85.1642609  57.4703360   2.4471952  77.8928041  66.3890219
   2.9763541  78.6769104  66.5353155   3.0110580  77.1690035  66.6617870
   2.0506884  94.7752476  69.6279478   1.3790303  94.1115952  69.4708586
   2.2761749  94.6736145  70.5526447   1.2856402  54.0361929  72.2640610
   0.9733763  53.8398123  71.3807917   0.7652549  54.7907639  72.5398302
 110.9685326  66.8397760  70.4975176 111.7391777  66.8599224  71.0649109
 111.0116482  67.6598835  70.0057888   4.8312256  68.8517523  90.0188828
   5.1527089  68.5413885  90.8653831   5.6228852  68.9988470  89.5013237
  53.2916784   0.6376889  80.7906723  52.9474449   1.1130206  80.0345039
  53.3180904  -0.2762346  80.5073452  13.9840508 107.7619553  60.9206295
  13.2627106 107.1862125  61.1744308  14.4428337 107.9466343  61.7401648
  55.7612753 103.6408138   3.4716454  54.9844885 104.1801453   3.3234471
  55.6827593 103.3525276   4.3810165  25.3862405  91.6105366  49.4645023
  26.2833333  91.4062786  49.7285748  25.4071403  92.5422287  49.2459869
 112.8614807  70.4148912  92.3284626 112.5810909  70.6811285  93.2040882
 112.0498180  70.3566551  91.8244362  32.1691012 101.9049835  63.8028574
  33.0622792 101.5706444  63.7211370  31.6780353 101.4452744  63.1218624
  15.2704990  73.8453484  81.8041134  16.1407006  74.2427397  81.8366432
  15.1041484  73.5591841  82.7022648 109.2817593 108.8171101  52.9581070
 109.9886227 108.1720924  52.9810286 109.5571899 109.4508553  52.2957420
  94.2042828  28.0246639   4.2001939  94.9730778  27.4613595   4.1114044
  94.1370773  28.4728312   3.3570671  21.8772483  85.1872253  73.3987427
  22.6219320  85.3189278  73.9855433  21.8205595  84.2375565  73.2931423
  32.4457622  86.1402225  50.7450819  31.9985485  85.2939510  50.7373619
  32.5283217  86.3590336  51.6732740  53.4468079  -0.2338745  90.2424622
  53.3878923   0.6922863  90.4769802  53.5623765  -0.2334644  89.2922688
  91.4321136  99.8875713  73.5122347  92.3539352 100.1440334  73.5387468
  91.1496449  99.9144077  74.4264126  16.1981356  78.6286020  89.7984886
  17.0155180  78.8743639  89.3652248  16.0875297  77.7004051  89.5924664
  67.4724913   6.1294627  83.1362724  68.1431913   6.5062642  82.5667000
  66.7087126   6.6928989  83.0121422 115.4751682  80.3041172  87.2813892
 114.7284317  79.7961378  87.5985146 115.8737087  80.6641960  88.0736923
 111.6876221  56.8487644  75.4145765 111.0867882  56.5361118  76.0909510
 112.0889378  56.0534000  75.0644684  11.5422523  84.7770405  65.7156229
  12.2766781  85.3290558  65.9841776  10.9651136  85.3660202  65.2295828
   8.5342193  69.9634790  36.5074301   8.1479388  69.7755480  37.3628259
   9.2455268  69.3287897  36.4211845  13.5539293  85.1607609  76.4321756
  13.9062715  85.9747314  76.7920876  12.9127872  84.8698902  77.0806789
  99.1121483  45.2260923  70.2821445  99.2604828  44.6630239  69.5224190
  99.7397995  45.9410381  70.1765823  11.1120915  74.1575384  78.0185032
  10.3984809  73.9012241  78.6027098  11.4906430  73.3288527  77.7249002
 116.1958313  83.1584454  72.3355246 116.4343739  84.0850258  72.3077631
 116.5191936  82.8531742  73.1831551  13.8099027 107.0602131  75.8553743
  13.9513874 106.1183071  75.9504509  13.4398890 107.1594810  74.9781799
  25.9416509  77.8991938  72.4591446  26.3967681  78.5243940  71.8950319
  26.6430640  77.4162769  72.8962326  46.7803764 111.0590553  41.1590624
  47.5208092 110.4831028  40.9686041  46.0080242 110.5312157  40.9563446
 110.0840569  95.1361847  47.4681091 110.9899235  94.8872375  47.6515675
 110.1341724  96.0608196  47.2256804  55.7481050  27.0646763   5.9297794
  55.7454395  26.4581156   6.6702592  54.8527145  27.4010015   5.8924431
 104.6577740  87.8008080   2.1021222 105.2319145  87.7758312   2.8676093
 104.6923733  88.7105083   1.8063498   8.2246280  92.9582691  72.8003788
   8.7278360  93.3998013  73.4845304   7.5626063  93.5983562  72.5391245
  26.3853145  80.5300522  64.4069386  25.9144115  81.2933064  64.7414827
  27.2586036  80.5994034  64.7926712  84.6119213  90.0102806  67.9758215
  84.7771168  89.3101978  68.6073446  83.9000511  89.6770191  67.4295568
   6.7299736  99.6184921  75.6222677   6.4464629 100.2781391  74.9892426
   7.6116216  99.3772221  75.3381586   8.3978564  79.8662043  52.6902914
   8.2971621  78.9278126  52.5305700   7.8803253  80.2832890  52.0015001
  55.5038214   2.2260322  68.5586643  56.3926792   2.2478618  68.9131880
  55.6251287   2.1379678  67.6132774  11.3460135  98.7382603  70.5592680
  11.7078650  98.3627987  69.7565699  12.1041143  99.1025352  71.0162401
  13.4516883  78.0114031  83.6872196  13.7106991  78.9322805  83.7208271
  14.0411866  77.6201677  83.0424976 114.4106674  91.7274761  43.3646870
 113.8722897  91.3200760  42.6861477 113.8377476  91.7723560  44.1301823
  84.6957207  57.7962971  69.8622847  85.1392651  58.3740520  70.4833269
  83.9470005  58.3063889  69.5533180  30.3646731 101.5738869  86.1479282
  30.6429863 102.3990631  86.5452385  29.9987268 101.8274689  85.3005695
 102.0773983  56.9727802  51.5645170 102.6557159  57.6224136  51.9641972
 101.7467690  56.4603090  52.3022747 100.1819706  81.9350624  55.9388542
 100.5270481  81.9611549  56.8313074 100.9000206  82.2586441  55.3948641
  10.2649236  81.0441589  35.0311017  11.0819137  81.5147305  34.8658085
   9.6906674  81.3004780  34.3094659   8.8808483 110.3004551  75.5585384
   8.4989059 110.6752205  74.7648764   9.3955785 111.0135460  75.9364128
 105.2712727 102.0770359  49.1832495 105.2033424 102.6054382  48.3880138
 104.8961258 101.2303829  48.9410210  34.9231100   2.8706053  61.9998598
  34.0344048   2.8586534  62.3552370  34.8046398   3.0325693  61.0639286
 115.2595329 107.5183296  64.5884180 114.9621868 107.9813099  63.8051748
 114.5203209 106.9613743  64.8325396   9.9058890  63.8006115  78.7835884
   9.6381205  62.8941584  78.9348173  10.8542240  63.7532043  78.6625767
   6.7904174  58.2036304  45.6369305   6.3953352  58.0284262  46.4910078
   6.7900789  59.1580582  45.5641317   6.3275766  60.3649616  59.9183035
   6.7013073  60.1700258  59.0589094   5.5563736  60.8992434  59.7285032
  66.9951582  12.4603093   5.0104719  67.0352793  13.3006835   5.4669726
  67.6854277  11.9348180   5.4149687  47.7396393   4.2613399  56.1761427
  48.5922241   4.1876549  56.6049767  47.2610569   3.4821731  56.4591408
  82.4889374  19.4122839   5.7974476  82.6713753  18.6698174   6.3733763
  83.2386112  19.9958706   5.9142423  21.6147757  93.3920288  35.2753925
  20.6896234  93.6261845  35.2012372  22.0829129  94.2107868  35.1119423
 112.7052975  92.1607208  58.0259991 111.7894554  92.0709801  57.7625561
 113.1837463  92.2516823  57.2019529  18.1364858  74.1488361  68.4787369
  18.7580097  74.8759747  68.5135174  17.3728979  74.4630623  68.9629126
  13.1341803  78.2382584  64.4561529  13.9012563  78.6305809  64.0391302
  12.9242778  78.8312292  65.1776505  13.8284433  80.6935501  83.5641193
  14.5915794  81.2451649  83.7361050  13.2542527  81.2397099  83.0272293
 100.2445126  66.9135141  76.4509392 101.1317635  66.8204784  76.1040020
 100.0909996  66.1030293  76.9365168 113.8089466  85.2943134  50.3117228
 113.1212616  85.0257587  50.9209871 114.4898987  85.6701183  50.8696795
  23.3085728  47.6834488  62.1315575  22.9658914  48.5763836  62.0932102
  24.0189791  47.7268171  62.7716112 113.7042999  10.9819269   0.8271004
 113.0585575  10.9501457   0.1212374 114.0146542  11.8874180   0.8272096
 106.3797474  99.9120998  53.4145689 105.5678940  99.7937298  52.9215145
 106.6770363  99.0221024  53.6036968  73.1722403   8.4719115  74.8197317
  73.3898401   7.5493515  74.6864414  73.8780260   8.9498138  74.3841743
 109.1558933 103.2926750  77.2454929 109.1311932 103.9081860  77.9781437
 109.4567680 102.4708366  77.6331568  65.7565784  21.3865566   1.4933416
  65.0482464  21.9682717   1.2174699  65.5503416  21.1728573   2.4033037
 117.9440689  70.4309559  69.1898775 118.0290508  69.5339251  68.8668489
 117.7402687  70.3323126  70.1199102  33.1803131  22.7212667  27.1136832
  33.8612199  22.1079350  27.3901296  33.2832980  23.4726310  27.6977038
  98.3460808 103.2842255  31.0782099  97.9496956 104.0224266  30.6154275
  99.1833782 103.1457233  30.6355047   6.5497088 101.4540100  73.3740473
   6.1673701 101.9217873  72.6315928   7.1453047 102.0870686  73.7749720
  -0.2490276  69.0483665  91.3327980  -0.2193470  68.8798141  92.2745705
   0.5828710  68.7091875  91.0024357  39.9272037  84.2497444  95.0536633
  40.2445221  83.3500957  94.9751472  40.3271246  84.7100258  94.3158054
  35.3212547   5.6028891  52.0031738  35.9230804   4.9440593  51.6567898
  34.5811677   5.0977898  52.3398876   5.9431189  59.1020107  62.3477030
   6.1649632  59.7734451  61.7025709   5.0747168  58.7960339  62.0860004
 117.5491810 110.8966446  70.6050396 116.7334366 110.3971386  70.6408024
 118.1601238 110.3246403  70.1405048 114.8659420  26.6346765   5.4665977
 114.1883945  26.6540146   6.1424512 114.3857574  26.7242765   4.6434200
  80.5584908  32.5663686  10.0266111  81.1123180  31.8222594   9.7903699
  81.1739254  33.2820201  10.1857054  71.4235640  68.7273216  25.3041482
  71.3527584  68.6151743  26.2521172  72.1051884  68.1093407  25.0401092
 101.1164570  70.2625513  58.2224464 102.0452213  70.3943920  58.0320787
 100.8110523  69.6759176  57.5304747  11.8193281  69.2447710  69.2535210
  12.7536368  69.3249750  69.0615129  11.7410147  68.4117746  69.7185087
  13.2484579 105.0235558  95.9820938  12.9542005 104.2274094  95.5396080
  12.5548947 105.2173996  96.6126728 102.1109676  65.4855919  65.9579134
 102.2234631  64.5369482  66.0183430 101.6734982  65.6218529  65.1175022
 102.6135540  81.5429401  69.8337126 102.2332764  82.2925091  70.2917099
 102.4121094  80.7929516  70.3933239   0.4016577  76.5297699  71.6893578
   0.9455287  77.3168182  71.6578579  -0.3984464  76.7727232  71.2234735
  25.3011227  87.4719524  43.6824322  24.7131658  87.2515583  42.9599571
  24.7205663  87.7806568  44.3780518   8.7302017  87.3316383  66.3131762
   9.3757325  87.2056103  67.0086193   9.2407495  87.6441479  65.5662394
   3.9677396  59.8661375  83.3048153   4.2885822  60.3904772  84.0385437
   3.8102621  60.5019569  82.6068401  99.7812843  60.0516272   4.9728182
  98.9708996  59.9104834   4.4833401  99.4946384  60.1924324   5.8751702
  15.6198847  95.3726196  47.7180290  16.3365912  95.9675217  47.4974489
  15.2809429  95.0816822  46.8714428   1.4844492   5.6342465  59.4336319
   1.2912250   5.5019128  58.5055256   0.9933877   6.4209366  59.6707201
 106.5159130   9.0528297   0.9782305 105.6360149   9.3792439   1.1665463
 107.1003914   9.6825314   1.4002486  10.0828457  87.1782398  87.5453854
  10.2659225  88.0684948  87.2451115   9.1901743  87.0037174  87.2472095
   2.9800838  71.2646914  75.3373909   3.6436966  71.2640858  76.0272074
   3.0965874  72.1048117  74.8937035  31.8640947  67.2097778  60.4681015
  32.3318934  67.8339720  61.0228777  31.8636632  66.3955402  60.9713411
  24.5352769  98.0354786  82.1880913  25.2872205  98.5458469  81.8875313
  23.8145089  98.3161354  81.6242123 116.7343426  62.9699373  85.4877186
 117.2780228  63.1105375  84.7125626 116.4197636  63.8432884  85.7212543
  38.0442429  89.0927029  84.3497562  37.8114510  88.2434845  83.9744282
  37.2060800  89.5387650  84.4711781   4.9360019  84.7809696  93.8131142
   4.1883183  84.2910099  93.4708691   5.6297755  84.1276073  93.9027119
  21.5219474  62.5346231  80.9550571  22.4240112  62.8485870  81.0178185
  21.0140276  63.1605530  81.4712620   9.1174668  93.0538177  66.4169216
   8.4001482  92.6920795  66.9373369   8.8899702  93.9767456  66.3043308
 111.9601631  57.3047686  88.7712288 112.3725986  56.4411545  88.7887287
 112.2121906  57.6734352  87.9245949  91.1786556  16.6542864  21.3751674
  92.0106697  16.3257027  21.0345578  91.2288952  17.6027131  21.2560248
  34.9245739  68.0523825  28.0361867  35.4926777  68.1224871  27.2690010
  34.3169045  68.7871742  27.9521799 105.3716946 105.3200150  86.3313293
 106.0871315 105.8977318  86.0655975 105.7408714 104.7913647  87.0387650
  16.0539818 104.8520660  57.7190828  16.2274671 105.1518250  58.6114264
  15.1293743 104.6044827  57.7250910  16.9897687  77.5570345  64.3174028
  16.8475187  78.4806585  64.5245647  16.5275693  77.0826340  65.0084496
  22.5773644  81.7624092  67.8016472  22.5093913  80.8680439  68.1358957
  22.9230285  81.6610432  66.9148159  11.6571021  71.2553263  63.9715767
  12.3858261  71.8713903  63.8963556  10.9201431  71.7908049  64.2654991
  73.0803776   1.9282769  55.3034401  72.1861839   1.9718991  55.6421852
  73.1750965   2.7205157  54.7746515  18.8764036  94.5755672  48.7283659
  18.8566625  95.5067825  48.5077095  18.7126565  94.5492840  49.6710873
 108.9686775  62.0534086  79.5223713 109.4200230  62.8467178  79.8107958
 109.0772152  61.4388037  80.2481174  21.2040257  80.0459290  46.6845417
  21.5050554  80.3951740  45.8457088  21.1176872  79.1044474  46.5348864
  17.1384859  71.6766024  83.4662724  16.4297175  71.4751291  84.0772438
  17.1404219  70.9430218  82.8513813  39.3553042  94.6504498  60.5258703
  38.6132216  94.7606659  61.1203432  39.2119265  93.7956333  60.1197195
  92.9894733  81.8128967  64.7815180  92.1865463  82.2298908  64.4690228
  93.5918903  82.5401688  64.9377632 116.8556023  87.8861332  95.0662422
 117.3043537  87.6210022  94.2634010 115.9371376  87.9709721  94.8104095
  10.0645459  68.0401278  48.5021305  10.9852314  67.8727388  48.3007574
   9.8810726  67.4870396  49.2615175 101.2913609  89.7839642  74.8600197
 101.7392159  90.3597260  75.4798222 101.9797611  89.4953632  74.2608023
  34.8238778 109.2218971  57.0206738  34.8888397 109.7991848  56.2599134
  35.5864048 108.6474705  56.9512558  38.9631295  79.1087675  49.6487474
  39.7324014  79.6610785  49.5094299  39.2859292  78.3765650  50.1740217
 113.4581661  83.4362411  48.1204939 113.9705849  83.8454437  47.4232054
 113.7309456  83.8916683  48.9169979   7.6718366  46.1947250  93.2223129
   8.5387039  45.8771276  93.4751034   7.0892382  45.4517508  93.3797836
  63.9070749  97.1411896   1.7395657  63.8016939  96.8343449   0.8390240
  63.0125999  97.2723198   2.0541345  69.6345043   3.5858291  79.2099285
  68.8843393   4.1609359  79.0591383  70.0772381   3.9639023  79.9697161
  84.1457367  21.8646836   3.7519947  83.2457161  21.8592072   3.4261614
  84.6187401  22.4281240   3.1395969  34.6880412  89.5206165  52.9104519
  34.7739935  88.7982368  53.5325575  35.5163717  89.9954033  52.9788017
 100.5768204  77.8672075  46.5659857 101.0635948  78.6678743  46.3705158
  99.6574783  78.1172657  46.4736843  10.8986819  68.0788422  79.2301178
  11.5497291  67.5216055  79.6565628  11.2483704  68.9656019  79.3173742
 111.3013268  63.7790442  74.1650057 110.3449345  63.7921047  74.1279078
 111.5076256  63.0731106  74.7776461  89.0135574  36.8880725  90.8330250
  89.7021770  37.2431254  90.2709103  88.6998081  36.1130738  90.3670120
  81.1891365   0.8189392  62.8345108  80.7481384   0.6369967  63.6643553
  80.4898357   0.7948921  62.1813393  17.5981963  97.0475578  83.4383869
  16.8653011  96.8858910  82.8442764  17.2106659  97.5237179  84.1727734
 106.6809082   6.9717908   2.9022017 106.8152046   7.5209343   2.1297786
 107.2705746   6.2288749   2.7733651  37.8447914  90.6791973  42.5436592
  38.2096219  89.8005199  42.4385262  37.9306078  91.0792732  41.6783237
  11.9259858  17.4773371  79.7764874  11.2311947  16.8564594  79.9955988
  11.4687598  18.2171583  79.3766880 114.2091656  85.2823639  62.4629688
 113.6539650  86.0348225  62.2585678 114.0040016  84.6414089  61.7822933
  99.2361069  59.3866348  62.7559376  99.0120602  58.9676476  61.9249868
  99.6679878  58.6986542  63.2622910  22.7973294  63.8573694  58.1340218
  21.9751048  64.3241405  58.2833672  22.5696182  62.9330587  58.2341337
  16.8754137  65.7437038  83.4974670  16.3268030  65.7015562  84.2807102
  16.2664294  65.6106758  82.7710533  48.9498377 100.2445889  61.5393543
  48.0687857 100.2467346  61.1652279  49.5025969  99.8796558  60.8483315
   2.7279180  62.4968624  76.6565943   2.5120637  62.3189878  77.5720167
   3.2204285  61.7267704  76.3726521 109.9261570  22.9506302   6.2100196
 109.6428108  22.5767899   5.3756404 110.2436352  23.8251972   5.9851289
   7.0823020  75.2582741  66.4122343   7.0496964  75.3791046  65.4632521
   6.6787696  74.4027472  66.5587568   0.5411807  99.2903614  92.8751850
   1.0563441  98.8576603  92.1942902   0.8300990 100.2025890  92.8507710
   4.4276565  67.0209408  57.1436167   4.4360259  67.2611475  56.2170839
   3.5642064  66.6317987  57.2823668  18.0338097   7.9278034  50.1759005
  18.0111349   8.6162806  49.5112848  17.1562898   7.5460100  50.1552916
 109.8106194  91.4144325  54.3131733 110.7378769  91.3530064  54.5426464
 109.5689964  90.5256462  54.0525723  24.2544699  80.9875011  76.8676043
  24.5172191  80.7875919  75.9691477  23.8868427  81.8699455  76.8189144
  14.1832817  52.9379606  30.4749656  14.0367877  53.7112331  31.0197759
  14.8387301  52.4293137  30.9523487  47.4259340  14.7364468  95.8806938
  47.4376929  14.8866887  96.8259558  48.0212080  13.9986891  95.7480171
  25.5927515  79.1331339  46.5141773  25.5204129  79.3309021  45.5804253
  24.9290657  78.4609270  46.6687441  42.2259474  76.9111013  29.5749450
  42.2517681  77.1558094  28.6499143  43.0039930  77.3209763  29.9529314
 115.2708626  73.2449961  88.1306171 114.8722363  72.5761890  88.6874199
 115.2223492  72.8808355  87.2467232  93.7044621  64.7983217  58.3283663
  93.8685226  64.6144772  59.2533112  94.5680904  64.7523165  57.9181719
   2.8491113  99.0682030  90.6101513   3.3935413  98.3184814  90.8504391
   3.2539755  99.4129086  89.8142242  12.0896041  94.3480587  77.8107643
  11.9828546  94.1025352  76.8917656  12.2770107  95.2864456  77.7877617
 111.0427380  72.3098135  59.2518711 110.7300377  71.4093447  59.3390846
 111.3621998  72.3662567  58.3513212  17.4003780  60.1328182  75.7481384
  17.7433121  59.3136978  75.3908253  17.4458444  60.7502079  75.0180721
  88.0907440  40.0586557  16.9944322  87.6876163  39.9824691  17.8592551
  87.4686813  40.5781746  16.4851415 112.2134686  98.5540199  63.9807987
 113.1523609  98.6659050  63.8317823 111.8632126  98.3049965  63.1255007
  22.7183723  92.1016121  71.4529562  21.8104792  91.8371105  71.6012955
  22.9922152  91.5983582  70.6861591  33.3731461  38.6775279  48.0189896
  33.4573078  39.2263675  47.2392988  33.6236119  37.8020954  47.7238369
 100.8467007  28.6699605   8.2742351 100.6783772  27.8928733   7.7412874
  99.9782181  28.9665484   8.5462576  18.9161992  79.6964073  75.1316690
  19.3891191  78.9954138  74.6831322  19.2230880  80.4996204  74.7110701
  32.8840995  16.0950530  78.5341024  32.3368168  15.7168007  77.8458881
  32.9413414  17.0241439  78.3110619   2.6034054  90.0249100  87.8384209
   3.5576612  90.0963688  87.8612423   2.3191373  90.7780552  87.3205471
  14.7806370  67.8206873  79.0349722  14.8455441  68.6780024  78.6142206
  14.9818206  67.1960497  78.3381319 109.0774250  72.3619318  80.9417725
 108.8359642  72.3109388  81.8666077 108.8313007  71.5094852  80.5826187
  91.8228722  20.9932375   6.9852614  90.8702850  20.9361148   6.9108057
  92.0757294  21.6438103   6.3302422  21.6808605  95.8471966  58.7327337
  22.6149535  95.8649921  58.5244322  21.4589334  94.9164391  58.7586594
  72.0959902  72.5848913   8.3779943  72.0159674  71.8290424   7.7961725
  72.9166555  73.0025291   8.1166035  12.4512470  19.6151829  15.8474731
  11.7794323  18.9421558  15.7382476  12.0370054  20.4198885  15.5358875
  20.9137511  78.2716131  65.4859829  20.7151937  79.0673685  65.9795237
  20.5185246  77.5667238  65.9989738  80.8467674   1.9216251  16.2226737
  79.9937296   2.0980479  16.6194403  81.4748573   2.3483253  16.8054867
  45.4684925   4.6500206  65.5682325  46.0233498   5.3050435  65.9916878
  45.9677744   3.8358459  65.6320286  41.5343380   5.7537216  92.4883747
  41.5214062   4.9845746  91.9187450  41.5852833   6.4964879  91.8867683
 114.3210125 100.1322460  46.9208336 114.4412327  99.1977406  46.7520761
 114.6204185 100.2533722  47.8218937 103.6136341  95.5925846  54.8082352
 103.5368443  95.1311302  55.6433392 103.8697624  96.4828491  55.0491953
  16.4992177 108.7316036  47.5728512  16.5787673 107.8514099  47.9405069
  16.8744874 108.6594105  46.6952467  89.3671227  64.0302992   9.7752506
  89.4567108  63.1004095   9.5666569  88.9393806  64.4080305   9.0067500
  43.3292246 107.8327751  70.6422949  44.2706871 107.6625252  70.6124783
  42.9333735 106.9694710  70.7616234  33.2663274  80.0745010  83.9046955
  33.6564445  80.7005978  83.2947445  32.4533224  80.4920387  84.1891575
   1.3914566  83.9486885  73.0032349   1.8645950  84.0952969  72.1841621
   1.7078999  83.1004906  73.3141088  26.2528777 101.7221355  54.0822172
  26.5912318 101.5619183  53.2012606  25.5642676 102.3755169  53.9591455
  23.4492898  90.9794140  74.1348314  22.9083753  90.2622032  74.4653702
  22.9713798  91.3086987  73.3736420  50.3254604  12.2479427  40.8234835
  50.8917713  11.6418982  41.3012218  50.1865673  12.9749262  41.4304686
  56.0192823 108.5916328  59.9670410  55.9343147 107.9327488  59.2779207
  56.9419193 108.5565472  60.2195168  37.3599672 109.3881989  89.5728970
  36.5436077 109.7104645  89.9549103  37.7332091 110.1492977  89.1283226
 112.7064037  89.9122143  59.6786594 113.5174465  89.7507477  60.1606941
 112.8921795  90.6886387  59.1505527  94.6820354  26.4691567   6.3348907
  94.0399456  26.0358810   6.8972301  94.1599655  26.8698287   5.6398082
  14.2667520 100.8252525  89.0749645  13.3821511 100.7040024  89.4199467
  14.6039748 101.5888119  89.5434666   9.0958714  86.0491371  81.6255856
   8.6903656  85.2218342  81.3660145   9.5794082  85.8386135  82.4244022
   2.5038186  63.1368828  90.8321095   3.1879598  63.1881666  91.4996052
   2.6454073  63.9088917  90.2842140  75.3802204  10.1232564  78.1500578
  75.5512810   9.2661446  77.7597618  75.0241947   9.9252558  79.0162373
  94.4752789  16.6802132  15.6655252  95.3072453  16.2076116  15.6921506
  94.0122223  16.3945222  16.4530480  45.1838684  13.8272381  86.4929676
  45.0957155  14.6089089  85.9475708  45.0952625  13.0967844  85.8807468
 102.7874184  95.5617237  52.1497869 101.9060040  95.2159595  52.0091057
 102.9129314  95.5191326  53.0977631  33.8419843  98.3810997  64.3427038
  33.7015796  97.8116798  65.0991917  34.1463709  99.2073441  64.7180653
 101.9709015  75.1917887  38.2182884 102.2480965  75.1462460  37.3032379
 102.4275017  74.4657564  38.6432886  20.3895926  83.8584709  70.7337475
  20.9815168  83.6741734  71.4630604  20.6090665  84.7511196  70.4668331
  29.1403985  89.1612816  82.4984455  29.0970945  88.4623051  83.1509686
  28.5377836  89.8301411  82.8235817  30.0249100  82.3144913  59.4710779
  30.2637124  82.5943756  60.3547478  29.5127082  81.5166569  59.6027517
  11.0155070  87.1635532  61.8559504  11.7858779  86.8246651  61.3999796
  11.1423218  88.1122398  61.8679047   4.8897362 107.0236588  84.6087456
   5.5691290 107.5866413  84.9798298   4.5536417 106.5292645  85.3563023
  42.2324991  85.3005981  47.0794344  42.0426989  85.9319210  47.7734375
  41.5012503  84.6837139  47.1102762  31.7102289 109.8606682  40.4643059
  31.6160083 110.7120037  40.8916092  32.5550532 109.5310879  40.7707024
  82.1445560   2.7715012  87.8332138  81.5134144   3.4871385  87.9090786
  82.5787163   2.7436545  88.6858368  21.8470120  22.5787497  55.7829475
  21.8946743  22.6009464  54.8271942  22.7576995  22.4977469  56.0663557
  42.1200037   7.8949106  44.6158934  42.4566507   7.5352550  43.7951946
  41.2904930   7.4380308  44.7551966  56.6231155   6.4989752  79.9704838
  56.2547350   6.5633112  79.0893555  56.3104153   5.6563932  80.2998829
  12.5926173  94.5392895  40.2259445  13.3713257  94.1639900  40.6370258
  12.5905907  94.1759682  39.3403816 111.9245434  71.0777521  62.1386814
 111.0509491  70.7044077  62.2555923 112.5109196  70.4536963  62.5664186
   6.8037271  45.8047056   5.9581679   6.4413297  44.9792433   5.6364405
   6.2760860  46.4801693   5.5320489  16.1358964  94.4427299  87.6820946
  15.3908467  94.2723274  87.1058178  16.8131983  93.8356972  87.3837566
  13.1659114  70.5469704  66.6715717  13.1114113  71.4593601  66.9558334
  13.9556503  70.5110121  66.1318922  48.3093929  97.8877926  59.0074158
  49.2096281  98.1127262  59.2423964  47.8076077  98.6811066  59.1947842
  30.8820462  91.0172558  63.8538790  30.3001928  91.3051510  64.5572948
  30.4391146  91.2894440  63.0501652  22.0124340  33.1871724  16.4627135
  22.7226329  32.5500941  16.5400624  22.0078802  33.4295297  15.5367148
   8.6681992  72.8478479  32.1336126   8.6529458  73.8002968  32.2276425
   8.5217983  72.5172949  33.0199146  84.9629593  35.9870553   2.4546893
  84.2056370  35.4148412   2.3311464  84.7436428  36.7826700   1.9697861
  28.8648748  93.4863377  57.4160910  29.2645121  92.6166534  57.4032211
  27.9887533  93.3527088  57.0544434 108.8460159  84.2164803  26.2555003
 108.9120007  83.3653069  26.6883779 108.7452221  84.0059185  25.3272033
  32.4080682   1.6562334  46.0992384  31.4727426   1.8584755  46.0770273
  32.6086903   1.5526183  47.0294237  11.9220006  91.6243839  96.0409641
  11.0857058  91.9984627  96.3182831  12.1183360  92.0638371  95.2135754
  83.4241676   4.3498871  89.5780277  84.2075920   4.3830717  89.0290546
  83.2357597   5.2658945  89.7821522   6.4564234 101.1430740  67.7966690
   6.8179685 101.2023830  68.6809731   6.4817095 102.0412922  67.4668264
  62.8974676   9.3733728  71.2220287  61.9541788   9.4170570  71.3786411
  63.0915117   8.4366590  71.1881685  80.9986877  28.5163832  92.1461773
  81.3712597  29.1350150  92.7744389  80.0784969  28.4428906  92.3993111
  34.1519809  89.1086960  48.1652069  35.0512624  89.3343258  48.4031534
  34.0943217  88.1649780  48.3144999  25.7960391  79.8572922  68.5253859
  26.5778732  80.2227974  68.1114101  25.5968833  79.0744352  68.0118704
   4.9143553 104.1967869  94.2519379   4.3566018 104.3346786  93.4863472
   4.4852617 104.6880531  94.9524879  28.0253887  95.7835960  59.0729809
  28.9823365  95.7733917  59.0535927  27.7648830  95.2579975  58.3165932
  36.8770289 103.7942696  46.4032221  36.4165807 104.3437386  45.7689476
  37.7848077 103.7873745  46.0997057  54.9012852   1.2343042  53.4405136
  55.6927395   0.8030466  53.7627602  54.3098688   0.5150061  53.2189941
  13.1760359 101.3121319  50.2826548  12.3491764 101.4889431  49.8340225
  13.5610354 100.5828571  49.7966814  62.6833916   3.6053884  76.6740990
  62.2024584   4.3863261  76.9480944  63.5181522   3.6627981  77.1389723
   9.3562156  96.8253994  67.1564150   8.6959136  96.6454887  67.8256464
   9.1924584  97.7318001  66.8959332   7.0546287  98.2361031  55.4182053
   6.6889715  97.3721409  55.2282047   7.5770611  98.4503269  54.6452856
   5.6328285  91.1632538  57.1229076   6.2475467  90.7360077  56.5264082
   4.7732100  91.0112667  56.7302418  28.4178972  81.0493374  87.2755718
  28.5088563  80.4277992  86.5533161  27.5082517  80.9561920  87.5585938
  25.8233190   5.5843896  82.1493816  26.7716765   5.4557312  82.1664906
  25.5107927   5.1695490  82.9534149  11.2014151  88.4395218  74.4161081
  11.1154628  87.6671410  73.8572979  11.9807172  88.8875675  74.0872097
  21.3987565  99.3435955  69.6639729  21.1030269  99.0110588  68.8165092
  21.5862060  98.5578060  70.1774216  59.4249487  12.3445392  80.1999283
  59.5925045  13.2622445  79.9855232  58.5369349  12.1824598  79.8815060
  27.5006318  77.7356052  66.2320757  28.0845666  77.0282793  65.9583235
  26.8168283  77.2987127  66.7397881  21.5156484  82.2143269  56.2209988
  22.3875713  81.8232155  56.2758875  21.5538716  82.9683018  56.8094730
 113.9680290  74.0330267   9.2459202 114.5971680  73.3394146   9.4442141
 114.4269466  74.8432255   9.4677407  22.4000263  92.3024940  64.4778728
  21.9671226  93.1270313  64.6991348  21.9748735  91.6514397  65.0360823
  54.0964460  85.9490204  55.6325388  53.2561302  86.0015678  55.1771975
  53.8798714  85.5942059  56.4947653  65.9192228 109.8498154  59.5546865
  65.2698135 109.3789291  60.0769567  65.8069515 110.7673073  59.8033476
  29.9481273  93.6768627  49.4036055  30.3411412  92.8811550  49.0449715
  30.5601645  93.9613628  50.0823593  47.2400427  19.8113024  67.7202845
  46.6677380  19.3803859  67.0854521  46.6409063  20.2014828  68.3566999
  20.6940484  69.6632719  91.9708347  19.8723006  70.1519156  91.9240284
  20.8969378  69.4480991  91.0604668   9.5371741 110.5521202  28.5412312
   9.6030116 111.0118961  29.3781877  10.2768636 109.9445915  28.5428691
  27.7818942  84.6232033  51.8728971  27.9758549  83.9380169  52.5125217
  27.1382928  84.2271805  51.2853861   8.3412176   2.1931462  60.5411291
   7.6267171   2.1810633  59.9042797   8.2709587   3.0491388  60.9637070
  20.5357027  46.2729979  82.6404095  20.9711385  46.6539860  83.4029484
  21.2208915  46.2220240  81.9739628 115.9597588  57.3280334  18.2395983
 116.2463379  57.5395584  19.1280580 116.6961288  57.5824022  17.6834702
  91.6436005  43.6359930  10.8004391  92.3115158  43.6212015  11.4859271
  91.0765934  42.8917217  11.0024059  97.4261570  27.6367068   6.8990541
  98.0955029  27.2941780   6.3066953  96.6028023  27.2881198   6.5572935
  55.8404016  79.7389364  53.9625978  56.7485571  79.5541525  54.2020512
  55.7580137  80.6885338  54.0504313  17.6600492 105.1873016  90.2233124
  17.7679455 104.6720123  91.0227299  17.5630987 104.5352364  89.5293045
  71.1065149  39.4462347  71.4326429  71.0549307  38.7101293  72.0423317
  70.9811687  40.2206898  71.9810438  15.2349031  67.2670221  66.5085125
  14.6219933  66.6789579  66.0672045  14.9328804  68.1453419  66.2770748
  98.6126423  42.3527908   5.2911782  98.3441544  41.7216682   5.9588802
  99.5487404  42.1921015   5.1723444  33.5182619  15.1119685  66.6417170
  33.2363367  15.6594706  67.3745155  32.7136707  14.9275541  66.1570978
  35.7006216  93.1967068  76.6447878  35.0504613  93.7253666  76.1821413
  36.4558029  93.1773472  76.0569429  19.6190453 105.0950336  84.8980904
  19.8330665 106.0269451  84.9425316  18.6649895 105.0716591  84.8241806
  68.1978559  78.2669640  88.0615616  67.4650526  78.2473516  88.6770630
  68.1349802  79.1247940  87.6415539   2.7166820  99.1014194  55.8334637
   2.8386447  99.0069294  54.8887777   2.7712756 100.0443363  55.9888840
  58.2695389  36.0892224  84.5227528  58.9404106  35.6072164  85.0063133
  58.1788301  35.6114745  83.6982727  28.5259485  78.7642288  85.5951405
  27.7440524  78.3171034  85.9190941  28.3174515  78.9836311  84.6870518
  13.4432232 110.7807830  73.6225653  13.0851376 111.6650161  73.5442209
  13.5328781 110.6413430  74.5653009 114.4754028 106.1773777  91.1132717
 114.0036583 106.2741661  90.2860355 114.7801113 105.2699757  91.1104870
  50.3864098 103.9174080  76.0621548  49.8218298 104.1405869  76.8022060
  49.9719477 104.3386269  75.3091431  -0.0214916  49.1471767  17.6668715
  -0.0386329  49.9770832  18.1435192   0.7762846  49.1901922  17.1396768
 114.8720264  97.0040703  95.9388542 114.1608238  96.9109440  95.3050137
 115.5953884  97.3760319  95.4342461  22.4006033  88.1906509  82.3735142
  22.3445296  88.1377220  83.3276081  23.3230257  88.0255699  82.1782780
  59.5717525  10.9131920  82.5845051  59.1046095  11.6883826  82.8960896
  59.6026802  11.0183024  81.6335964   8.6056674 104.1318226  79.9687052
   8.6764556 103.4478092  79.3028593   9.3492037 103.9768600  80.5512619
   6.9064403  97.8993702  32.2180915   6.1338222  97.8324509  32.7791739
   6.5620416  98.1726933  31.3678479  20.2209020 101.1481762  81.5323734
  19.8092842 100.2964306  81.6784286  20.8382916 101.2433434  82.2576332
  25.4960728  80.7867908  71.0707045  26.3199210  81.2638092  71.1705017
  25.5716944  80.3534317  70.2205849  18.4443438  30.5659103   7.1259850
  18.7021494  31.4031219   6.7401809  18.0740023  30.7984853   7.9774469
  49.6737432  94.2280674  69.3411779  49.7027206  93.2799053  69.4691563
  50.5897522  94.4829464  69.2307281   7.5566262  39.8525667  -0.2189002
   7.6216084  39.3522215   0.5945262   6.6212565  40.0309849  -0.3162751
  75.0251770  21.3200212  62.3358488  74.0887308  21.1223841  62.3203707
  75.0716257  22.2690296  62.2198439   5.1110303  87.8483391  75.1431894
   4.6855399  88.1885052  75.9302568   6.0434222  88.0115986  75.2853966
 105.0351143   5.2089041  74.7060108 105.2364159   6.0177124  74.2353296
 104.4118500   5.4741555  75.3823423   7.7204996  75.6867647  46.8680143
   7.5623000  76.1713076  46.0578108   7.8741336  74.7861862  46.5823889
  26.3359427  98.6416626  92.1341515  26.0364437  97.7613068  91.9072056
  25.5324435  99.1274738  92.3201942   1.1545812 109.9346447  49.8375463
   0.4359709 109.5903587  49.3071651   0.8256488 109.9031830  50.7359028
  70.7163000  95.2987766  57.1597004  70.6646395  94.3464565  57.2412205
  71.6540909  95.4845810  57.1122360  31.6525578  91.0285568  67.5583839
  31.8623018  91.5008450  66.7526627  30.7147408  90.8483505  67.4931669
   3.1655699  96.3512230  80.0992107   2.3045659  95.9343529  80.1327610
   2.9885200  97.2792435  80.2530098 103.4006500  94.6196938  25.3928900
 102.6410389  95.1382637  25.1277184 104.1535473  95.1174450  25.0741148
  55.8254814  11.3032794  62.9797363  56.3339424  12.1129847  62.9341364
  55.2423668  11.4284766  63.7284231 106.3726521  74.6324968  64.9056768
 105.7613754  74.4850683  64.1839790 106.1935043  73.9210081  65.5204296
  98.9142323  78.3815241  85.5993366  98.0959797  78.6175776  85.1623535
  99.3299580  79.2203760  85.7986641  25.4034305  76.4850140  93.4413052
  24.5149827  76.8336248  93.5145569  25.8337140  77.0574331  92.8061485
   6.9865388 101.7128372  77.0832205   6.1810100 101.6016769  77.5881958
   6.9312483 101.0498047  76.3950634 116.7585278  69.6623087  95.7787991
 117.1274090  70.5428696  95.7096863 116.8064499  69.4551277  96.7120838
  66.1116838 108.5970402  82.5175762  66.2469721 108.1490231  81.6825867
  66.3869190 107.9611206  83.1779385   2.0004475 105.1867104  36.7249060
   2.0488147 105.1163387  35.7715225   1.1050295 104.9249744  36.9392705
  15.2237332  79.4395494  71.8109989  15.6057763  80.2975750  71.9955730
  14.3743384  79.4556856  72.2520208  54.1588736  20.1517129  63.3097029
  55.0803900  19.9329650  63.1711960  53.6797762  19.3942046  62.9737282
  40.8682680   3.0079484  71.4767647  41.1005449   2.0828028  71.3968563
  41.6908360   3.4749514  71.3300610  33.8790870  97.0353985  74.3476868
  34.3728447  96.4446735  73.7789297  33.5042882  97.6839733  73.7517738
  24.0169597  85.0533772  35.8203650  23.7740755  84.1308880  35.8994150
  23.9180064  85.2480984  34.8884177  70.7100296  26.0635948  62.1348953
  69.9430466  25.4915118  62.1611643  70.5021620  26.7121410  61.4622831
 107.1078300 109.6748161  49.7735834 107.9768562 109.2981434  49.9119043
 106.9798279 109.6400261  48.8256216  21.4065075  99.1431141  66.7610025
  21.4977098  99.7994995  66.0703087  22.2005105  99.2372513  67.2872448
  10.8927178  81.5300465  38.9803290  10.8329761  82.2973251  39.5494938
  11.7349768  81.1327076  39.2015767  15.9275234  88.2625866  84.7274590
  15.2199662  88.5888195  84.1714287  16.7265570  88.5930252  84.3168736
  11.9069934  78.3003807  51.5416527  11.5783608  77.5840950  52.0849514
  11.2093699  78.9554882  51.5613842  22.8518248  97.5806713  94.8499966
  23.6070752  97.7277470  95.4193783  22.4335313  96.7962170  95.2048111
  24.9834013  98.3346844  75.5689335  24.6850157  98.6715412  76.4137554
  25.0122690  97.3851490  75.6863642  19.2227721  85.7630157  41.1200380
  19.3982947  86.3664246  40.3980112  20.0817299  85.4090786  41.3505793
  16.0540938  83.0042267  50.2131939  16.7970574  83.1050491  49.6181536
  16.3336587  82.3309135  50.8334589  25.7197881 106.6256905  47.5094032
  24.9556994 107.0392990  47.9110575  25.3683257 106.1575890  46.7520475
 103.6887169  92.5913334  83.5717583 103.8178062  92.3029900  84.4753170
 104.1784954  91.9587708  83.0461884  23.7177587 106.6976547  60.3745699
  24.6039009 106.4855576  60.0813198  23.4082603 105.8977985  60.7996321
  25.3705716  94.6292210  71.6962194  24.9571991  93.7999821  71.4559650
  26.0968423  94.3782711  72.2669983  82.3615742   7.7350134  59.8108435
  82.0171738   8.6071044  60.0033998  83.1579208   7.8982061  59.3054485
  17.2007370  93.0608845  68.1385660  17.1348596  92.3826790  67.4663067
  18.0198574  92.8674507  68.5944748  92.8139400  38.3796573  10.3783774
  93.3569145  38.4599686  11.1625707  92.4455643  39.2539835  10.2515411
  16.2244844  87.6263714  39.5319009  15.2736497  87.5434589  39.6045041
  16.3561988  88.3952713  38.9772129   1.1838137  71.5075636   3.9329007
   1.3999735  70.5931759   4.1156593   0.3962790  71.6755533   4.4503933
  17.4673665 104.0110970  94.8434639  16.9379389 103.2654858  95.1263237
  17.6999438 103.8095856  93.9370823   3.7957382 102.2406864  76.8247318
   4.1933420 102.8707027  76.2237167   2.8542691 102.3929310  76.7429495
   1.0733684  91.9727230  30.5547357   0.8231151  92.1585846  29.6497154
   0.8009509  92.7496910  31.0429454 106.8208408  96.1639690  75.3550196
 106.4795971  96.2158108  74.4622183 107.6973629  96.5444660  75.2988815
  65.3050804  10.5156434  78.9114046  64.5616341  10.5782688  79.5110750
  66.0744619  10.6084239  79.4732523 110.0169563  53.3338594   8.1738496
 110.2339935  53.3887815   7.2431988 110.0523281  52.3983192   8.3732301
 110.4077911  48.0786800  14.7233677 110.9262848  47.8276014  15.4877949
 109.9658585  48.8854027  14.9881828  65.0369310  17.5230956  39.7632337
  65.4918432  17.5981843  38.9243960  65.0682831  18.4056246  40.1325417
  21.3303757  66.9214773  57.1614170  20.9443855  67.7364731  56.8404484
  22.1259570  66.8118525  56.6405869  78.2006454   5.6131810  94.6568584
  78.5148191   6.0344583  93.8568211  77.5197649   6.2003732  94.9852467
 102.3075581  73.5916615  32.2302055 102.4154568  74.0342474  31.3883591
 103.0315208  72.9665422  32.2666788  54.7253609 107.0151997  88.6603451
  54.4789505 107.4563599  89.4732952  55.2338839 107.6674843  88.1785011
  35.4014516  90.1960945  84.9539757  34.8967409  90.4473686  84.1804409
  35.7641649  91.0192966  85.2811050   4.6545956  74.7804928   5.4607677
   3.7099063  74.7343063   5.3135920   4.9002591  75.6575537   5.1664156
  10.7695460  70.8065557  84.6334457  10.4208922  71.0318565  83.7709427
  11.7007709  70.6460047  84.4808769   7.8597617 101.2995434  70.0615692
   8.2067579 101.1210442  70.9356213   7.9656047 102.2443295  69.9501944
   9.9908710 105.7273579  76.1196947   9.1685820 105.9519291  76.5551758
  10.2401626 104.8844528  76.4986324  25.5277038 108.2438183  58.2180643
  25.9252882 107.5135803  58.6923265  26.0555387 108.3295441  57.4241686
 103.4963512  95.0211811  64.7679949 102.9020309  95.5410480  64.2269325
 102.9870319  94.2468262  65.0071621  23.4253812  88.2336617  63.5659552
  23.1772137  87.5351238  62.9604149  23.6968446  88.9561844  62.9998255
  61.8561077 103.8097477  51.8798161  61.0259771 103.6520004  52.3295164
  61.6167164 104.3230915  51.1081886  56.2206459   3.1754753  65.9839296
  55.5105639   3.2696128  65.3489876  57.0099878   3.4133261  65.4975080
  27.1276426  89.0505219  57.2550774  27.6149535  88.2372570  57.1232843
  26.6212869  89.1594601  56.4501143   3.2634780  91.6697025  82.4125957
   3.3296034  91.9124126  81.4890480   2.9280058  90.7732868  82.4012375
  50.9279966 105.9840012  18.2628536  50.0922394 106.0489941  18.7249422
  50.6855297 105.8828640  17.3424113  38.8936019  83.4124565  58.6240959
  38.1963944  82.7712631  58.7619495  38.4676290  84.2603111  58.7502337
  23.8284922 102.9399681  64.3404150  24.2391491 103.3263779  65.1139021
  24.5114470 102.3904324  63.9559555  17.1748245  92.9023933  36.3493228
  17.9502273  92.7607441  35.8062625  16.4458299  92.5941563  35.8110023
 116.0077190  87.2098351  30.5180383 116.0098648  87.1032429  29.5667934
 115.0826073  87.2993660  30.7469296 108.9278698  67.2159672  91.7950821
 108.9403152  67.3357153  90.8454800 108.0280304  67.4193430  92.0503616
  57.0050621   5.5351752  63.0418730  57.0990038   5.7152039  63.9772844
  57.3020315   4.6308145  62.9410124  21.1092901 103.0833340  52.7891541
  20.2722788 103.3812904  53.1453276  21.6710925 103.8577938  52.8178310
   9.9037552 105.9859085  62.5447702   9.5275819 105.8353806  63.4119892
   9.4688773 105.3463650  61.9807673  36.7316604   5.5641156  69.3448734
  35.7988143   5.4881239  69.1442347  36.8017340   6.3700861  69.8564720
   5.9865856  81.7328167  51.4533329   5.5524236  81.0167217  50.9897137
   5.4396617  81.8857002  52.2238731  14.5018303   4.6045840  52.5880432
  13.5747445   4.3807372  52.5065804  14.7533560   4.9048916  51.7146683
  32.5609851  15.5204570  43.8795137  33.1997919  15.0999212  44.4551086
  32.9350686  16.3821197  43.6955881  21.5607500  73.9958763  51.4197063
  20.6328321  73.8326550  51.2507153  21.7009449  73.6794662  52.3121548
  54.3665123  28.7961769  81.8747616  53.7878656  29.3353391  81.3355923
  54.0803862  27.8979397  81.7088127  55.3608990  22.4842453  81.2864113
  55.2308750  22.0290709  82.1183681  56.1793518  22.9667687  81.4027500
  81.4925575   9.3929785  67.7432871  81.5825558   9.9558121  68.5122776
  80.5593204   9.4227672  67.5325680  99.1970062  47.6699257  21.7205334
  99.5144463  48.5415363  21.9566703  99.6793270  47.4469233  20.9243751
   8.0093598  96.4327812  80.1358509   7.6681215  97.3225307  80.0456333
   8.8611877  96.4576054  79.6999550  41.5264082  92.8705120  95.7008839
  41.9896173  92.6527691  96.5097523  41.2982464  93.7951374  95.7970142
  76.1979961   0.5911963  48.1912088  76.2734556   1.5340352  48.3381510
  75.3693104   0.3498608  48.6050510  15.9108543  77.5118160  69.7206259
  15.3302824  78.2370567  69.4899797  16.6264832  77.9228115  70.2055883
  46.4293909 102.2854710  95.6271076  46.7175579 101.5341187  96.1454391
  45.4735661 102.2392178  95.6491566  44.3079519  71.3749647  27.4655199
  43.5708523  70.9055996  27.0748615  44.5774937  70.8267689  28.2024455
  60.6596434 110.7516148  50.9093904  60.1982557 111.5847193  51.0057974
  59.9919760 110.1433422  50.5924368 100.0760269  57.3766422   4.6201673
  99.8622894  58.2073355   5.0450224  99.4939327  57.3390341   3.8612330
  20.5021095 104.1686249  89.4522953  20.3729296 105.1000786  89.6310139
  19.9466598 103.9910984  88.6932278  38.5029054  15.4040539  62.2132301
  37.6235390  15.1403201  61.9423199  38.5550642  16.3325071  61.9863272
  99.4797897  48.3374166   6.6667336  99.7930622  47.4944496   6.9946128
 100.2196121  48.6927223   6.1741358  16.7808568  98.6512756  61.7266750
  16.2606335  99.2370796  61.1767340  17.6681507  99.0078068  61.6839933
  83.9146137  23.4183598  89.6020889  83.3041191  24.1549492  89.6331596
  83.4576893  22.7093220  90.0545406  53.9591312  93.4281445  63.1326437
  53.1027317  93.0444145  62.9440641  53.8005304  94.0170002  63.8704205
  13.8385677  79.0333223  79.7124338  13.6940908  79.9351931  79.4260931
  14.7400773  79.0256548  80.0340748  56.2491608  18.1836331  73.8386440
  56.2517452  17.4277258  74.4258690  55.9432745  18.9089465  74.3832445
  92.3501110  25.9677076  20.7071042  93.0578709  25.4087973  20.3862715
  92.1421623  26.5389729  19.9677527 114.6382618  59.7805882   7.1332151
 114.1229725  59.1039515   7.5723869 113.9944363  60.4370594   6.8671960
  28.6827302 101.6424274  55.3928995  29.3818831 101.7786884  54.7534847
  27.8862381 101.5754414  54.8662615  37.2642636 106.5670109  73.4411573
  36.6556454 107.0495796  74.0005732  36.9531631 106.7314816  72.5509930
  23.2090163  83.0148029  50.8519936  22.9796171  82.9744434  49.9235630
  23.0961704  83.9358807  51.0867691  65.9714651  67.3945713  52.8629303
  66.3549709  68.2670546  52.7739143  66.1904383  67.1266031  53.7553835
  17.0816660  87.9989815  81.5060711  16.4152539  87.9905415  82.1931362
  17.5865936  87.1990490  81.6523170  62.5064230   4.9230871  63.2664156
  62.4870539   4.0240479  63.5944176  63.2470846   4.9410170  62.6603365
  44.6842384  71.3990879   0.1623196  44.1191530  72.1650314   0.0611284
  44.6755075  71.2174845   1.1020947  84.5771885   8.0747741  48.7211227
  84.3125534   7.9646063  49.6343899  85.5339146   8.0866671  48.7487555
  94.8261452   3.4183341  62.6243353  94.5972443   3.3271587  63.5492802
  94.0024090   3.2746160  62.1584511  42.9132891  19.1345930  67.3568344
  43.1730270  19.4013190  66.4750004  42.0003223  19.4122446  67.4318838
  80.5832005  41.2118483  80.1986599  80.3732681  40.7046509  79.4145012
  80.4952526  42.1246243  79.9241829  66.8377209  37.7356577  74.3875217
  67.1540833  38.0710697  73.5486841  67.5733709  37.2329211  74.7372484
  20.2894950  87.8722191  93.2535934  21.0780931  88.1845188  93.6972237
  19.5971608  88.4617710  93.5524750  87.6810646  10.8705437  68.0501699
  87.6362324  10.8836424  69.0062284  87.9767323   9.9856156  67.8363609
 109.8467434  75.2546816   0.5426855 109.3189037  75.6896715   1.2123174
 110.5235231  74.7904735   1.0353441  22.1386266 109.5145226  76.3983679
  22.2422457 110.4648018  76.3487053  21.2410927 109.3558502  76.1059809
   0.6077467  20.8055592  22.6156259   0.4303252  21.1637902  21.7458987
   0.4859911  19.8614609  22.5152016  85.1104259  42.3079824   4.4214517
  85.1163960  42.7761650   3.5865849  84.4616318  41.6143465   4.3024325
  42.3022127  81.3696671  60.7979107  42.9535580  81.4660263  61.4926720
  41.9587708  82.2535419  60.6673241 109.5578575  16.5436065  92.0852184
 110.4992676  16.5339386  91.9123459 109.1549492  16.5490913  91.2169647
  36.9793868  30.7717705  68.8054419  37.3504257  31.4862180  69.3232489
  37.6820683  30.5203676  68.2060480  58.5040426  10.2768052  73.4283972
  59.3355274   9.8026037  73.4279156  57.9587269   9.8047298  72.7991056
 107.7589703  96.9885159  72.3979568 107.8501415  97.8636360  72.0210028
 107.2487831  96.5010834  71.7511606  28.0390978 101.5070057  89.9602127
  28.3040118 100.6980228  89.5224857  27.7243185 102.0699883  89.2529774
  20.6330276 107.9787064  61.3925266  21.0334492 108.2265091  60.5591679
  21.3681388 107.6972008  61.9371367  83.7635136   3.0868244  70.2318716
  83.2291317   2.6598617  69.5622730  83.3467579   2.8472611  71.0596132
  39.8613667  91.6442108  79.4366264  39.3423557  91.0696316  79.9994040
  39.7127414  91.3107872  78.5517693  29.2632675 106.5190887  77.5251245
  29.4610119 107.3021603  78.0388546  28.3097386 106.5220165  77.4414158
  53.6505032 101.9028091  67.7735901  53.0642509 101.3921642  68.3319616
  54.2854595 102.2851276  68.3793020  64.1350842   7.0774621  49.7715378
  64.5229864   7.3278457  48.9330435  64.8219776   6.5786159  50.2137661
  86.4461613 110.7522297  60.1485777  86.4499283 110.5557823  59.2117596
  87.0279980 111.5070915  60.2373457   0.3147409  91.3756561   4.5713392
   0.7492363  90.9112740   5.2867413  -0.4053005  91.8448734   4.9927670
  77.5423384  85.6301689  54.0129280  76.7201805  86.1189461  53.9756775
  77.7158642  85.5242920  54.9482918  34.0679407  99.3215752  92.7997017
  33.2263398  99.5057964  92.3825645  34.2397380  98.4020805  92.5966263
  16.4414692 106.3416004  43.7246323  16.9111085 107.1577454  43.5526848
  16.3105237 106.3358021  44.6728134  36.1724377  82.2725964  84.6768951
  35.6235623  82.0410538  85.4261303  35.8414841  83.1242657  84.3916512
  57.2258377 109.8811436  68.5637426  56.4588976 109.3868637  68.2743931
  57.9436398 109.2486000  68.5340357  29.1245985  95.2057743  64.5148563
  28.1774640  95.0935364  64.4338131  29.4804120  94.8258591  63.7115574
 117.5014488 108.3912754  83.2654381 118.4550768 108.3090401  83.2733822
 117.3108183 108.8919067  82.4721813  45.8157682  14.5724630  48.2845354
  45.0311470  15.1068294  48.1618309  45.5453682  13.6889672  48.0344343
  82.7440929  11.1470199  95.9592438  82.3136330  11.9594646  95.6930256
  83.6783218  11.3549471  95.9443760 110.4626846  27.6230168   3.9569917
 109.7647667  27.4487925   3.3254969 110.5523872  28.5760045   3.9579830
  75.1123714  12.8789222  64.5840263  74.2379189  13.2413721  64.4419050
  75.1010466  12.0390666  64.1249561  34.4266796  82.7233601  88.7041283
  34.3059540  81.7938423  88.8981533  33.5415292  83.0522442  88.5473442
   7.3583657  32.2653723  24.3937731   6.4451367  32.4903488  24.5716214
   7.3816627  32.0835876  23.4542823  22.2448778   8.4311426  82.3278904
  22.3355961   7.6732153  82.9054260  21.5775442   8.9738047  82.7479076
   9.2654449  97.0603180  70.2325964  10.2008533  97.2632313  70.2244043
   8.9456469  97.4377632  71.0520458  51.8614578   0.8977848  78.4803057
  51.4721298   0.5588958  77.6741982  52.1588039   1.7782481  78.2509565
  74.2011786  26.2773180  76.1224794  74.6656466  26.9957256  75.6930733
  74.1841888  26.5221834  77.0476723  57.0055676  18.5004973  51.1247444
  57.5414944  17.9217386  50.5824757  56.5176201  19.0331876  50.4967451
  42.0142031 100.2179337  55.6649399  42.4089241  99.8179054  54.8900843
  42.0569515  99.5355797  56.3348627  61.2439537   7.5341839  83.5155201
  60.4041481   7.9872555  83.4401321  61.1549139   6.7686611  82.9478264
  41.4969921  10.1734483  83.8084412  41.7880297   9.2687100  83.6945248
  41.8573332  10.6378806  83.0530071  63.6513662   4.0633050  88.0783558
  64.1916466   4.6297169  87.5274372  63.1888199   3.4980217  87.4596977
  28.6760569 109.7852802  75.3418112  28.8426805 110.3891277  74.6180439
  28.7698436 108.9151192  74.9541855  72.3314238  28.9561296  92.7096462
  72.9333448  29.3794823  92.0975208  72.4850798  29.4011545  93.5430527
  50.8065939  89.7240353  38.1491566  51.6968012  90.0417900  37.9982018
  50.9229708  88.8324261  38.4773755  82.3883057  16.7374754  19.9184418
  81.9311714  17.5781918  19.9398041  83.0861282  16.8277240  20.5673909
  90.7277870   7.7426696  56.6987085  91.2210178   8.3228099  57.2786999
  91.2349701   7.7277195  55.8870602  86.8193531  74.0167332   4.3698230
  85.8955479  73.7726974   4.3127015  87.1780014  73.7999535   3.5092372
 116.8732357  16.7070246  76.0740757 117.4631596  16.3610005  75.4043818
 116.0319710  16.8003857  75.6271029  41.3089943  10.2718115  60.1236725
  41.9534111   9.5655805  60.0768375  41.3742590  10.7121873  59.2762995
   2.5851905  91.3978386  73.5104752   3.4076729  91.6900444  73.9033747
   2.4782842  90.4983044  73.8197565  36.3260078  98.3106136  54.9453783
  36.4941430  98.9494324  55.6381083  37.0077348  98.4779739  54.2946291
  85.4156113  59.4732666  22.2049069  86.0254478  60.0650072  22.6455498
  85.9765530  58.8779068  21.7077923  31.2955189 107.4580288  73.1750727
  31.1047506 106.7928028  73.8363647  30.9200978 108.2636261  73.5304785
  40.2842569  84.1560364  66.7892218  39.6585512  84.7802353  67.1567774
  39.7775340  83.6589241  66.1470795 100.9565830  52.4862385  15.6258631
 101.2347221  52.1676016  14.7671771 101.7392826  52.4161339  16.1723959
  40.4057741   3.3829829  68.1130266  39.9107575   2.7874556  68.6756468
  41.2306929   3.5218102  68.5782862  32.9572010  97.4250221  55.8591604
  32.6509643  98.3002377  56.0967302  33.6929226  97.2604084  56.4489508
  90.0035095  51.4004278  22.9460716  89.3462467  50.8933973  22.4694610
  90.2946663  50.8166885  23.6465788 105.9566784   2.8105515  83.6958981
 105.0037575   2.7328241  83.6497784 106.1809635   3.4249768  82.9970360
  39.2213941  86.0319710  48.6541176  39.7129345  86.8521214  48.6097002
  38.4881949  86.1592674  48.0520773 118.0432476  96.9275665  81.3219452
 117.8373995  96.5856552  82.1919823 118.7305008  97.5758266  81.4758015
  48.9057302   1.6753590  49.3137884  48.9974117   0.8052345  49.7020006
  48.0895710   2.0161529  49.6798134  24.9462128  79.9279690  82.6463032
  25.4747343  79.1510201  82.8286457  25.2660990  80.5855942  83.2639027
  96.3665104   6.3371623  82.4056911  96.2563992   7.2839969  82.4929428
  95.4736805   5.9922671  82.3941517  19.5121038 110.3870010  70.8200264
  19.3782270 110.3570461  69.8727083  18.6719191 110.1151371  71.1893654
  33.6191034  78.6271620  41.0191870  33.9060545  79.2072201  41.7244720
  33.5466576  77.7663803  41.4315414  42.9039145  16.2125242  52.1933699
  43.3099508  15.4388964  52.5843525  43.1342840  16.9288087  52.7850628
  43.9544249  98.8425064  69.6294498  43.7228060  99.7298050  69.9038172
  44.6486092  98.5785961  70.2333450 108.1783390  88.4419823   0.9073750
 107.5290775  87.7408028   0.8522847 108.8011646  88.1402779   1.5686640
  86.0847378  29.4775271  90.0273895  85.8333969  29.4427466  90.9503460
  85.3194618  29.1453862  89.5580769  27.3623204  89.4117546  75.3286266
  28.1319141  89.2436028  74.7848606  27.7203441  89.7104073  76.1646032
  64.0461016  12.8732133  73.1087637  64.2841768  13.2201231  72.2489929
  64.8840523  12.7133882  73.5429621  65.8206654   8.4485269  70.9964991
  65.1048708   8.8257521  71.5079355  66.3087702   9.2056781  70.6729078
  92.0188463   0.4667709  80.7528114  91.5440262   0.0767372  81.4867401
  92.6270950  -0.2164318  80.4708672  53.7785339 110.5928612  68.3968353
  53.7507296 111.5452099  68.3047390  53.0756330 110.2767181  67.8291941
  60.6780052  81.9033146  81.5947151  60.1605320  81.3061810  82.1349812
  61.2179136  82.3857975  82.2207737  17.6484406 106.4143658  81.1346054
  17.4107623 106.0240841  81.9756889  18.3894145 106.9856930  81.3365269
  57.9858351 107.3149872  76.7488050  57.5304937 107.0682526  75.9438086
  57.6659155 106.6953468  77.4044895 114.6351910  51.5727568   2.8095502
 115.0176048  52.3545313   2.4110352 114.8999500  51.6183138   3.7282756
  45.3112936  84.6798897  57.0651817  44.8707914  85.2224636  57.7192497
  45.5199528  83.8685513  57.5282383  97.6036835  24.6905971  82.8231812
  97.5375366  25.1099825  81.9652939  97.4702358  23.7595391  82.6455498
 112.5463581 108.9454365  84.2824841 112.8257084 108.0344868  84.1909695
 112.1527290 109.1613197  83.4370995  46.3108063  97.6709461  51.6982174
  45.7119179  98.2930756  51.2852764  46.5115976  97.0380783  51.0087299
  78.8448143 102.9662037  79.0283680  78.2560873 102.4594688  78.4690428
  79.4969797 103.3251286  78.4266281  39.1817665   3.0972517  26.0125375
  39.7470689   2.6369578  25.3922200  39.6576524   3.9017382  26.2188530
  42.2260284  84.8291206  63.4506464  41.3405704  84.7901821  63.0891514
  42.7332163  85.3029442  62.7914906  92.7260399  18.8283563  35.5998659
  91.8333530  18.4958100  35.6933904  92.7068615  19.6877098  36.0210252
  78.4800148  21.7265534   9.4814855  78.1311083  22.3502350   8.8446826
  77.7158499  21.4451194   9.9845552 106.3341141  83.5448074  37.5060701
 106.0766602  83.1523323  38.3402801 107.2874069  83.6139107  37.5579691
  23.8170099 100.0479412  92.3716259  24.0745044 100.9210587  92.0756721
  23.4397531 100.1908493  93.2396603 103.5634995   4.3952930  47.8906441
 103.4882832   3.9694589  48.7446022 104.4889259   4.3102872  47.6613045
  75.9800005  39.5874739  78.9150953  76.1171150  40.2005100  78.1928587
  76.2216949  40.0820255  79.6981859  33.4567308 103.2121849  50.9767532
  34.0758824 102.8740692  50.3297901  33.8227153 104.0565491  51.2400866
  53.8435555   5.3888202  73.7783957  54.1186571   4.5238334  73.4745073
  52.9445124   5.4789335  73.4624386  41.2556505  96.2272453  64.5841360
  40.6403160  96.6730595  64.0020275  40.8419800  96.2678719  65.4463768
  58.0443764 103.9919662  47.8167629  57.7699327 104.5065880  48.5757637
  57.6583624 103.1279945  47.9609203  92.3508453  19.0606582  79.3579531
  92.9345417  19.7821224  79.1234112  92.9024601  18.2800448  79.3070316
  90.2440643   3.4844208  67.1573210  89.5708752   3.9203393  66.6348028
  90.6264305   2.8378487  66.5640450  11.1005473 103.6328602  38.9575696
  10.2298498 103.7654972  39.3324399  11.3792717 104.5068169  38.6841655
   8.4015632  86.3060856  53.5450697   9.3165833  86.0258579  53.5240126
   8.2413739  86.5323067  54.4612551  24.0186954 102.8461456  91.3281250
  24.5618796 102.6645184  92.0950603  23.8121033 103.7782955  91.3962555
  45.1116085   0.5407668  66.3079643  45.0777292  -0.3995238  66.1320734
  44.1939735   0.8064266  66.3679695  91.6012192  20.6482053  47.6560497
  90.6884480  20.9364438  47.6547813  91.8351460  20.5895448  46.7297316
  88.7020493  13.0616081  33.7612343  89.2384720  12.8802097  34.5329714
  88.0294895  12.3805881  33.7715721 108.8709736   8.9240038  73.6207342
 108.7383938   8.1744725  73.0403423 108.0277538   9.0399432  74.0586472
  24.5074272  85.3769684   2.8171328  23.9551282  86.0958195   2.5098056
  24.7532558  85.6276226   3.7076238  61.4542484  61.7812872  38.7088561
  62.2464514  61.3538170  39.0342951  61.3989782  62.5957298  39.2087126
 101.0192776  71.1536312  60.9647512 101.0035706  70.6620836  60.1435518
 101.2067413  72.0545053  60.7011032 115.9792614   3.6377773  57.8734255
 116.0822296   3.4414625  56.9422483 116.8130589   3.3795261  58.2662725
   1.9955036  20.9805083  46.2912035   1.5573283  20.2683234  45.8253479
   2.8225574  20.6000876  46.5869999  19.2938364  41.8089628  73.0378914
  18.8421369  41.2730789  73.6898327  19.9793422  41.2376595  72.6915884
   1.5778799   2.1632232  64.1975021   1.5162632   2.5278166  65.0803995
   1.7622122   2.9183316  63.6388731 110.4355049  12.0997036  78.0552816
 110.0734997  11.8709242  77.1992207 110.3120899  13.0465508  78.1222391
  63.5890532 106.5123272  51.7112350  63.5113001 107.1444225  52.4258184
  64.0021753 105.7474613  52.1119308   0.9387880  44.6947145   6.5328538
   0.4946711  43.9099979   6.8541133   1.8641323  44.5413160   6.7237419
  12.5618613  55.7910204  56.0574055  13.0630612  56.3891363  56.6117382
  13.0974972  54.9988985  56.0142183 104.2117596  59.9353456  43.6266041
 103.9020061  60.8039522  43.3700848 105.1649094  59.9912548  43.5586882
 116.3419056  57.1288776  60.7586861 115.5455971  56.5978861  60.7717228
 116.2599564  57.6641560  59.9693823   9.9221075  36.7791986  58.9697981
   9.0679127  36.9996452  59.3412638  10.0478959  35.8561254  59.1896725
 107.5744820  37.0672297  48.9234304 107.6193905  37.7045035  48.2106209
 108.4799957  36.7830944  49.0480757  21.2196326  77.6194096  38.8681936
  21.5472412  76.8462896  38.4086394  20.6768918  77.2667789  39.5734000
   2.1352567  48.9381409  48.9948082   1.9902226  48.2045507  49.5923376
   2.8804928  49.4080925  49.3689728 111.9985199  44.6989012  40.4781008
 112.1751690  43.7725163  40.6419134 111.0761738  44.8111725  40.7081079
  94.4685841   8.8467079  75.0637341  94.2113495   9.4397020  74.3577385
  95.0649452   9.3636304  75.6053686  94.6763515  33.6687589  70.4855680
  94.1271687  32.9033852  70.3157520  94.0675926  34.4073653  70.4753685
 103.3831215  30.6613851  34.2006946 103.1961155  31.4760709  34.6671176
 102.7165031  30.6195045  33.5150552 111.8053913  61.5254974  75.4565191
 112.2681141  60.8652639  75.9724808 110.9027290  61.2094402  75.4172754
 106.8243790  63.5943317  80.2747154 107.4289227  63.2158518  79.6363449
 106.8806362  64.5384502  80.1273727  53.0922556  14.3985426   5.7751054
  52.3188066  14.9584234   5.7077163  53.4200144  14.5485723   6.6618407
  29.1255426  45.5629110  67.3749161  28.5094452  45.2496958  66.7126846
  29.2661047  44.8085594  67.9471254  50.9301138  37.8852057  60.5233574
  49.9870968  37.9383755  60.6786966  51.3246012  38.2316732  61.3237190
  44.7770691 110.8951950   6.7574292  44.0239573 111.4483738   6.9649178
  44.8391390 110.2885246   7.4952167 102.0353413  44.1046762  40.1388741
 101.8112755  44.3565321  41.0347509 101.4303589  44.6048069  39.5910549
  21.3002372  57.7601528  37.1154690  21.4875078  58.6924839  37.2246432
  21.3486147  57.6151848  36.1705470   9.9885243  32.5024343  53.4378815
  10.1019132  31.7672968  54.0403366   9.0480000  32.5245762  53.2613707
   5.4536533  28.1083035   7.0596862   4.8529398  28.1527615   7.8035945
   4.8934585  28.2240939   6.2922192  15.0429630  45.6633091  57.9739618
  14.1206443  45.4318714  57.8644419  15.2838826  46.0842943  57.1487617
   0.4278456  36.6994500  85.7165051   0.6829821  37.6182556  85.7997799
  -0.0969804  36.6681576  84.9166298   1.9763041  38.7204981  78.1237984
   2.5229371  38.9434314  78.8772726   1.9227967  39.5316076  77.6183558
 110.7849693  72.8231335  92.2677517 111.2125874  72.3259687  92.9650307
 111.1412048  73.7076521  92.3511600 114.0290833  11.3473892  41.5687990
 114.1135311  10.4358113  41.2892866 114.8502636  11.7579806  41.2980556
   2.1834941  66.2956619  64.4636011   1.5960954  65.5405664  64.4955349
   1.8419623  66.8931007  65.1289272  95.3308964  69.0636063  66.4872074
  95.2729321  70.0186968  66.4613914  94.4496250  68.7640476  66.2639189
  12.8008056  42.9798174  28.4671354  12.5797689  42.5707626  29.3038249
  12.5201380  43.8898182  28.5638738  14.7616947  46.4084959  55.2326298
  14.6960747  47.3422146  55.0323963  14.3372619  45.9744310  54.4925737
 110.3829002  58.3326244  73.5492277 110.8326721  57.8781509  74.2615366
 110.5717468  57.8063202  72.7723312  11.3851011  30.2783227  55.0011063
  11.9516170  30.6870389  55.6555080  11.8504238  29.4818926  54.7453594
  81.9616985  73.7113762  44.0276623  81.5943432  72.8873587  44.3474674
  81.9129848  73.6413002  43.0742741  15.9203649  37.4521184  30.8340931
  16.3428080  38.1923819  31.2697315  15.1467407  37.8300261  30.4158545
  88.9410782  58.3131647  76.8793249  89.7790909  58.7624264  76.7691565
  88.2993031  58.9029455  76.4837170 107.3055077  56.1551285  32.0524335
 107.0864201  56.7888975  31.3693762 108.2137012  56.3533926  32.2807288
   8.8169646  74.4330788  43.4669352   9.7538698  74.6145535  43.3927202
   8.7419212  73.8732100  44.2396879  28.2344818  39.5907378  81.1882401
  28.4275436  39.4526887  80.2609348  28.4914327  38.7712812  81.6109657
 117.1370316   0.3533572  64.1903782 116.9129848   1.2831920  64.1523695
 116.5917206  -0.0521470  63.5162592  17.7032948  62.5234032  60.7652950
  17.9166746  61.6277981  60.5034065  17.0970678  62.4204493  61.4988613
  73.1655312   2.7078998  27.0832729  73.0674314   2.6330724  28.0324864
  73.3207035   3.6401278  26.9312716  23.1363249  59.8938465  49.5029879
  23.1943798  60.1244688  50.4301739  22.4724007  59.2051840  49.4685841
  29.7196770  41.9339848  37.9900575  30.1017499  41.0907793  38.2334876
  30.3200817  42.2886229  37.3343325   3.2226723  64.5900488  68.9493132
   3.9451969  64.0508223  69.2709064   2.4569771  64.0176201  68.9968920
 101.6709805  46.2617302  69.3879986 102.5474167  45.9087181  69.5412254
 101.5420818  46.8969011  70.0924015   3.3411291  67.4565268  83.6177540
   2.6883727  68.1398296  83.7701988   4.1263595  67.9317474  83.3460712
  87.6362896  93.7744427  79.5852709  88.2005215  93.2173252  79.0490818
  87.1150017  94.2676449  78.9518356 116.6347885  23.8283277  53.8658237
 116.1296463  24.1189885  53.1064939 117.0659924  23.0253100  53.5735083
 111.3200951  57.8771400  10.7741940 111.3332558  57.4034309   9.9425346
 110.3921604  58.0426264  10.9409130  20.8233476  75.1804352  54.6324444
  20.6814003  74.2514896  54.8144913  21.7753291  75.2763653  54.6048689
  41.9828033  70.9808779  39.1781235  42.2277689  70.0568628  39.2272568
  42.3770094  71.2901354  38.3625293   9.2142475  14.6289515  31.5524769
   9.4799954  15.5299473  31.3685870  10.0347662  14.1363931  31.5716147
 114.8745251  98.1097603  62.9272699 115.1314926  98.9696789  62.5944901
 115.1469707  97.4973011  62.2439671 100.5571365  69.8399305  69.9492645
 100.5843067  69.8938131  70.9045601  99.7804737  70.3423071  69.7030210
  22.3257852  43.4503412  31.7425394  21.8602467  43.8879824  31.0298157
  23.0865717  43.0501175  31.3215232  17.2614741  43.2912922  61.7995596
  17.0972872  42.4286699  61.4185667  17.3830950  43.8672781  61.0447884
   7.5022197  70.7872105  48.5311604   6.5786004  71.0286856  48.4615374
   7.5396019  69.8873281  48.2070446  23.2214642  40.0956059  76.6477680
  23.3365440  39.1505933  76.7474461  22.4225044  40.1861334  76.1284399
  98.9626026  63.8894510  38.7046528  99.1827106  64.6347809  38.1458449
  99.7365570  63.7651539  39.2539907   5.5347753  43.3188772  44.6984577
   6.4403510  43.1143475  44.9315453   5.6084192  43.9463711  43.9793873
 103.9100456  29.8214865  50.8333588 104.1764641  29.3776894  51.6385269
 103.6764431  29.1119576  50.2348375  12.3605049  69.0025139  62.7394819
  12.0967185  69.4941378  63.5172701  11.8524122  69.3905830  62.0271111
   4.2090386  36.7996955  26.1122251   4.8788780  36.4929175  25.5011344
   3.9580375  36.0181618  26.6046023  28.4638238  48.7250757  57.0264053
  27.9295158  47.9624987  57.2482586  27.8743482  49.4710207  57.1373892
  11.3973653  66.8966150  72.6179075  10.6322026  66.4335728  72.9590082
  11.3049090  67.7894402  72.9503918  36.9759440  42.7819872  53.3913708
  37.8667355  43.0313158  53.1452799  36.6270995  43.5520077  53.8403845
 108.8176632  34.3687987  46.5367174 108.2554245  33.7619734  46.0551691
 108.4998417  34.3253899  47.4385738 102.4365807  15.2892780  93.1923866
 103.3721256  15.3719985  93.3771706 102.2943592  15.8423400  92.4241924
 107.0912933  77.4303865  81.2461853 107.0160198  76.9350338  82.0617771
 106.2627792  77.9046917  81.1767006   6.0287768  25.5683374  12.3373485
   6.8431091  25.4364800  12.8228474   6.3120776  25.8002448  11.4529324
 116.3064098  11.8051195  53.5277796 115.7529259  12.4242187  53.0517483
 117.1790504  11.9275427  53.1539774   7.4905378  43.8087034  49.9803066
   6.7914075  44.4597673  49.9206066   8.0808586  44.0242720  49.2583036
 116.6805363  33.1545210  61.3279295 117.5722504  33.3862853  61.5874672
 116.4892006  33.7304354  60.5876970 110.0164986  27.7106023  57.7298641
 109.2141056  28.1522202  58.0079985 110.4485798  27.4618912  58.5469866
  92.0443821  66.7559576  47.7725506  92.2471809  67.0405054  48.6636972
  92.8688908  66.8540955  47.2963238   8.2460254  95.2779770  19.5691979
   8.4681123  96.0812759  19.0984321   7.7653521  94.7512531  18.9306474
 109.9637604  36.9732761  63.3742285 110.0042725  36.0466051  63.1378603
 109.5313931  36.9839644  64.2281485 111.6720104  45.6271267  62.9414129
 112.1773148  45.1064253  62.3171043 111.7265892  46.5221119  62.6063585
   0.0850128  70.5090046  52.0305490   0.9098853  70.0659037  52.2292376
  -0.0606970  71.0899639  52.7771997  15.7182729  47.1375513  64.2527485
  15.8281410  48.0455112  63.9703274  15.2403378  47.2001123  65.0797272
  21.2171602  22.8999019  61.9728041  20.9526324  21.9949079  62.1378660
  21.4121103  23.2544637  62.8402805 113.6713886  29.4650626  51.5728903
 113.9275169  30.0467181  52.2886419 113.6720085  30.0255084  50.7969189
 110.2250576  64.7230768  67.9193592 110.8962631  64.8157644  68.5954618
 110.6940269  64.8590040  67.0960569  12.0430505  52.5294733  50.2627277
  12.6796103  53.2205486  50.0798559  12.5638759  51.7271137  50.2972174
 104.2199707  30.9026790  71.3341570 103.5038376  31.0645747  71.9482994
 103.8893700  30.2145362  70.7567549   4.8949859  64.0252066  54.2091751
   5.2703732  64.3715096  55.0187397   5.3328657  63.1834364  54.0830231
   4.5711207  68.9881563  25.3722262   4.7764334  68.8899565  26.3019753
   4.6225625  69.9307585  25.2138400 118.0433559  79.3325472  25.7712460
 118.8861275  79.2537451  25.3242922 117.4185181  78.9127302  25.1800132
   2.9672045  49.0923214  87.1353722   3.6390674  48.8350773  87.7667618
   2.5246853  48.2740831  86.9097805  10.4886007   9.6596736  71.8872833
   9.9133539   9.5873833  71.1256456  11.3220096   9.9660116  71.5297651
 109.7643566  31.3135529  37.9139376 110.4669094  31.3626981  37.2656822
 109.2686176  30.5315757  37.6710582 111.3959694  43.7720728   6.3459378
 111.0440731  44.4819498   5.8088398 110.6668091  43.5144281   6.9100034
   2.2873169  49.5850658  70.5150032   2.6690760  49.2347193  71.3198280
   2.9607245  49.4443274  69.8494577  37.0280743  47.5134850  53.5649204
  36.5534449  48.2564068  53.9377832  37.8550625  47.8864527  53.2596111
  16.8755496  61.3901711  50.5465937  16.2666869  61.8066406  49.9366188
  16.9228184  61.9941807  51.2876558   3.8603437  27.7863717  53.4895086
   4.0310952  28.5864496  53.9864445   3.8778690  28.0648017  52.5738621
  20.0057077  55.2289438  58.9812469  20.2664137  56.0705948  58.6072302
  19.4931030  55.4596233  59.7560072  97.3381042  78.4172869  63.8849831
  96.7742729  79.1837454  63.9891911  96.7819405  77.6763201  64.1255617
  93.3336067  61.8352699  62.6695871  94.0660095  61.4626551  62.1786976
  93.0282497  62.5633383  62.1283817   4.8368260  77.3258972  37.2576189
   5.7574719  77.5697660  37.1618557   4.8529527  76.5386343  37.8018475
 113.7301636  35.0078940  18.1399393 114.5629025  35.3842235  17.8550649
 113.8916779  34.0649343  18.1711638  11.0029519  91.3981628  47.5788355
  10.6400621  91.2063885  46.7141008  11.8192315  91.8642426  47.3980427
   4.3291530  50.3765965  49.9048996   4.9720585  49.9296045  50.4554462
   4.5232037  51.3071489  50.0173950  15.1605308  32.1480036  57.7878571
  15.4995215  32.6154327  57.0244265  15.8497620  31.5224528  58.0111933
   4.8075125  52.8109884  68.0636883   5.3376514  52.2762156  68.6546183
   3.9047131  52.6436567  68.3342171 110.3521633  36.3410544  49.2102003
 109.9328995  35.4898882  49.0838337 110.5663967  36.6362619  48.3252239
  99.9283791  43.1562138  68.8083887  99.1697693  42.5803852  68.9041090
 100.6617451  42.6451254  69.1507387   5.0783783  58.0671215  48.2173491
   5.8472174  58.0602932  48.7874985   4.8461556  58.9924526  48.1394672
 115.8798790  11.9342875  85.2775383 116.8009853  11.7217672  85.4279804
 115.4807281  11.8983948  86.1468029  19.0742552  51.0076523  65.7256174
  18.6115074  51.8246174  65.5394363  19.7756052  51.2610483  66.3257265
 111.2909985  43.2281780  47.0094299 110.7249069  43.7835312  47.5454903
 111.0220623  43.4103489  46.1090279  11.6102183  13.1305325  43.4301043
  10.7182431  12.8999662  43.6898184  11.7725503  13.9735973  43.8533306
  17.7634394  38.3890033  51.3521671  16.8583524  38.1446671  51.5454245
  18.2906091  37.7201247  51.7891169 101.5458965   8.4814727  60.0397682
 102.2551918   8.2971877  59.4239950 100.8720207   7.8350681  59.8293161
   8.8608676  63.8043499  59.0025520   8.8042623  62.9467440  58.5811996
   8.0278486  63.8997984  59.4642878  27.3381805  49.0174580  38.7023187
  27.5702190  48.6090899  37.8682780  27.2178960  49.9431419  38.4904933
  20.7996440  38.4024906  77.9932547  19.9150884  38.1087279  78.2111883
  21.3264680  37.6033616  78.0023861  23.3032441  65.7263899  49.6591711
  23.1047726  65.5647278  48.7368345  23.9638400  66.4189339  49.6442032
 114.2470646 105.9569931  77.6729727 114.6453953 106.0832500  76.8117952
 113.6269569 106.6811275  77.7585268  35.5292773  71.7926359  60.9920025
  36.2298632  71.2145567  61.2940502  35.9513569  72.3668718  60.3529930
  46.8744278  66.0987043  31.7348003  47.4702311  65.9351158  31.0037136
  46.4991760  66.9596577  31.5499258  32.4928451  68.5502768  39.8238277
  31.8434000  67.8471041  39.8242140  31.9961381  69.3349409  39.5918417
 115.3118515  51.7200089  65.2167940 114.9951077  51.4060593  66.0637522
 114.5194721  51.9755173  64.7444820 115.1025295  16.4321280  91.9956875
 115.7475948  16.3557410  91.2926388 115.6233788  16.4410651  92.7987194
  19.2129624  38.6422253  86.6293526  18.5351598  38.6576819  87.3050594
  19.8768890  38.0425978  86.9697666  12.6013982  68.9674568  57.9839849
  12.8352547  68.0446815  58.0841303  12.0103693  69.1455173  58.7155676
  33.4683275  53.5695457  70.0322390  32.5841737  53.5376596  70.3976011
  33.8454628  54.3743420  70.3876257  19.0066648  95.9568405  57.2848892
  19.4710267  95.5883980  58.0364466  19.4801986  96.7638016  57.0828676
 114.9970436  38.6227584  76.7636967 115.3655624  39.5017457  76.6753626
 114.3808651  38.5470533  76.0351229  72.1528482  66.5174389   3.5534841
  71.4134312  66.7213917   4.1261020  71.7503786  66.2781286   2.7186331
   6.3997287  56.1373711  38.8913488   6.2193853  55.3769970  38.3385873
   7.2582883  55.9569502  39.2741728   1.4146212  68.4483194  62.7579308
   0.7621709  67.7488661  62.7217150   2.2269022  68.0056572  63.0038595
   2.2707064  72.6251078  88.2160568   2.0017716  73.4500313  88.6202908
   2.3264480  72.0078850  88.9455509  32.7573657  13.1211233  48.8448811
  32.0194459  12.5388980  49.0257692  33.4334636  12.8510618  49.4663239
  34.8343754  88.0544662  59.0310717  34.3228006  88.6111736  59.6181011
  35.1219702  88.6429501  58.3330727  88.2123089 110.1915169  68.1968832
  87.2962475 109.9384403  68.0827188  88.4897804 109.7348118  68.9910221
 102.8775692  59.3531990  73.8349628 102.8567028  59.8807144  74.6334171
 102.5064087  58.5101223  74.0951347 112.2562313  72.7277565  42.1685982
 112.3367596  73.6714506  42.0300961 112.4080563  72.6094770  43.1062508
   4.5739162  49.6195889  72.6390457   3.9976084  50.3707981  72.7797031
   5.4202867  49.8982477  72.9886723 108.6483574  60.8030891  30.8233213
 108.2983589  60.8786583  31.7110276 108.1436729  61.4357805  30.3122163
 104.6271420  47.6532459  68.3652210 104.5782852  46.7633820  68.0159569
 105.3910923  47.6426172  68.9418459   3.8303071  60.2126694  55.6020260
   3.5150307  60.2958250  54.7020721   3.0488333  60.3325415  56.1416197
  19.0782678  88.0615711  60.5464792  18.2898772  88.5301018  60.8206177
  18.9618623  87.1756077  60.8896112   5.2893156  72.2407103  43.5030365
   5.2655041  73.1955433  43.5659695   4.9249434  71.9367266  44.3343353
  39.3947840  73.9933395  61.0082150  40.3292418  73.8460875  60.8621359
  39.3557405  74.4942379  61.8229628  15.1663816  11.6108942  58.5183907
  15.7346547  10.9077084  58.2040215  14.5131516  11.7181206  57.8270006
  30.1854968  67.6911116  58.4172392  30.8926296  67.9564333  57.8291941
  30.6070447  67.5966644  59.2714119 117.7245827  60.7488585  66.0406017
 117.7191130  59.7916746  66.0398674 118.6052444  60.9835672  65.7480621
 110.2794933  76.8612003  72.2497463 109.9486828  76.9848251  73.1394196
 110.6938362  77.6956701  72.0301628  16.8997073  66.8962860  41.3854265
  16.7071760  67.1334934  40.4782915  17.8556192  66.8727207  41.4291096
 103.2536602  44.7388124  52.4753666 103.0189991  44.7175550  51.5476179
 102.7655983  45.4824924  52.8288841 110.4341125   8.2212251  86.0851669
 110.9244919   8.4402692  85.2928352 110.8455753   8.7436914  86.7736149
 115.7529545  44.6563816  42.8184462 115.3772640  44.2230082  43.5847902
 116.2035656  45.4226160  43.1735039 114.2022133  46.4966249  66.0993433
 114.6986485  47.2244167  66.4736557 114.4364071  46.4992094  65.1712370
 104.8707199  54.1267490  67.5310755 105.0695038  54.9587202  67.1014929
 104.9095917  54.3250132  68.4667110  27.8150868  38.4886241  49.7484112
  28.1485534  37.6333213  49.4773197  26.9480062  38.3041668  50.1094866
  24.0576673  54.5368338  56.4783335  23.6535573  54.3265247  57.3201752
  23.5117602  55.2359915  56.1186171  28.5703158  64.7504997  47.0524693
  28.8277268  64.2107630  46.3050365  29.2555213  64.6001911  47.7037191
   0.8236763  42.0051527  42.6009321   0.5997727  41.3718653  43.2828760
   1.6392514  41.6739416  42.2249460 117.6087856  37.0200062  88.5380459
 117.8532600  36.7107439  87.6657963 116.8823910  36.4534950  88.7981510
  10.0616574  60.7578468  61.8549824   9.9110240  60.9347773  60.9264135
   9.1985691  60.5257273  62.1976614  95.8250046  74.9897194  47.2234726
  95.5597401  75.3257418  48.0796051  95.1743317  74.3185711  47.0175028
  18.1374633  47.8771591  82.9374313  18.7235940  47.1599150  82.6961040
  18.3498728  48.0626059  83.8521576  87.8776360  39.7522545  60.7282972
  87.0369720  39.3897080  60.4488659  88.3031464  40.0245762  59.9152756
  31.0574961   0.1600279  56.8266964  30.6043077  -0.6601933  56.6315317
  30.5873966   0.5203611  57.5786304 106.9113541  71.0566998  55.2606487
 106.1890316  70.4431200  55.3948021 107.3300457  71.1250496  56.1187029
  16.6606283  95.5198193  64.9362755  16.2314820  94.6812248  65.1060677
  16.7380011  95.5606174  63.9830828 114.5572472  41.7102003  71.4831257
 113.8064671  41.2604141  71.8707514 114.2366028  42.5920200  71.2938738
  22.2487426  75.1468992  38.6811185  22.2022295  74.7580767  37.8076839
  21.9529200  74.4516945  39.2688346 100.2006912  64.7228575  46.7212868
 100.7203770  65.4932356  46.4917755  99.9150944  64.8857355  47.6202488
 112.1417427  89.7424889  22.7248716 112.5283718  90.5233860  23.1210494
 111.2623978  89.6940136  23.0998874   6.6857493  68.0065346  42.8566933
   7.5986511  67.8915358  43.1205463   6.6273141  67.5775480  42.0030022
   1.8106689  58.3291531  58.5422945   2.7441317  58.3099365  58.3313227
   1.4063349  57.7544451  57.8923321 116.6551971  49.0253544  15.2110851
 117.1820068  48.8702726  15.9950829 116.8327427  49.9370384  14.9796963
  29.3977189  59.9262285  69.9262619  28.7578845  59.3781281  69.4719172
  29.6164298  59.4335222  70.7172346  17.8432047  27.4848962  35.8170319
  18.1153941  27.9516125  36.6071725  18.0421197  28.0888915  35.1015925
  12.4259067  81.4289951  62.8171206  13.1277335  81.2389946  62.1945667
  12.8720570  81.5277290  63.6582136  11.3845968  44.5929813  82.6839924
  10.9772170  43.9278984  82.1290779  12.1263576  44.9121666  82.1700478
 100.1937866  80.5962181  69.0195942 100.1052094  79.6542788  68.8742018
 101.1241341  80.7735348  68.8808393  25.3870249  53.9600706  60.4619408
  24.5724893  53.4957552  60.6547403  26.0504484  53.5055876  60.9811115
  69.6652508  90.8871269  83.7079906  69.6690893  90.6661797  82.7766418
  69.9095011  90.0730515  84.1482830   7.9509521  71.2930441  42.8541946
   7.0222765  71.1911964  43.0625725   8.3994985  70.7130575  43.4695435
  15.5668652  58.9230442  38.3730865  16.0925889  59.0951300  39.1542602
  14.7377229  58.5855246  38.7119627  36.6075277  79.0184355  40.4185486
  35.9068084  78.5136700  40.0057173  36.3094926  79.1502666  41.3185644
   1.3289565  44.6717119  43.8951302   2.0612857  45.2878141  43.9136934
   1.7009842  43.8683510  43.5312128  13.2723248   0.8618123  49.5515585
  12.8614902   1.5606487  49.0425634  12.6928294   0.7409380  50.3037596
  19.1341984  42.1923828  56.2003136  18.4151924  41.5605164  56.1982632
  18.7249339  43.0201006  56.4525366  32.2022128  53.6557436  64.0931129
  31.7768669  52.9039288  64.5055294  32.5430989  54.1694832  64.8253012
 113.9445210  62.1148634  44.0222168 113.5161304  61.2981129  43.7660265
 113.3363628  62.8008795  43.7469721  16.9317997  56.2123632  57.8189993
  16.7392337  55.5358839  57.1697521  17.6366329  56.7274332  57.4263906
   2.2724429  39.5988798  63.7123775   1.6135116  39.3720245  64.3685627
   2.9573295  38.9393473  63.8227320 107.8751373  56.0336399  56.7369747
 107.6912308  55.1436138  57.0374107 107.8470707  56.5654993  57.5323200
  26.1053729  50.2436876  65.5744314  26.4852309  51.1025524  65.3892517
  25.6072831  50.0271082  64.7862482  53.9944458  46.0409641   6.0598260
  53.0477524  46.0948610   5.9290487  54.0959740  45.5519533   6.8763983
  19.8491859  82.7082443  14.5331919  19.0577567  83.2141972  14.3491197
  20.5483627  83.3611107  14.5670450  92.9838276   2.5492412   5.6334430
  92.8420448   2.3998854   6.5682280  93.9244270   2.7091718   5.5564022
   4.0431666  34.4974232  76.0447788   3.3557531  33.9188385  76.3748312
   3.7024790  35.3803444  76.1883640  53.2082033  39.9323916   3.9023677
  52.6893377  40.6668091   4.2304513  53.0137205  39.2139506   4.5042405
  25.4660392  25.6456709  58.1393957  24.7941899  26.0969806  57.6283503
  25.9161210  25.0885749  57.5043344  35.1001573  55.8885717  68.0268860
  34.8045826  56.7483950  67.7275991  35.8732319  56.0733366  68.5602283
  24.0824795  35.5327535  69.5533848  24.4254327  36.3246226  69.1391897
  24.0281987  34.8946381  68.8419819  19.2704594  55.5542564  76.5838861
  18.3519757  55.3653717  76.3916826  19.2417145  56.3075399  77.1737719
 107.8417492  54.6183729  51.1155510 107.5774288  54.4402933  52.0181370
 108.1669521  53.7786102  50.7910967 101.6312599  57.3231363  61.4860868
 100.8737087  56.9585800  61.9437265 101.4698315  57.1285486  60.5628824
  14.4706786  53.2254505  58.7770081  13.7907481  52.6279116  58.4657621
  14.0274084  53.7783480  59.4204760 114.7662640  58.3602047  58.7941456
 114.2217827  58.5490561  59.5584106 114.2919254  58.7501764  58.0598736
  25.4021859  46.9460297  55.7317352  26.3468099  47.0434332  55.6116199
  25.2098250  46.0643196  55.4126501  16.9041884  70.4055405  60.2561808
  17.5755250  69.7237253  60.2819443  16.5334129  70.3434467  59.3758965
  16.6055036  64.5603323  66.1878777  16.0240507  64.5368052  65.4278803
  16.6268265  65.4821920  66.4446831   5.4057407  53.5517216  65.4351950
   5.2357996  53.2123756  66.3139391   5.8242661  54.3998337  65.5827522
  11.2489653 100.3501701  54.9306488  11.3788211 100.7866573  55.7725811
  10.8832037  99.4953060  55.1579571  23.2192516  60.9665823  51.9737005
  23.2836580  61.9191360  52.0424557  24.0551066  60.6449986  52.3115778
 111.2225914  89.7542477  31.5998340 110.5302525  89.3495274  31.0772491
 111.8459225  90.0876999  30.9544730  50.7513094  36.0247493  44.9102926
  50.0152063  36.0769510  44.3006516  50.4677439  35.3970599  45.5749941
 112.5515556  65.7509995  72.5198555 112.7154350  66.5611744  73.0025434
 112.1560955  65.1640558  73.1643200 109.3587780  76.8500423   7.6960534
 108.7802410  77.5334978   8.0343056 108.7652206  76.1776114   7.3617536
 107.3619175  62.5457716  48.7967968 107.8487682  61.7264748  48.8859844
 107.9511547  63.1228685  48.3110142 106.0717297  82.2867298  39.9359584
 105.7206535  81.4221287  39.7227716 106.7311954  82.1181679  40.6089544
 112.4001884  87.8908539  48.4429502 113.1508064  88.3781147  48.1032610
 112.7203465  86.9938755  48.5386705  10.8148015  13.0484915  61.8259573
   9.8635972  13.1421483  61.7742777  11.1455166  13.9464355  61.8023825
  17.0889854  31.8943071  63.8416338  17.1424556  30.9988284  63.5077333
  16.7666554  31.7969775  64.7376585  30.1127076  55.4583979  73.1347990
  30.3423834  54.5888281  72.8071833  30.6148672  56.0612535  72.5865030
 102.4997711  70.3374338  63.1483889 102.6787376  71.0880375  63.7147808
 101.9835949  70.6987906  62.4278259  11.3410079  54.0563011  72.5490808
  11.0155714  53.2260942  72.2011185  11.2995553  54.6596622  71.8071413
   7.2256106  72.1056890  40.3522110   6.4171171  71.6752958  40.0741196
   7.3792660  71.7773199  41.2380981  30.9537888  88.2547283  38.3649373
  31.5393829  87.6652622  37.8897095  30.1998663  88.3622074  37.7850389
  25.3798246  34.0502357  51.6548347  24.7653461  33.3289456  51.7904425
  26.2226105  33.6219120  51.5048885   8.3515376  66.2693310  55.7542896
   7.5773966  65.7794237  56.0316563   8.8960522  65.6226778  55.3053236
  17.5829303  68.9055300  52.0580053  16.7611611  69.2212820  52.4338055
  17.5416934  69.1669559  51.1381197  18.4020126  75.3639603  65.2389193
  19.2818332  75.5146742  65.5845118  18.1736481  76.1831760  64.7996426
 112.3383904  29.6391368   6.2310237 112.9017162  30.0465369   5.5730557
 112.1675396  30.3359604   6.8646455  10.1866806  57.2466755  49.8295450
   9.4151598  57.8025579  49.7200918  10.4854095  57.0730972  48.9368725
   0.7614820  70.7774591  57.9185534   0.8982380  71.5805960  58.4210491
   0.2348689  70.2220345  58.4933662 111.2679768  85.6162071  59.5519590
 110.6474018  85.8386707  58.8579559 111.4018536  86.4370918  60.0257301
 117.7581787  45.4602051  64.4421816 117.9891205  44.5319080  64.4762421
 117.0280933  45.5028772  63.8246107 115.7407665  41.2033081  76.9183826
 115.8313084  41.9652510  76.3461256 116.4885712  41.2602854  77.5131798
  21.9096684  89.0778542  85.3509235  21.5378118  88.3817673  85.8926105
  22.5917387  89.4681358  85.8974457 114.1858196  56.0471821  49.9174023
 114.3169594  56.4473581  49.0578127 113.2372284  55.9418344  49.9903440
  99.4466496  66.6068029  87.0700264  99.7512054  67.1038914  86.3108349
 100.0806713  65.8954239  87.1605682  74.9284029  54.0178776  66.0533047
  74.8912525  53.3807802  65.3398895  75.3668118  53.5536385  66.7664051
  40.7982206  63.2555437  34.1624260  40.2721786  63.7928867  34.7546887
  40.1665592  62.8988695  33.5379052  98.0520153   3.4309641   5.1633817
  98.8484478   3.9006647   5.4110086  98.3320999   2.8335452   4.4699293
 115.1567364  35.7216573  88.3841515 114.8271847  36.3623762  89.0143108
 115.0005913  36.1238790  87.5297070   7.3428226  56.1379814  53.0813551
   8.0507803  55.7442570  52.5714445   6.5627950  55.6435156  52.8297758
  25.7529664  12.6705861  65.4148769  26.4095497  12.2950542  66.0014772
  24.9704742  12.7621734  65.9585238  91.5023899  80.1504612  42.8171778
  91.1766338  80.6438541  43.5699558  91.9909668  79.4224262  43.2012272
  11.8652463  42.7178431  39.3958378  11.7157114  43.2360363  38.6050487
  11.5379608  43.2675362  40.1078463 115.1010323  42.4715471  62.6502037
 114.9308395  42.1403503  63.5320044 114.2910480  42.3005629  62.1696568
   0.5366731  10.2055705  69.8968029  -0.3151803  10.6179905  70.0399351
   1.0776670  10.5149579  70.6233263  47.9504538  92.4159622  34.9484420
  48.7510824  91.9714642  35.2270985  48.1644344  92.7781487  34.0886354
  16.3848650  29.8293686  58.7593555  16.3173044  28.8927770  58.5737038
  16.2175858  29.8999286  59.6991777  11.6319573  62.8933382  75.5558634
  11.9383895  63.7996149  75.5873489  12.1304619  62.4966335  74.8414755
  23.2299805  65.7203007  63.1069851  24.0850949  65.7488012  62.6777983
  22.8968358  64.8428297  62.9191351 112.7869034  58.1418276  16.0767293
 112.8868866  57.1926880  16.1499834 113.5910225  58.4973001  16.4552355
   8.9796841 105.7913208  65.2301311   9.2692798 106.7036247  65.2210855
   8.8360596 105.5947876  66.1558580  70.4695511   0.3204250  41.9897985
  70.8630514   1.1906082  41.9252253  69.5333052   0.4706294  41.8589735
  40.6463385  30.2991772  57.4804592  41.0706329  30.4694033  56.6394949
  40.3969145  29.3759155  57.4403477  16.2413096  58.8134336  64.6348095
  15.6502259  58.7465191  63.8848925  16.9938457  59.3035841  64.3036413
 112.5958443  72.1594763  44.8422337 113.0592823  71.8238783  45.6095886
 112.2155666  72.9875755  45.1352882 101.7534924  69.9460268  32.7637601
 101.6887569  69.1288185  32.2695827 102.6921749  70.0643826  32.9089904
  31.0208178  58.3853006  49.9362993  30.6900144  59.1382074  50.4261255
  31.9181538  58.6253738  49.7052479 117.8164291  51.5265417  71.9426727
 117.2929668  52.2734642  72.2330666 118.0827713  51.7527199  71.0515308
  18.2947969  51.5588331  56.3658810  19.1497529  51.7955208  56.7254019
  18.0987847  50.7066917  56.7553234 117.5164604  29.8677731  67.7721453
 116.8444347  29.2720151  67.4409676 117.6479053  30.4980636  67.0638466
   4.8593616  59.5905733  31.3913941   5.3314590  60.3630400  31.7022896
   4.2372674  59.3922758  32.0913291  14.8850501  34.4658351  67.6749468
  15.5117416  35.1543045  67.8974342  14.2705119  34.8865509  67.0736361
  34.2554784  94.4887447   1.8645661  35.1398611  94.3517303   2.2041608
  33.8744998  93.6114025   1.8276580  38.3129573  45.9689760  65.3673363
  37.8808331  46.6699600  65.8553123  38.3972716  45.2544260  65.9986353
 118.0069160  88.5237122  43.1248379 118.2369041  87.9703903  42.3783970
 117.9397297  89.4052029  42.7578449  19.1103816  47.1148920  62.9796743
  19.8838305  46.9032717  62.4569654  19.1160989  48.0701733  63.0399942
   2.7878147  53.3668709  51.2369680   2.8236458  53.8708019  52.0499849
   2.1237835  52.6968908  51.3995171  35.9784150  43.8860130  70.3201008
  35.4960370  43.7707281  71.1387873  35.8591557  44.8098707  70.0998926
   5.0175899  39.1428709  20.7051659   4.7537187  39.4848800  19.8509812
   4.3128508  39.4065142  21.2968302  28.5495758  50.9101677  41.8600607
  28.3491516  49.9742222  41.8679571  27.6950264  51.3385344  41.9098568
   2.5283518  51.1230564  41.7487669   1.6190647  51.0772657  42.0442867
   2.9904908  50.4886246  42.2966290  58.4538317  99.4829178  92.0486069
  57.5392818  99.2015839  92.0747948  58.5223293 100.1396656  92.7415943
 104.8477077  71.5460539  74.8644781 104.2939186  70.7828999  74.6997023
 104.6626472  71.7846251  75.7728148  84.0396881 106.9130230  38.2284260
  83.8682365 106.2541485  38.9012766  84.8375893 106.6104889  37.7947640
 117.1014492  58.2850122  63.0240583 116.9013805  57.8592920  62.1904087
 116.4766678  59.0080452  63.0797768  26.6953516  45.9129047  49.3586397
  25.8740973  45.4475307  49.5173931  27.3037767  45.5517626  50.0033331
  40.1077175  30.1177406  24.9597669  40.1163149  29.1915584  24.7182178
  41.0082722  30.4102254  24.8194551  32.4246764  77.5971365  19.8733604
  32.0219469  77.9778719  19.0929234  32.3464727  78.2793045  20.5402684
  20.2806997  81.5048504  42.7806997  19.9310088  82.1590996  43.3856058
  19.5983279  81.4031887  42.1171761  40.0772667  37.3537922  46.9046783
  40.8181143  37.7070880  47.3971748  40.3907108  37.3066401  46.0014868
  11.4649415  43.0606508  20.2788997  10.9769416  42.3304939  20.6596446
  11.8290901  42.7078867  19.4669974 115.8638668  73.9553022  64.0124559
 115.4438496  74.7403097  63.6609173 116.7968178  74.1689014  64.0269089
  39.5275927  30.2469206  49.3027639  39.0690684  30.8173585  48.6858463
  39.2372561  30.5442023  50.1650667  16.3191175  82.1595097  69.1656542
  17.1867156  82.2079754  69.5670938  15.7270896  82.5085640  69.8319054
  20.0599432  44.2601967  74.2869806  19.2243516  44.5940638  74.6134043
  19.8204231  43.6827803  73.5620975  17.3917818  53.5522127  71.2611866
  17.6259959  54.1438675  71.9762516  16.6891909  53.0098009  71.6194963
  13.3674431 102.8370571  42.0799541  13.7447286 102.7862167  41.2017155
  13.5132480 103.7433720  42.3511696  33.3199406  76.8637896  43.1789732
  34.1217399  76.3925409  43.4054089  32.6507711  76.1821413  43.1173611
  28.3583522   9.7621894  39.5184159  28.2141638   9.6451461  38.5794044
  29.0790343   9.1674262  39.7260356   5.0168264  85.6932640  79.2849541
   5.7776552  86.1500931  78.9262390   4.5698485  85.3340244  78.5185432
   5.2078336  11.2534690  59.6516752   4.5284069  11.7895019  60.0606775
   5.8746737  11.8820155  59.3751144 104.0771389  67.7451229  72.0253801
 104.2529297  66.9574594  71.5106773 103.8921642  68.4210062  71.3733101
  16.6202271  47.4946690  60.9744072  17.3435640  46.9034481  60.7659054
  16.7955101  47.7807331  61.8708897   5.4104877  34.9837041  45.9286785
   5.5618590  35.9024811  45.7069492   5.1792258  34.5714092  45.0963545
 108.4116650  42.9024553  60.9908772 108.1822205  41.9847584  61.1372280
 108.6231518  42.9507256  60.0585842  10.3260386  61.7441368  71.4304447
  10.3256094  60.7885933  71.3741493   9.9492067  62.0331955  70.5993795
  85.0129223  22.7316213   0.5892065  85.3608608  23.5954285   0.3678370
  84.4485569  22.5041747  -0.1497102  10.8507860  61.1570740  37.1819854
  11.7921674  61.2704468  37.0509124  10.7437253  60.2213430  37.3527932
  99.6590424  74.0900230  32.6621675 100.5453205  74.2317152  32.9948258
  99.3556118  73.3039093  33.1162381  29.6219015  47.5672150  60.5081749
  30.2426648  47.3054934  59.8281860  29.7013760  46.8889809  61.1789274
  27.2417951  61.2061214  50.8842945  26.8437004  61.0600710  51.7424488
  27.3116374  60.3319073  50.5007553  83.7786961  51.6027594  81.6319370
  84.4529724  50.9246778  81.6742611  84.1744137  52.3611641  82.0614243
 109.6972656  60.9721470  64.0814447 109.9997044  60.4052591  64.7909498
 108.8922787  61.3668156  64.4167948  32.7601743  40.2439737  61.4264536
  33.5671139  39.9481153  61.0050869  32.7983356  39.8695230  62.3065424
  32.4960780  20.6595469  87.2363663  33.0509329  21.4003634  86.9923210
  31.7150140  20.7555556  86.6914368 107.8236866  83.6560535  34.7520995
 107.0955658  83.2985973  35.2603364 108.3411980  82.8900814  34.5036888
  97.6193905  73.8435745  21.9799948  97.2399139  74.7208166  22.0317817
  97.6037407  73.5222435  22.8815103  35.3153372  68.7907362  53.1175756
  35.8173299  69.4491243  52.6372004  35.7461023  68.7365007  53.9706469
  21.4829993  71.4779520  52.5559092  21.8698215  70.8676434  53.1836987
  20.6345820  71.7064714  52.9356384  14.5156848  82.3854446  56.0515594
  14.7462535  83.3108616  55.9699154  13.9655375  82.2074795  55.2887392
 117.7771950  54.5995045  82.9242420 117.0878315  54.4406176  82.2794342
 117.3383141  54.5124912  83.7704372   1.4507313  36.2408257  37.3942709
   0.6852584  35.7307529  37.1294880   1.5661976  36.0354114  38.3220124
   4.2207512  81.6547298  35.0175190   4.5784938  81.9796085  35.8437777
   3.2747030  81.6270351  35.1605487  13.9726818  56.8838787  88.9472294
  13.5036743  56.9079065  89.7813129  13.4137809  57.3737240  88.3439827
  13.1953609  58.8021755  46.1455393  13.1764770  59.6289206  45.6634951
  13.9078891  58.9086151  46.7757845 107.3476315  54.9455500  72.1982098
 106.9357204  54.2904186  71.6348553 106.6595936  55.1989508  72.8135443
  40.7812977  55.9834671  40.2599478  41.3801432  56.6737700  40.5447388
  41.1213350  55.7075071  39.4088030   4.0352216  53.7201118  75.9447384
   4.4327301  53.3995867  76.7543602   3.5442179  52.9714060  75.6062365
   7.4099535  69.8525238  30.0026178   7.3039073  70.6862402  29.5444608
   7.1650505  69.1908884  29.3557119  12.8058529 102.0009232  53.4591675
  12.1534872 101.5316105  53.9791679  12.8994703 101.4774418  52.6632786
  48.9987803  82.9958344  23.3067846  49.5923090  83.7336540  23.1668854
  48.8597202  82.6312447  22.4327350  43.2928085  70.6268787  31.9608688
  43.6773348  71.5028858  31.9921851  42.5551653  70.6672049  32.5695443
  51.6141129  78.9090252  36.4160419  52.1050024  78.5114479  37.1351981
  52.2568941  79.0092278  35.7138872  18.3536851  80.4600716  61.0289335
  19.2533684  80.6759739  60.7836008  18.4356511  80.0151920  61.8724966
  23.7755275  91.7408943  38.0184460  24.3899322  92.3410320  38.4410191
  23.6417460  91.0437202  38.6605430 112.1182632  54.1971493  89.7065163
 113.0119228  53.9040041  89.5285320 111.9804001  53.9968300  90.6323147
 112.2802734  75.2953959  41.4647627 112.3609543  75.5136967  40.5362844
 111.9145203  76.0840654  41.8653297  93.4305954  63.3309650  76.1214209
  92.8469658  64.0886211  76.1609983  93.6088943  63.2144642  75.1882172
  18.9160991  58.0154324  69.4221497  18.5713816  57.1403074  69.5997906
  18.4643757  58.2936096  68.6254072  21.8027616  29.8046494  82.9968262
  22.3431683  29.9668598  83.7700558  21.5861201  28.8736415  83.0470467
  14.9974144  87.9493046  67.1939039  15.4812992  87.1234512  67.2010279
  14.7217524  88.0732250  68.1021357 109.6124935  73.0953836  62.5383234
 109.8992920  72.6877546  63.3555269 110.4247475  73.3369398  62.0932102
  19.7188485  64.5098019  13.9944077  19.1124582  64.4101095  14.7282910
  19.2108476  64.9672604  13.3244073   2.9572248  55.7372141  91.7035007
   2.5685284  55.4228449  92.5197792   2.6028216  56.6195822  91.5936947
  24.7587490  97.8999329  50.2989960  25.5555558  97.4767113  49.9792862
  24.6654654  98.6795616  49.7515440  42.7486563  87.1837521  65.8720255
  43.0623817  87.3369694  64.9807692  41.7949820  87.2238827  65.8004618
  40.2670765  74.4528580  33.8232660  40.0253773  75.0729895  34.5112014
  41.1946106  74.6247721  33.6609125 104.5301342  69.2702389  91.7183876
 104.2365074  68.3726358  91.8743324 105.3717518  69.3288946  92.1705627
  78.0876541  -0.0978940  62.7719498  77.5094700   0.1867547  63.4797001
  78.0087233   0.5871065  62.1080399  32.1910310  53.3069849  50.3121996
  32.7849746  52.7079630  50.7645655  32.3475218  53.1426287  49.3822908
  25.1007938  98.3622456  30.4246974  25.8799243  98.0586910  30.8905673
  24.5346737  97.5918579  30.3773832  18.6993241  85.0614834  63.7089729
  18.6837208  85.4956341  62.8560352  17.9024827  84.5313072  63.7224770
  21.6197872  74.8503876  33.2996655  22.2625327  75.3287077  33.8234234
  21.2478995  74.2084742  33.9045405  13.3273208  89.3793201  69.1509247
  12.5883627  89.6153641  69.7116899  14.0712881  89.3145752  69.7497177
  25.9641528  60.5742598  20.2398658  26.1951423  61.2003756  19.5536768
  25.9407377  59.7277355  19.7936809  41.6712427  60.2346134  20.9365034
  41.0524750  59.9324656  20.2716231  41.9269705  61.1099291  20.6455421
 113.5839558  83.1601810  41.6279602 114.2357826  82.8467655  42.2549582
 113.9912987  83.0266953  40.7721090  27.8827763  56.4354944  40.8021545
  28.7424707  56.8416929  40.9124279  28.0527067  55.4953623  40.8613873
  76.1694193  71.0984945  67.3527241  75.8687449  71.3666725  68.2210064
  75.6045580  71.5764141  66.7454720  15.0529540  65.7834101  35.4404759
  14.4586527  65.4733133  34.7571921  15.8963132  65.3865433  35.2225852
  22.2341013 105.9744644  50.6097269  21.7740393 105.6133652  49.8519754
  22.7705622 106.6808605  50.2499437   2.2230569  62.0628691  79.4344950
   1.3269430  62.2450924  79.7173500   2.7527589  62.1872234  80.2220154
  98.3328152  58.6320782  51.7806673  99.1839027  59.0379238  51.9454956
  98.4786606  58.0705261  51.0193396 117.5595851  80.5079365  42.7999258
 117.7545989  80.2197647  41.9082069 118.2190760  80.0742340  43.3414125
  20.6329179 103.8307667  44.7807932  19.9662054 103.4785843  44.1911364
  20.9587598 103.0671883  45.2572393 115.9664726  65.3151608  75.0355339
 115.4707432  64.5059681  74.9102640 116.0234547  65.4164839  75.9856510
  35.8200788   0.0122747  56.0306120  34.9748302   0.4551559  55.9554911
  36.3188076   0.5506871  56.6451168  18.6563826 106.7373848  64.4448185
  19.5747495 106.7890167  64.7097158  18.3596790 105.8887196  64.7733974
  56.5554762 111.6186714  48.8577890  55.7091236 111.5065479  48.4249496
  57.1553278 111.0649681  48.3579731  15.5945790  50.6210899  66.2700224
  15.9508121  50.1696396  67.0352173  14.7222149  50.9044647  66.5437222
   6.9634122  71.3779211  60.6773138   7.7995199  71.7351961  60.9765005
   6.5237057  72.1170902  60.2571678  80.8818817  69.8798418  62.4371910
  81.3591385  69.0501261  62.4322128  80.0257301  69.6614838  62.8053665
  36.4491248  99.2470646  41.4103222  36.3556552 100.0174999  40.8500290
  37.3921013  99.0853405  41.4398098 107.5710964  61.6098356  40.3484964
 106.7396641  61.1359167  40.3672409 108.0920601  61.1534834  39.6877623
  23.4159374  99.4261360  47.2476053  23.7740469 100.1506805  47.7604628
  22.6090288  99.7759628  46.8697834  32.0600033  63.8701630  51.1093664
  31.5406942  63.7273169  50.3180742  32.1681571  62.9967546  51.4857864
  19.7276306  72.7109909  58.8263035  20.6467867  72.8964758  59.0186071
  19.7531700  72.1580267  58.0454016  33.6469460  65.5315781  58.7322617
  33.5631895  66.3727331  59.1813469  34.0741277  64.9606323  59.3708324
  44.6436930  71.5538549  46.0858727  44.1225386  72.2299290  46.5189409
  45.0238085  71.0477877  46.8039560   8.6474705  66.4948511  50.9336710
   9.1628462  67.1918249  51.3396883   8.8143462  65.7254028  51.4780331
  89.0021229  21.5359735   7.1849769  88.4687233  21.9594789   6.5123981
  89.2527008  22.2469783   7.7748179   1.8533334  69.6686506  72.9793549
   2.2741175  70.3334761  73.5244989   1.7972814  68.8970661  73.5430479
  36.7741060  41.7193985  73.0947495  36.2658954  42.5294971  73.0535316
  37.6865673  42.0075846  73.0703735  35.8783841  77.4094820  44.7317982
  36.7240262  77.6514673  45.1093721  35.9245825  76.4587879  44.6304226
  25.0365353  76.3900900  57.2005272  24.3173623  76.6469574  57.7776241
  25.1213384  75.4454041  57.3294258  27.4154282 102.8344917  35.1792669
  28.2972574 103.0245018  34.8591042  27.5274611 102.6915550  36.1190820
  72.7142191   0.6774357  84.3487644  72.4642849  -0.2464592  84.3623257
  71.8957233   1.1492594  84.5026493  55.7978344  97.5297832  62.2378349
  55.3530788  96.8793583  61.6943502  55.7264042  98.3454227  61.7419958
 116.2791252  98.3860016  42.8173637 115.5514336  97.9578686  42.3663568
 115.8680439  99.0862370  43.3242321   8.5678637  67.5737524  83.6295700
   8.8673484  68.1875706  82.9589272   9.3698955  67.1663952  83.9567375
 103.3022213  91.1728096  10.4085803 103.8897705  91.9211292  10.5136430
 103.8853741  90.4152393  10.3610933  25.4524541 100.6175423  48.9398527
  25.5072165 101.5703297  48.8661528  25.8575940 100.4189301  49.7840357
  59.4828701   0.4027708  49.5039415  59.2234659   1.2918699  49.7456932
  59.8225117   0.0235953  50.3145599  10.7274902  76.8700218  77.9809570
   9.8579139  76.8798590  78.3809233  11.0887539  76.0148573  78.2142210
  23.7772536  78.5892725  53.7796926  24.5571566  78.8935804  53.3156061
  23.0977964  79.2219591  53.5467291  35.5521226  79.0968657  65.3563261
  35.6184578  79.5502615  66.1967230  35.9489059  79.6993303  64.7271776
  36.0323572  79.4139051  50.0415134  35.5419803  78.6874628  49.6567440
  36.9204426  79.3111610  49.6994877   8.0989838  89.7085571  48.0736208
   7.6103973  88.8958073  48.2038164   8.5999608  89.8189259  48.8817501
  27.9826427  85.5646515  36.9575310  28.7685680  85.0805283  37.2108603
  27.8754902  86.2233353  37.6437449 108.6278725  87.9651356  31.1340117
 108.5670376  87.1096134  30.7090211 108.5959721  87.7701187  32.0705914
   4.9710268  92.6701927  65.1039267   5.3380859  92.1396828  64.3967772
   5.6688613  93.2856274  65.3286505 105.5309677  69.5043659  47.9823732
 105.3355408  68.7305355  47.4539614 105.6126976  69.1700697  48.8755703
  49.7121143  73.2719946  34.8091054  50.1671505  73.9190435  35.3480840
  49.4341183  73.7592316  34.0335083  12.8873658  64.2857456  86.8527317
  12.9855192  63.4895992  87.3749924  11.9675052  64.5289373  86.9573593
  19.4652724  83.1347179  60.0196028  20.0100422  83.1055069  60.8061171
  20.0894952  83.2193279  59.2988968 112.4898529 104.6812439  61.9017839
 113.3006954 105.0707626  61.5746069 112.6266003 103.7375832  61.8179560
  43.5459185  50.3399134  45.1222324  42.8038931  49.7653627  44.9337578
  44.3151951  49.7803497  45.0157738  25.1902533  79.7542095  43.4124422
  25.6344247  80.5208111  43.0501413  24.3096614  80.0648308  43.6229181
  27.9787421  69.3977451  30.2749372  28.4889460  70.0494146  30.7558227
  27.7698302  69.8231745  29.4433141   2.2002192  55.2738047  53.1011677
   1.3962302  55.1134443  53.5952473   1.9903952  56.0183477  52.5373697
  23.0313969  84.6416950  44.3337965  23.3477283  84.3220139  45.1787663
  23.7124538  84.3871784  43.7112141  23.1974792  93.5922909  78.7822008
  22.6574802  93.6462307  79.5706940  22.8991485  94.3205261  78.2373142
  17.4955904  60.7861710  36.1504388  17.9534709  60.5605555  36.9601750
  18.1948388  60.9552622  35.5190182 117.5724472  79.9620104  30.6392312
 118.3936203  80.4499149  30.7013202 117.4052410  79.8931503  29.6992683
  41.1696053  81.8636990  64.6216917  41.7187309  82.4929142  64.1539574
  40.3605795  81.8261242  64.1114998  18.2266188  79.0001345  70.0057983
  18.3615160  79.4247961  69.1586304  18.1167531  79.7243595  70.6219625
   4.8136181  67.2046709  64.5439243   3.9418727  66.8117142  64.5872259
   4.8707652  67.5637484  63.6584711  15.1996267  87.5940037  51.4504576
  15.8993471  87.2186279  50.9159279  15.3611815  88.5372162  51.4284706
  24.4139934  82.5544739  55.9483433  24.7853923  82.2948933  55.1051855
  25.1673007  82.6040459  56.5368176  12.9568923  81.5013123  53.6743450
  12.0265913  81.3506222  53.8418674  12.9735172  82.2289753  53.0526829
  42.5579119 100.9830379  66.7050982  42.1481943 100.5843925  65.9373426
  43.1891823 101.6052532  66.3437510   4.8392519  78.1850529  70.8195066
   5.4147828  77.4412107  70.9975529   4.1176125  77.8134727  70.3121662
 110.6974506  71.9682693  47.3055315 110.0639820  71.3615990  46.9222546
 110.2054405  72.7793980  47.4329615  29.9974251  64.2227793  68.0912733
  29.0686536  64.0561390  67.9304981  30.3725600  63.3562660  68.2482815
  35.4629374  85.3498745  62.5092030  34.9072528  84.8690414  61.8958092
  36.1422515  85.7417393  61.9603825  30.9208131  71.7120266  42.1411037
  31.6454458  71.6943979  41.5159416  31.0893321  72.4839878  42.6813936
  20.6671143  75.7046223  66.9292974  20.4683709  75.9550381  67.8315306
  21.5947413  75.9145546  66.8212605 113.3651257  85.2237606  23.7143779
 112.6616287  85.6833076  23.2559776 113.6469841  85.8351135  24.3948460
  29.4465852  60.1224804  27.3461294  28.9502525  60.9383488  27.2809792
  30.2565265  60.3698301  27.7922726 112.2305775  65.7607889  80.4748917
 112.9999161  65.7974052  81.0432339 112.0433426  66.6759586  80.2659988
 102.6962376 105.5074978  57.3579168 102.1938610 106.0568428  56.7561865
 102.2071552 104.6856117  57.3969173  28.7511754  72.9639149  51.6013145
  28.2214332  73.5677385  51.0807323  28.7726879  73.3557940  52.4743557
  15.3346038  59.6562290  60.1622534  15.7123446  60.0274372  59.3649197
  15.2086890  58.7294436  59.9586582 107.7724075  57.6461267  77.1669102
 107.4450016  56.7543554  77.0494986 108.3032799  57.8109074  76.3876486
  41.2302494  91.8599033  32.7314591  41.3306379  91.3687611  31.9160223
  40.9394455  91.2081623  33.3693504  14.9432170  69.5648193  62.7872086
  14.0032697  69.3948412  62.7252626  15.2817130  69.3593550  61.9157505
  18.1336260 110.3849220  53.1295061  17.4968398 109.7883701  52.7359819
  18.2130301 111.1005402  52.4987698  44.2248821  78.4509373  51.6726685
  43.4804678  78.9299965  52.0367813  43.8313866  77.8151035  51.0750866
  21.3379884   6.1294830  56.3133717  21.6279626   5.3192091  55.8943224
  21.6141963   6.0395789  57.2254372  33.6950779  94.2920399  86.5224171
  32.9257131  94.3275452  85.9540367  33.4945011  94.8986435  87.2351742
   3.2499203  25.3954315   8.2806891   2.9000011  24.6168613   7.8475404
   2.9343924  26.1269259   7.7500397 105.2429295  72.3291636  44.5174742
 105.4876709  72.4614859  45.4333496 104.3270206  72.0531797  44.5517731
  26.2798429  45.9001780  44.7938442  27.0060563  45.6279230  44.2328405
  25.7181764  46.4230490  44.2216873  39.5437407 100.3721905  70.6721973
  39.6462631 100.3417969  69.7209883  38.5989857 100.3109741  70.8133507
  32.0195818  86.5899563  61.5209246  31.7275572  87.3650360  62.0007229
  32.3454905  85.9975433  62.1984625 106.0767365  78.2166004  55.1306772
 105.4223251  77.7101994  55.6118488 106.1033249  77.8113699  54.2638922
   2.3371778 109.5193672  73.2170773   2.0258214 108.7204456  73.6425352
   2.2564884 109.3390083  72.2804928 112.0234013  56.4730310  39.9801278
 112.9716015  56.3457727  39.9492812 111.7451859  56.4232779  39.0656018
  95.5539989  55.9524298  65.6947708  96.5034962  55.9590626  65.5737209
  95.4288960  55.6381035  66.5901947 117.3447227  68.0267334  68.1585789
 117.0571709  67.4013281  67.4934340 116.7450237  67.8891754  68.8918447
  21.4088368  52.4326706  72.7417850  20.8870125  52.5017166  71.9423103
  20.8596158  52.8243971  73.4208584 117.1316242  82.0957184  35.0966835
 116.4468384  81.4650345  34.8740745 116.9376945  82.8608894  34.5552683
  92.1931934  15.4772282   2.1980563  91.3714600  15.7633209   1.7991522
  92.0132923  15.4699695   3.1381705 114.8107529  17.1706724  41.8610668
 114.5707321  16.4680839  42.4652100 113.9908409  17.4016714  41.4244747
  -0.3714193  56.3547611  40.0173855   0.2958571  56.4279985  40.6997490
   0.1156222  56.4312935  39.1969180  46.9635487  81.8309689  57.2965717
  47.0006514  82.1074104  56.3809109  46.5529728  80.9667206  57.2693920
  23.4879494  62.9388428  37.6846766  24.4134426  62.7002525  37.6320791
  23.3802748  63.2869434  38.5698104 114.0511990  77.7265215  65.3804398
 114.5053864  78.3672714  64.8332834 113.1595421  78.0661201  65.4569769
   9.9331403  71.2283707  46.9407415  10.8509767  71.4807606  47.0412779
   9.7266930  70.7507420  47.7441597  37.8030086 102.3376369  31.3780928
  38.1091070 102.7627754  32.1792150  37.5566936 101.4549255  31.6544676
  31.4609838  96.3782787  85.6952381  31.9657755  96.1649513  84.9104404
  31.5328360  97.3294353  85.7750320  43.8843489  87.1117973  43.0269861
  44.0449905  87.0157433  43.9657068  44.5115900  87.7769566  42.7434874
  41.4076567  79.4947720  62.4856758  42.2504711  79.1526175  62.7837086
  41.6357756  80.1725292  61.8494129  50.1791906  86.9663143  35.3466129
  49.2817259  87.2939110  35.2876830  50.3306150  86.5304565  34.5079660
  21.5007162 100.6982422  54.1342878  21.5059757 101.5432644  53.6846972
  22.2010040 100.7677841  54.7831249  99.4562912  50.4643774  40.3625679
  99.6714687  49.5322227  40.3944874 100.2988815  50.9081364  40.4593086
   8.8456595  59.3723392  29.0629363   8.6254191  59.6516323  29.9515986
   8.3083135  59.9270535  28.4974432  31.6356993  88.5477161  45.1447105
  31.9576478  89.1692352  45.7976198  31.2882257  87.8188419  45.6587410
  11.6289079  45.5226183  29.7848439  10.7728910  45.1246214  29.6265221
  11.5399289  45.9514618  30.6359649  23.8125539  99.0744209  57.8616619
  23.3923292  99.9335480  57.8224325  24.6853876  99.2177868  57.4958181
  54.7346115 110.4762840  83.2335472  54.8305035 110.4666233  82.2812176
  55.6234074 110.3483391  83.5650730  24.4641280  98.6627293  67.5379419
  24.9262977  98.9205456  66.7403412  25.1342440  98.6855602  68.2210636
   2.3274364  82.3568153  57.5671625   1.4176551  82.5072002  57.3104286
   2.2684571  81.7961311  58.3407164  12.9642522  60.8684111  51.0636711
  12.8305793  59.9895763  51.4186573  12.1627486  61.3415146  51.2872791
  31.2039781  80.2260303  63.2051802  31.4561868  81.0607338  62.8103495
  31.4504051  80.3125095  64.1260624  17.2439206  80.5762672  51.1815453
  17.0035017  79.9389124  50.5090761  18.1880891  80.4637146  51.2915897
  27.9485536  62.9513931  57.1058798  27.6397109  62.5393724  56.2989807
  28.5893440  62.3345947  57.4596882   3.3117786  35.4535747  50.0449085
   3.5611710  34.8546720  50.7487202   3.6442506  36.3058376  50.3265810
  20.5592370  58.0449009  48.8830137  21.3468409  57.5263166  48.7187576
  20.3285837  57.8490448  49.7911263   5.6250989  85.3475285  72.5108099
   5.0193399  84.6800613  72.8329515   6.3948828  84.8549843  72.2261000
   3.6594424  80.2278900  67.2657013   4.1811597  80.3627110  68.0568171
   2.9875278  80.9086037  67.3030043  34.8649597  79.6835756  61.5803146
  35.5301666  80.3709412  61.6157722  34.4378185  79.8071384  60.7326603
  37.5652242  55.4913568  41.4023542  37.9631472  56.3604403  41.4531851
  38.2990718  54.9016857  41.2291765  18.7630868  85.3384686  48.6570168
  18.3123505  85.9469223  49.2425585  18.1756222  84.5852184  48.5959864
  10.0202310  60.8306932  58.9750767   9.8140728  60.9914017  58.0542612
   9.6958089  59.9458027  59.1422510  22.9188299  69.9256468  47.5025177
  23.0285072  69.0264750  47.1931791  22.4155736  69.8406458  48.3122969
  28.4365582  57.4607992  74.1002512  28.9765573  56.6864014  73.9423227
  28.3435273  57.4978399  75.0521994  31.4874935  94.4755650  66.0081768
  30.6548667  94.6891975  65.5870771  31.2613273  94.3324471  66.9271946
   8.1852359  83.0282021  53.9166546   7.8335780  83.2115841  53.0454826
   9.0704614  82.7024364  53.7539148  46.5543556  84.6462631  61.6059160
  46.1846685  83.7634754  61.5898752  46.7899752  84.7906399  62.5223589
  36.4860129  68.7630177  65.2056074  37.2038150  68.1720543  64.9781036
  36.9110680  69.6055651  65.3658295  32.4571228  66.5180540  68.3181810
  31.6121864  66.5807390  67.8727770  32.8756237  67.3638916  68.1580448
  10.1824081  98.5970497  33.4517002  11.1302042  98.4745884  33.3977079
  10.0395131  99.4950485  33.1526804  24.4605875  68.5204363  32.4684072
  23.9124155  69.2702341  32.2370195  25.1612139  68.8922548  33.0042338
   6.3318729  83.6603546  48.3886862   5.8050984  83.7302113  49.1848421
   7.2359705  83.6299038  48.7015915  11.9588757  62.6545191  64.5519257
  11.9395912  62.7450037  63.5992098  11.7146957  63.5200644  64.8797131
  12.3356223  86.2688732  35.5436087  12.5295413  85.9213734  34.6730518
  12.5473416  87.2003555  35.4823017  86.6752052   3.1577724  90.7287884
  86.9052982   2.6835555  91.5277958  87.3435402   2.8974840  90.0949097
  16.5935206  36.1036181  69.9941969  17.3263180  35.9143090  69.4081879
  16.9885695  36.1485529  70.8649111  50.9236431  51.0227156  40.5845165
  50.0324154  51.2402391  40.8577013  51.2336636  50.4060459  41.2477160
  30.5310369  52.1658087  13.7924623  29.9258375  52.0444632  13.0608618
  30.5349445  51.3211203  14.2427027  13.0550015  91.7897797  77.9760122
  12.8873467  92.7318573  77.9514933  12.2430050  91.3936901  77.6597738
  39.8672700  30.6638241  63.6213350  39.4078183  30.1504302  62.9568338
  39.1895151  31.2202883  64.0050364  69.5491028  71.0155678  44.5120192
  70.4154062  71.2427282  44.1741610  68.9650297  71.1157274  43.7603188
  44.3019104  91.6649437  56.4302588  43.5066223  91.2885475  56.0533285
  44.1242361  92.6044273  56.4752197  46.3087702  71.7506981  39.3542981
  45.9198093  71.0742617  39.9087119  45.8223724  71.6951513  38.5317612
  57.4069452  77.5920773  52.2561169  56.5380192  77.8431129  51.9427824
  57.9674006  78.3336639  52.0277166  13.0720663  91.2997055  86.9020844
  13.5182929  91.5994263  86.1100769  13.7802935  91.0743904  87.5053120
  54.1204500  92.6252842  35.0078773  54.6091890  93.3837414  34.6883249
  54.2485809  91.9568634  34.3348026  20.3414416  90.1561260  51.6184378
  19.5665002  90.7031345  51.4900732  21.0793018  90.7469654  51.4677954
  64.8779345   7.3228526  30.3318262  64.2026758   7.9246157  30.6451035
  64.5422411   6.4528191  30.5476570  31.9916248  59.2587042  61.5232944
  32.9151034  59.3617249  61.2935019  31.9780755  58.5245943  62.1374035
  39.5540214  79.2903614  53.9291763  40.2705050  79.6571922  53.4111786
  38.7756062  79.4211483  53.3876991  23.8091898  54.3456602  53.4734917
  24.7001362  54.3908405  53.1264925  23.9245415  54.2735958  54.4209766
  45.7446814  74.9936008  44.2189598  46.1553431  75.6332207  44.8007441
  44.8374891  74.9436331  44.5201778  21.5877557 102.5549698  71.2186432
  21.8616652 102.6314831  70.3046656  22.2439504 103.0514240  71.7076969
  27.3239040  63.5338640  67.9399300  26.9201279  63.0536318  68.6628246
  27.5815296  62.8553009  67.3159027 107.7409840 105.6320763  46.6886187
 108.6184883 105.6616497  46.3073826 107.2447968 106.2878799  46.1987734
  42.8142166 105.4774857  65.8786154  42.2019768 106.0471821  66.3442802
  42.3852062 105.2978516  65.0420094  18.6596227  76.0189104  31.0078549
  17.9900229  76.6953468  30.9063649  18.1880033  75.2668619  31.3659477
  55.1218271  90.1126766  79.6461630  55.4430914  89.8290825  80.5020809
  55.6860495  89.6626091  79.0174103   6.1493802  75.3411245  63.7654209
   6.1296624  74.8369122  62.9520226   5.2340400  75.5688238  63.9283180
 116.9699383  83.5421181  59.6609879 117.5246525  82.8092957  59.3935871
 116.4528275  83.1978226  60.3891945  53.0600643  77.6720285  38.2965779
  53.2834387  76.7452621  38.2103324  53.8400173  78.0715609  38.6816454
  48.9961863  71.7213345  38.3409762  48.9484262  72.6714134  38.4472847
  48.0831814  71.4338398  38.3435822  57.1234608   9.2456740  36.3530326
  56.4522791   9.1334063  35.6798744  57.8470230   8.6891437  36.0649872
  17.4419749  78.2154226  76.7381334  18.1676459  77.7084351  77.1022797
  17.8483391  78.7723112  76.0740757  72.0139170   3.1112027  42.7234697
  72.0981073   3.7608957  43.4213543  71.0697746   2.9950830  42.6169586
 100.8111095   5.5530477  64.6720457 100.3048038   4.8359638  64.2903709
 100.1560974   6.2105531  64.9063110 113.5724354  77.0711422  77.4627256
 113.1276894  76.9243431  76.6279316 113.1307316  77.8325367  77.8387833
 108.8457775  90.4979134  58.4837866 108.7894535  91.1443996  57.7801371
 108.7330723  91.0070992  59.2864466  31.5282416  74.0687752  45.1005936
  31.8819666  73.2565022  45.4629755  30.6122017  73.8670015  44.9098301
  34.1113329  91.7075729   7.1913153  33.9131975  91.0472012   6.5273225
  35.0660276  91.7763138   7.1833366  41.0063076  82.5286484  69.6298218
  40.0953531  82.3423576  69.8571825  41.1338615  83.4432125  69.8818922
  44.1430187 103.0855560  66.0010624  44.5608330 102.9902458  65.1451588
  43.7135410 103.9402008  65.9640932  14.7231257  92.7598476  49.1659975
  14.8150432  93.7125301  49.1792679  15.5812597  92.4402905  48.8872147
  37.1053529  64.6537542  53.1724453  37.1990919  65.0220346  54.0509748
  37.5453663  65.2829075  52.6007938  45.3404379  80.3344727  89.8538780
  45.1452780  80.0766468  88.9529514  45.8961344  81.1089230  89.7663403
  29.4796371  91.5152740  52.9310656  29.0562272  91.0419846  53.6472654
  28.8636827  92.2131920  52.7080202  31.8640661  79.7161293  30.6181836
  31.3678837  79.1403341  30.0363803  31.8827391  79.2523384  31.4553118
  59.3186569 103.9909840  64.4091129  60.0194597 103.6143017  63.8769197
  59.5598650 103.7755299  65.3100157   4.6121839  66.8345833  61.6312027
   4.2740297  65.9938717  61.9395733   3.9334446  67.1642637  61.0422564
  63.3675671  93.5275269  62.5010586  63.2461023  94.4398022  62.2379398
  64.0446329  93.5612774  63.1768370   5.6144214  95.0581741  79.5682955
   4.8272258  95.6014729  79.5312262   6.3110083  95.6629181  79.8237991
  24.8634934 103.7476063  66.7646074  25.2768731 102.9486179  67.0916557
  25.3963304 104.4571590  67.1235704  40.2705479  91.4403820  61.5708256
  39.7397208  91.3731003  62.3645067  39.6434045  91.3430214  60.8542728
  43.2435942  74.1744804  51.6684628  42.7431488  74.0820599  50.8577538
  43.9146852  74.8253059  51.4628029  28.5270762  91.5996838  38.8301563
  27.7661228  92.1092033  39.1086793  29.0173173  91.4409447  39.6368146
  32.7359676   3.9509439  81.8023777  32.5821400   3.3100799  82.4965382
  31.9141245   4.4375876  81.7392635  25.4407310 100.3076744  95.0616550
  25.8494830 101.0224438  94.5735455  24.6423745 100.6912899  95.4245472
  51.9841385 108.5306454  66.8911552  52.0044804 108.1223488  66.0256481
  51.4300394 107.9526615  67.4156857  21.4288878  95.5186081  77.7579165
  20.5254650  95.4833984  78.0722666  21.3487029  95.6168747  76.8091583
  69.9221802  12.3445165  73.5101128  70.0706244  13.1041455  74.0732813
  70.7251167  11.8290830  73.5866165  37.6052880  82.8381729  68.6196518
  38.1314278  83.6372662  68.6490631  37.5390506  82.5612450  69.5335197
  48.1589365  92.9749203  66.3984823  48.7351036  93.2621765  65.6901455
  48.5745287  92.1826839  66.7389059  38.1283402  95.3154945  55.1438808
  37.4662089  95.8156872  55.6209803  37.6410842  94.8781300  54.4456530
  40.2746105  88.2557011  67.9579020  40.5401325  89.1681099  68.0729675
  40.5693722  87.8179455  68.7564707  42.7716780  76.9865847  49.9614525
  42.4538898  77.2625303  49.1017437  41.9823170  76.9211483  50.4989100
  38.7258029  68.3047342  63.9795256  38.9574909  68.1391239  63.0656719
  39.4853139  68.0027246  64.4776869  47.3463011  72.9671240  30.2504301
  47.8048944  73.1598234  31.0682249  46.6835499  73.6541605  30.1798511
  64.6201801  90.1169491  55.7836819  64.1624165  89.3548584  56.1385107
  63.9911652  90.5156136  55.1823235  93.3022213  16.9660616  38.1760502
  92.7230549  17.6049507  38.5915327  93.1577301  17.0865786  37.2375250
  40.9231997  90.9352303  52.1369553  40.2735233  90.9344959  52.8399134
  40.6218481  91.6139698  51.5330172  85.0044918  83.3832169  23.8515449
  84.4495201  82.9961014  23.1745100  85.7933807  82.8411007  23.8534784
  26.2002683  67.9534197  20.1935244  25.8520317  67.5816107  19.3831420
  26.5476012  67.2009277  20.6724238  22.8436661 108.3157349  40.4472160
  23.3961964 107.8751183  39.8016214  21.9489360 108.1456566  40.1526642
  19.1716337  49.7430229  49.1790819  18.8574791  49.1561174  48.4912777
  19.9391747  50.1694632  48.7979507  37.0651770  76.4071846  61.9520807
  36.4828229  76.6169214  62.6822186  37.1016836  75.4507351  61.9419479
  16.1044323 106.3593483  60.1822519  15.4476786 107.0418549  60.3204060
  16.7569339 106.5130043  60.8655262  36.8571353  80.8417892  63.8452721
  37.2845364  81.5618229  64.3090820  37.5655222  80.4111004  63.3668184
  67.6119089  11.4509094  77.7262878  66.7103148  11.3896441  78.0418921
  67.6911402  10.7415462  77.0885086  36.4299035  97.2987938  18.2626009
  35.9495497  96.4806175  18.1357884  36.6875410  97.2848797  19.1843712
  91.9469929  13.7366247  85.9829044  92.4163628  13.1142235  86.5383720
  92.5551414  13.9259005  85.2683735  11.0726571  71.7672443  28.7217784
  10.8589625  71.2474155  29.4965982  11.2008560  72.6547384  29.0566683
  71.9211864 106.1807251  45.3728533  71.9898367 105.8268547  46.2595844
  70.9947872 106.4002037  45.2736187  17.2819591  85.0254440  18.1163323
  18.2107937  84.8371601  18.2506835  16.8474913  84.1799641  18.2287574
  67.3147297 100.8478355  23.1784678  67.6853704 101.1549377  22.3510933
  66.3911343 100.6896305  22.9830909  33.2189250  71.8159676  65.6612730
  34.1200757  72.1045732  65.5168343  32.8535843  72.4638653  66.2637520
  22.5386214  55.7977772  85.3699303  21.9656992  56.4595747  84.9826050
  23.1818414  55.6084061  84.6868134  10.9323037  87.7010727  26.5961695
  10.1541412  87.8157043  26.0506845  11.6556334  88.0067635  26.0488343
  30.8002424  97.7963161  45.8183050  31.4734817  97.5476742  45.1849365
  31.2591004  97.8219318  46.6579628  26.1829042  91.9494152  58.9475965
  25.3834867  92.4638844  59.0592957  26.5091276  92.1984386  58.0828428
  21.0516405  95.8958721  51.5925264  21.5123487  95.9996986  50.7599449
  21.4269376  96.5695477  52.1595716  42.4728346 101.8802643  74.1151571
  42.6305485 101.0687351  73.6326885  43.3358955 102.2880077  74.1866302
  20.3461218  68.4635353  46.2191677  20.3355885  67.5172234  46.0755634
  20.6833458  68.8263464  45.4000950  99.8801708  70.7177162  11.8823242
  99.2814350  71.3019037  12.3475933  99.5815945  69.8374081  12.1106505
  49.1987944 109.5936298  79.4124937  49.3750381 108.6658287  79.5685387
  49.9357033 109.8909569  78.8788366  15.0139797  84.3387508  71.1264324
  15.4949331  84.4830894  71.9413424  14.1531444  84.0290546  71.4080143
  42.0351315  75.1400042  36.6127992  41.5665674  75.6835318  35.9793520
  41.4286232  75.0523138  37.3481178  35.6511998  82.9048729  22.5151587
  35.3218055  82.5018597  23.3184743  34.9891090  83.5568333  22.2853589
  38.4786367  82.3025036  71.1301756  38.3099341  81.3780499  71.3122416
  38.1769729  82.7600956  71.9149303  36.1616015  97.0613861  38.4300733
  36.4236069  97.8378296  38.9247608  35.6546569  96.5404129  39.0528274
  44.5472765 102.5488853  52.3165989  45.0031519 101.8749046  52.8207350
  43.6574841 102.2110367  52.2147846  58.8052893   7.5815642  76.4211941
  58.2394886   8.0280411  77.0510769  59.4586277   7.1356165  76.9601870
   2.7184916  90.6278324  42.2400093   3.2668525  91.2870407  42.6654196
   3.2384807  90.3289032  41.4940310  33.4227467 100.1257992  67.9844141
  33.3794260  99.3950653  68.6011648  33.4342933 100.9063625  68.5383272
  41.4385653  94.1519165  41.8810558  41.5494871  95.0758171  42.1054125
  40.8990860  94.1605377  41.0904121  32.2730231  99.6017170  82.4551868
  32.9213762  99.2315865  81.8561268  32.5125647  99.2518139  83.3133316
  47.9928493  93.7897110  60.2179956  47.1250677  93.7753963  59.8142862
  48.5599947  93.3533192  59.5822716  40.6737947 103.1337547  69.9414206
  40.0585365 103.7440872  69.5349932  40.2248192 102.2887611  69.9162483
  11.1505246  74.8555422  57.9811239  11.1307621  74.9612951  58.9322567
  11.8123853  75.4801369  57.6843882  55.7349396 103.9162827  42.3495483
  54.9647427 103.6267853  41.8604565  56.0099125 104.7204971  41.9092512
  37.7741671  70.8271742  62.1486950  37.5045824  69.9671507  62.4710655
  38.7288070  70.7764482  62.1005344  68.7387466  97.5491810  69.1152811
  68.9718485  96.8336296  69.7067881  67.8795433  97.3051643  68.7711048
  20.3406811  85.3569603  85.1523972  20.6425238  85.9523296  85.8384418
  19.3873143  85.3566074  85.2379894  19.7057211  75.6639290  80.1213360
  19.7852695  75.9371614  79.2074203  20.6092739  75.5856657  80.4274368
  28.5826802 111.0861492  72.9140615  28.5948038 110.2270222  72.4921656
  29.2484021 111.5915012  72.4475193   7.6797569  70.3432846   4.6517563
   7.6126403  70.5425072   3.7179261   7.2944731  69.4714022   4.7389492
  75.8724308  94.8207474  59.4515800  75.1114607  95.1521873  59.9283409
  76.0659313  93.9791965  59.8646069  28.2121563  70.2386141  60.1124620
  28.9731622  69.7782278  60.4662228  28.1626701  71.0469198  60.6227875
  88.9583969  12.7663612  92.0011234  88.0569458  13.0201387  91.8031120
  89.1675949  13.2360363  92.8085136  13.4723902  85.4697037  60.9327269
  13.5013783  84.5704460  60.6060219  14.1748595  85.9182930  60.4620457
   6.1856204  83.3521271  41.1656666   5.6815308  83.4814072  41.9690418
   5.5255914  83.3018112  40.4742432  50.7887316  78.5124731  60.8134222
  51.5963268  78.0180788  60.6734514  50.2878904  77.9825115  61.4335251
  29.3860340  75.8793592  65.4348278  29.4402242  75.1086140  64.8698139
  30.2386141  76.3045502  65.3423452  48.4427977  91.3281059  31.5608072
  47.8291512  91.1738968  30.8425546  48.5353565  92.2801495  31.5965247
  49.6196747 108.2763863  47.5802565  49.4934368 108.7375450  48.4094906
  50.3774834 108.7039757  47.1813536  38.8496304  92.6189899  13.2237637
  39.0228915  91.8292809  13.7361717  38.5911298  92.2931957  12.3616362
  70.2628994  13.4632540  63.2234764  69.4633913  13.4961605  63.7487745
  69.9919415  13.7632871  62.3558378  56.6971540  19.5184052  31.3676286
  56.3699865  20.3752041  31.0936046  56.6954899  18.9940715  30.5668139
   0.9702002  70.4215097  43.8353443   1.3587176  69.6411943  44.2308044
   0.0278079  70.3092146  43.9599037   7.8479606  85.4172134  44.5069456
   8.5373020  86.0002613  44.8249054   7.0894289  85.9879303  44.3838882
  27.8473878 106.4455032  96.0134125  28.7545061 106.3809776  95.7147408
  27.7574730 107.3503399  96.3124371  27.8629899  78.6712980  50.7453346
  27.2282267  79.1349125  50.1991034  27.9767680  77.8243923  50.3140163
  10.5569232  74.6580982  95.8213329  10.9412777  74.4925880  94.9604511
   9.7663921  75.1654196  95.6371593  91.5535450  31.8568230   0.8539701
  90.6332684  31.9818306   0.6222560  91.8566895  32.7280664   1.1094549
  42.4627161 104.3260670  77.9598093  41.8028927 104.2612839  78.6502218
  41.9582891 104.4703674  77.1592093   1.3177842  91.8234825  90.7232189
   0.5868582  91.2450218  90.9408474   2.0348100  91.5241051  91.2822151
  29.5621562  97.8032494  69.1676521  29.2337751  97.1115875  69.7421026
  29.7523928  97.3584270  68.3417130  60.9389305  60.9399843  36.1856151
  60.3454924  60.2226591  36.4080977  61.2739229  61.2440777  37.0291424
  20.7195592  93.2832432  24.9277425  21.5890861  92.9178333  25.0909376
  20.8161998  93.7769127  24.1133833  49.3119621 104.6364307  73.4647322
  48.9315939 105.5063152  73.3428860  48.7120056 104.1947269  74.0657187
   5.2720422  93.6696434  58.0834770   4.3509740  93.6646080  58.3439398
   5.3676391  92.8971481  57.5263977  59.2227459   2.8359699  34.2891502
  59.4658899   2.9334840  33.3684945  59.2594671   3.7249908  34.6420312
  27.8096366 108.1172466  70.0070238  27.7633548 108.9496231  69.5366764
  28.1218553 107.4904346  69.3544483  77.1630096   0.5041683  74.4936371
  76.6320801   1.2067810  74.1185617  77.6538324   0.1523149  73.7509918
   8.2021004  42.2704935   8.0008489   7.2541851  42.4030018   8.0122644
   8.4287846  42.0834637   8.9118195  80.6124878   6.2268782  58.0542898
  81.1305618   5.5286407  57.6539183  81.2170410   6.6570133  58.6590481
  14.7194171  96.1378384  43.5127974  15.2010405  96.0182762  42.6942778
  14.1034973  96.8465900  43.3269501 113.2795143   4.4344771  15.0771976
 113.0938721   5.3488863  14.8636019 112.4172115   4.0245467  15.1450920
  57.5771618   6.5147072  69.5449924  56.7043352   6.2776309  69.2316246
  57.9582596   7.0240682  68.8297653  31.1361814  74.7109556  48.8820601
  32.0240760  74.9320126  48.6009789  30.9971476  73.8208866  48.5585070
  35.6325746  70.2896357  33.0861568  35.1264524  69.7196627  32.5071859
  36.1340880  69.6878195  33.6361861  85.5164909  42.6104164  64.9744129
  84.8646450  42.1145248  64.4790220  85.6589222  43.4027815  64.4566250
  19.7242951 110.3612328  60.6774139  20.5289721 110.8490086  60.8529186
  19.9785471 109.4421101  60.7598829  43.5778809  94.9212265  46.6449785
  44.2222548  95.1949120  45.9922075  43.4910536  93.9769363  46.5145683
  37.4444985  80.0203609  52.3462725  36.9396329  79.6343708  51.6304827
  36.7842102  80.3133488  52.9742908  63.2032681 106.9975948  29.8544025
  63.5552645 107.1333504  28.9746857  63.3504248 106.0683155  30.0304937
  24.2556095  94.0370655  35.8991504  23.8028407  94.8776245  35.9676385
  23.6836410  93.4191322  36.3543892  40.7836533  88.5109234  85.4601192
  39.8676229  88.2332230  85.4590511  40.9346104  88.8351250  86.3479996
  59.4690704  97.3534966  39.9145484  59.0534067  97.1121788  39.0867686
  58.9970493  98.1355667  40.2005386  33.4497976  64.6364069  36.5880990
  34.0788937  64.8104048  37.2882366  32.6284742  65.0119638  36.9052982
  30.5193639  68.3782959  96.0499954  29.9102378  67.9590225  96.6577816
  29.9572992  68.7923145  95.3950882  36.9015479  82.4089909  55.5637836
  37.6184320  82.7407360  55.0231743  37.3205400  81.7946339  56.1664820
  30.6309056  87.2020340  48.3309221  30.8677435  86.5600777  49.0002775
  31.1348939  87.9831314  48.5592031  85.8940506  26.2586093  17.5330985
  85.7711601  26.9942594  18.1330538  85.1872540  25.6510520  17.7511621
  56.6769075  12.0181465  79.5738411  55.7309437  12.1639335  79.5627022
  56.8675756  11.6179347  78.7254858  78.3648205  88.5413837  32.8551912
  78.8133669  88.6341476  32.0146966  79.0472460  88.2503510  33.4600282
  27.2789741  76.9629812  55.4847860  27.7695560  77.0590591  56.3010788
  26.3817883  76.7812157  55.7645226   9.3623972  71.5176535  66.8247843
   9.7890764  72.3735523  66.7846584  10.0135434  70.9441328  67.2289085
  92.5504112   0.4437065  51.2945509  91.6938019   0.7006761  50.9533453
  93.0911636   0.3186675  50.5146933  38.9075828  85.0670338  69.5141697
  39.8390841  85.2535248  69.6314526  38.5061502  85.3199863  70.3454924
  48.9231968  99.9091816  73.8032246  49.5024347 100.0985909  74.5413542
  49.0963507  98.9917374  73.5921764  17.3617613 102.0783424  60.5387402
  16.6221476 101.4843464  60.4107952  18.0182052 101.5493107  60.9919882
  44.2074871  84.1144180  65.0554419  44.5138216  83.3476639  64.5712185
  43.4305477  84.4047642  64.5776367  48.3704567  10.0738072  51.7042923
  48.5555077  10.8565235  52.2232771  47.5846529   9.7014087  52.1043730
  32.2370005  80.2587128  65.8361816  32.9717469  80.4208565  65.2444983
  32.6455045  79.9645281  66.6503143   5.3475374  59.4278097  94.8466969
   5.3520006  59.5311165  93.8951015   5.9147829  58.6739492  95.0084400
  45.9638977  96.9748020  71.7019272  45.7019997  96.9210815  70.7828236
  46.7674160  96.4571095  71.7526674  45.3881073  98.2629776  55.9619045
  45.3455782  97.6414776  56.6886520  46.2008810  98.0435848  55.5063820
  12.2363544  83.5729980  71.7433834  11.5792346  84.1707039  71.3867664
  12.0978582  83.6019993  72.6900673  19.3489170 108.8459778  78.4713078
  20.0778866 108.3737183  78.8735533  19.0996766 108.3071709  77.7204466
  71.0222578 100.1306152  64.4814920  71.6468287  99.7698593  65.1107740
  71.5316772 100.7620621  63.9735556  86.4742947  95.4594231  64.5977402
  85.7593918  95.7984066  64.0590000  86.1391449  94.6344566  64.9489450
  26.5345621  72.3963928  25.0300431  25.6637049  72.4516964  25.4234672
  26.5514660  71.5387678  24.6052837  96.1654472   2.0376463  35.2507353
  96.3808537   2.6787174  34.5733428  95.7632637   2.5535530  35.9495354
 103.7513161   2.4283369  50.0049973 103.8005447   1.5348569  49.6651411
 104.6485329   2.6347098  50.2669859  52.2130489  97.4751377  58.4096098
  52.1581697  96.7202187  58.9955378  51.8976688  97.1479130  57.5671816
  40.7705832  74.1450882  25.7956195  41.6646767  73.9276123  25.5319166
  40.8769226  74.8009109  26.4846921  16.7035949   9.8980486  37.6557708
  17.3809361  10.4317939  38.0711722  17.1843779   9.3176383  37.0656848
  69.7330236   0.6563748  84.2306328  69.9169922   0.9925212  83.3534813
  68.7813663   0.7152554  84.3149757  38.4515643  65.7204199  12.4626696
  38.9278698  66.0271072  11.6911054  39.0691566  65.1431179  12.9115927
  17.7836263  73.8650084  39.4150591  17.7963996  72.9087973  39.3734646
  17.3186266  74.1330338  38.6224866  40.9278774  99.8114395  49.3605375
  40.9620190  98.9623356  48.9199734  40.4925823 100.3891945  48.7336779
 114.9761105  81.7855358  69.4911242 114.0606403  82.0634747  69.5213795
 115.3124714  81.9731808  70.3674126  35.3099680  65.5631542  49.1454220
  36.0431361  65.8494234  48.6006784  34.9010420  64.8571253  48.6448812
  26.7913270  57.2902489  65.9686518  25.8390880  57.2698450  65.8735037
  26.9834256  58.1799555  66.2648678  24.1844726 101.7333221  35.5619764
  24.3272996 100.9280014  36.0592651  23.4441614 102.1557045  35.9975934
  16.3318825  59.9414968  87.5268745  16.8734515  60.6664515  87.8389263
  16.4827740  59.9193001  86.5818977 100.3594780   2.7032492  82.7496529
 101.1525345   2.7652916  82.2172546 100.2731323   1.7697373  82.9428673
  13.5900211  74.6604347  70.1053953  13.5327125  75.6022167  69.9441576
  13.4005499  74.5652771  71.0388184  61.3023376  94.2433167  22.5847697
  62.1586418  93.8328934  22.4642658  61.1051941  94.6397686  21.7361259
  23.3027768   0.3257702  45.7629299  23.2222199   0.2076290  46.7093897
  23.0783390  -0.5288841  45.3949165  28.8845754  76.8843651  57.7419090
  28.6549950  77.2931385  58.5764313  29.2454076  76.0315275  57.9841995
  30.7287455  57.5532484  40.9258890  30.4310107  57.8375340  40.0617313
  31.6402149  57.8419018  40.9721088  91.4380074   3.2135499  75.6665611
  91.4199734   2.6760662  76.4584064  90.5590725   3.5886446  75.6116199
  68.1255388  84.4007492  56.7153740  68.6765003  84.6084881  55.9607124
  68.7227583  84.4287205  57.4628878  32.3585701 109.3774891  58.2289791
  32.6935291 109.7649574  59.0376234  33.1381440 109.2286301  57.6938772
  18.1814051 103.0778599  70.8241129  18.8964474 102.6109314  71.2564564
  18.3137190 102.9079151  69.8914576  27.8598738  97.8519058  55.6656027
  28.2976484  98.2309628  54.9034309  28.4849739  97.9649162  56.3816404
  75.5213690   7.9772663  68.1613016  76.0204887   8.4512413  67.4961233
  74.6477556   7.8813118  67.7820635   3.7315863  79.1005039  56.4362144
   4.1045281  78.6157227  55.6999207   3.1259134  79.7216797  56.0318232
  28.4810042  65.7067442  59.3788624  29.1272402  66.3335466  59.0536976
  28.8335609  64.8509312  59.1348982 116.8558884  96.2418652  73.4379625
 117.3301697  96.9728947  73.8340473 116.3278008  96.6444111  72.7485275
  89.5778370  20.6607103  68.1826878  90.3317738  20.1227593  68.4243679
  89.2543030  20.2690005  67.3714399 105.9945107  84.0328312  66.8249893
 106.5010262  83.3160591  67.2069693 105.2652168  83.6005020  66.3806248
  50.9924316  91.6172409  66.5399694  51.2728071  92.2636127  67.1879101
  51.8029881  91.3372231  66.1147404  65.6360626 103.9483643  85.8866882
  65.6062412 103.7393284  84.9530697  65.3547001 103.1433582  86.3214779
  23.9847112 104.5920086  85.6965542  23.3310461 104.3906021  85.0269413
  23.5714173 104.3331909  86.5202332  87.0999527  12.5417709  74.6834040
  86.9383240  13.1146336  75.4330254  88.0335236  12.3368704  74.7354555
  54.6682215  75.1859140  52.5138950  54.5721197  74.4947195  51.8587255
  55.1262808  75.8895874  52.0542669  79.5303535  14.2611444  68.1014299
  78.8840914  14.8871565  68.4280586  80.3172493  14.4383621  68.6168146
  54.9349308 105.2591228  71.0806322  54.1148663 105.2118301  70.5892134
  55.4840994 105.8567619  70.5732107  45.5984020  79.4662619  57.3400354
  45.7150984  78.5316753  57.1692562  44.8110914  79.5141697  57.8823280
  44.9693871  89.3978310  49.6423054  45.1336908  88.5013008  49.3499470
  45.8412409  89.7755527  49.7581720  41.2426424  99.3480492  73.0545950
  42.0317507  99.5823765  72.5660992  40.5208063  99.6411419  72.4984646
 106.6727352  14.4850564  52.1066475 106.1239719  13.7024832  52.0549583
 106.3147163  14.9804056  52.8433228  30.2118254  86.6062164  65.0658846
  29.6095920  86.5542316  65.8080721  29.9263477  87.3796463  64.5795202
  60.1494646  11.4816082  24.7973132  60.7969189  11.9087112  24.2364073
  59.3210936  11.9052339  24.5724297  16.8917263 109.7103786  59.1820240
  17.2534859 109.4204712  60.0194740  16.2103426 110.3390312  59.4202328
   8.3647156  21.6273808  18.6899686   7.9515421  21.2281680  17.9243648
   9.2581236  21.2838078  18.6864233  64.7898197 111.5517998  48.9642000
  64.8691463 111.2729931  48.0519438  65.3750944 110.9667301  49.4452143
  69.8754692 110.3186321   7.7472228  69.1538334 110.9472179   7.7283782
  70.4922104 110.6422710   7.0906216  63.2163763  77.6726294  74.5855904
  63.2650423  78.1865168  73.7795019  62.3996115  77.9523087  74.9989986
  55.3879642 102.5430775  52.7822161  55.6284332 101.6216087  52.8786707
  55.4641533 102.9042149  53.6653996  32.7605081  98.4933090  52.0958233
  31.9406438  98.0005455  52.0606756  33.4414792  97.8356552  51.9544029
  10.4443836  99.8214340  59.6069384   9.9807298  99.4183922  58.8728952
  11.2575543 100.1512241  59.2245483  34.1175056  96.0320950  50.3164244
  35.0397444  95.8006191  50.4265404  33.7179446  95.2497673  49.9362373
  86.0578156  13.0359221  37.2589660  85.4626656  13.4215701  37.9018569
  85.5150890  12.8980207  36.4826560  54.8156834 108.8534641  54.9708939
  54.7541380 108.8858223  54.0162230  53.9655924 108.5170555  55.2544451
  58.1985903  83.0250835  59.1972303  58.9047527  82.4208641  59.4263124
  58.5299110  83.5036278  58.4373283  59.0783596  82.4398232  86.9122696
  58.8477850  81.6419601  87.3881721  58.2391548  82.8664398  86.7391682
 112.8766632   7.0922774  81.9192123 113.7217236   6.8244267  82.2802830
 112.6688385   6.4190698  81.2712669  94.2871189  67.0791769   7.3557955
  93.6870098  67.0299864   8.0998880  93.7613964  66.8021870   6.6053790
  64.8717070 104.5479012  75.2006340  65.3416777 103.9116096  75.7396030
  65.0220346 104.2572880  74.3010902  28.1733418 108.3483124  72.7868557
  27.9742050 108.0697727  71.8929958  27.3440051 108.6891842  73.1218815
  99.1986465   2.1876968  44.5316315  99.2049789   1.4344049  43.9410877
  99.3650627   1.8147644  45.3973484  72.1995449  10.8940232  57.0424604
  71.6483593  11.6740119  57.1060467  72.9196358  11.1557269  56.4686871
  41.4264822  94.8659420  73.0861664  41.2750435  93.9500523  72.8528166
  41.9249249  95.2213192  72.3503017  63.0301857 110.8425140  75.3053522
  62.3537064 111.1146259  75.9254789  63.1912518 109.9225521  75.5150461
  71.1235571  83.9180851  38.1118941  70.3906822  84.0815830  38.7055254
  71.5775013  84.7588444  38.0545473  36.4905024  85.2562046  55.9445095
  36.5541673  84.4346142  55.4575109  35.9185624  85.0523186  56.6844702
 108.1733799   2.7019590  43.3139133 108.7616730   3.4542954  43.3782530
 107.5069237   2.8612083  43.9822721  60.2656937   4.6184710  68.2567120
  60.8739042   4.3201944  67.5804377  60.2226591   5.5673677  68.1384945
  20.9055662 100.3264236  57.9116583  20.4929614 100.9751034  58.4819269
  21.5377593 100.8278179  57.3967123  18.3291268  21.3947034  79.9803019
  17.7154756  21.3389087  79.2478037  18.8233316  20.5758643  79.9416351
  46.0083675  86.0918999  64.9383926  45.3480673  85.4023266  65.0071144
  45.5118561  86.8766785  64.7063828  84.5695782  16.1568856  75.2466679
  84.4331741  15.7336366  76.0943079  85.4100132  16.6062701  75.3358316
  22.9436350 108.1802845  54.2817974  23.1144142 109.1211510  54.3247652
  22.4676704 107.9861355  55.0892591  66.4388275  85.4068565  59.9829292
  67.3446083  85.5870438  60.2345753  66.0616016  86.2697887  59.8118019
  29.0094733  22.5887752  55.8834553  29.4410062  21.7345405  55.8662653
  29.6884894  23.1941819  56.1811972  77.5792837  83.8740921  81.1675644
  77.4360037  84.7939682  81.3901234  78.5167742  83.7377548  81.3044930
 105.4026508   0.2587117  63.1247330 105.1999092  -0.6026088  63.4897757
 104.5540237   0.6964873  63.0583048  66.5166998   5.4193044  50.2046728
  66.4801836   4.4784725  50.3771114  66.7227173   5.4840732  49.2721558
  53.5447311  98.9758778  70.6503439  53.7955809  98.0670547  70.4849863
  54.2746687  99.3382549  71.1524487  63.8522768 110.1910973  81.2487507
  64.2907429 111.0394669  81.1836338  64.4164562 109.6733570  81.8231106
  87.4280739   3.4896114  63.1686258  87.9884052   4.2116892  62.8842640
  87.8118420   2.7135366  62.7603769 114.0772533  79.1641951   8.7840348
 114.5083427  79.8024178   9.3524325 114.3471813  78.3138275   9.1308016
  75.4471874  62.3710537  54.0314531  75.1029110  62.5497961  53.1563759
  74.7538471  61.8730927  54.4645119  95.7911301  36.4182353  65.8652639
  95.3862667  36.9607854  65.1885414  95.3478432  35.5730677  65.7916546
  45.3038168  70.4023838  48.4892273  44.3910074  70.1248264  48.5664940
  45.7333994  70.0299835  49.2593002  16.6602290 107.7802467  68.3519793
  16.7855489 108.4257317  67.6563644  15.8894539 107.2819233  68.0802870
  47.6788759  92.6451778  49.2950630  47.8176260  93.1368160  50.1045513
  46.9078779  93.0502796  48.8979626  26.4800262  83.4956455  34.0958428
  26.9251776  82.9342556  33.4610891  26.9127512  84.3450451  34.0092564
  23.5760379  88.0069923  55.9197330  23.5344076  87.0527935  55.8564520
  24.4302464  88.2343483  55.5524921  30.1559353  85.1831245  57.9364824
  30.1790881  86.1258507  57.7722692  29.4037437  85.0592422  58.5153532
  96.8207932  24.7160101   9.5822990  96.2337685  23.9600563   9.5692313
  97.6493835  24.3817902   9.2388457  60.2467918   4.7692478  36.1648393
  59.7237873   4.0302059  36.4755058  61.0642052   4.7088102  36.6592169
  77.8245401   3.4090289  45.2405691  77.1144342   2.9608858  44.7810555
  77.4147797   4.1913539  45.6097460  56.9960165  89.7125053  60.7121277
  57.2246838  89.8987579  59.8014975  57.7883959  89.9233818  61.2059927
 105.8889484  77.6235962  49.6178579 105.8480453  77.7647591  48.6720085
 106.7753124  77.8902721  49.8617125  57.0059156 101.6701698  49.1429567
  56.2247515 101.8231487  49.6745634  57.6799345 101.4188671  49.7744417
  33.1443119 105.1884556  44.1234016  33.9532256 105.6972694  44.0686131
  33.0704689 104.9549103  45.0487328  39.7830915  95.5811024  66.8735981
  40.5127048  96.0941792  67.2209549  39.0150237  95.9105682  67.3402357
  27.5553632 104.8436069  70.9556532  27.0273232 105.5963612  70.6896353
  26.9172573 104.1489124  71.1183214  26.0241413 102.7958107  40.9455061
  26.1129642 101.9183826  41.3176107  25.1921010 102.7724266  40.4728603
  54.3481255  98.6522293  64.2192221  54.8179579  98.0357552  63.6575699
  54.9999905  98.9376831  64.8593998  74.4078732  87.1294022  77.0923758
  73.5986614  87.3017502  77.5737333  74.8472357  86.4465332  77.5992107
  74.8953104  18.0361736  85.6535435  74.4271612  18.8692570  85.5983925
  75.0254202  17.7737725  84.7422504  48.1381750  87.0627117  42.2240496
  48.1545830  86.2811756  41.6716337  47.3463726  87.5289631  41.9559193
  63.0091667 100.9911442  61.1915016  62.6465464 101.4896679  60.4592419
  63.9490461 100.9542370  61.0140324 101.6674995   0.3434945  79.8209524
 101.9610119  -0.5206488  80.1096344 101.4713097   0.2314269  78.8908005
  24.7786450  67.7549505  43.7279272  25.5394840  67.3337793  43.3279657
  24.0499687  67.5336552  43.1480217 101.7031193  81.3138103  41.3159180
 100.7712841  81.1361599  41.1880207 101.8558693  81.1350632  42.2437906
  61.2813282  28.4694982  84.9682999  62.0714712  27.9720616  85.1791477
  61.0503244  28.9100790  85.7860756   7.9595053 104.2391968  61.2723064
   8.8392633 103.9478588  61.0327673   7.5302917 103.4528446  61.6094303
  37.5251293 101.1736965  86.2777328  37.0086098 100.7931805  86.9881153
  36.9626999 101.8562698  85.9116745  58.8951588 101.6696453  34.8838663
  58.2946825 102.0027733  34.2170167  59.6358061 101.3220024  34.3870640
  34.6094871  97.5446224  86.8251991  34.4275117  97.6765347  85.8947563
  33.7461901  97.4435520  87.2261143  68.4856510  27.0918465  31.3834333
  68.8063049  26.8913627  32.2627616  67.5576210  27.2913790  31.5066171
 101.8096638  22.9247236  54.2260981 102.2410202  23.3361530  54.9750185
 101.7043781  23.6333799  53.5913086  95.8558750   5.9645253  71.9255018
  95.3406143   6.7498666  72.1098280  95.4008961   5.5455434  71.1949730
  53.4390688  92.1498585  26.5566397  53.8658762  92.5876808  25.8201790
  52.8559637  92.8137493  26.9246936  16.7373824  50.5463314   6.0582674
  15.8425283  50.2129936   5.9922689  17.1056032  50.0951910   6.8179506
  46.0756874   5.8445734  54.8028326  46.7347908   5.3189141  55.2561522
  45.8076048   6.4999890  55.4468775  10.7294345  77.8472757  48.1629515
  11.3608599  78.5435438  48.3439016  10.6452215  77.8421688  47.2094774
  78.2243681   4.8917660  59.0493155  78.2654238   5.8226097  59.2685795
  79.1386509   4.6087831  59.0338898  34.0942645  86.1626911  48.5639906
  33.4307313  86.3772583  49.2196703  34.3249273  85.2516842  48.7458897
  33.6296105  97.8088474  48.2915878  33.6684275  97.2832012  49.0905952
  32.6963282  97.9756641  48.1597376  93.1991005  13.4780073  93.9759827
  93.6588097  14.2984986  93.7979507  93.0865479  13.0748665  93.1151485
  77.3171329 110.1919651  61.6184425  77.0913172 109.8483181  60.7540655
  78.1940556 109.8491669  61.7908716  15.0028694 101.7276669  76.7443466
  15.7680345 101.1633873  76.8554449  14.9092531 102.1728325  77.5865412
  89.2502308   4.9764889  47.4308157  88.7125683   4.2282483  47.6902151
  88.6393356   5.7129467  47.4050999 104.5224762  39.9667525  87.6112366
 104.1958714  39.4683981  86.8621063 104.2141151  39.4799519  88.3755493
  52.9977036  78.2409477  25.5546832  53.1596947  78.8040876  24.7978020
  52.9603720  77.3561907  25.1913142  90.4431438   5.1154894  58.2900524
  90.7358265   5.2802402  59.1863918  90.5156612   5.9647626  57.8544998
  54.8128223  91.8887711  53.5024452  55.2131510  91.8941975  52.6329994
  55.5390072  92.0617771  54.1015768  96.0152817  13.2589436  60.4984808
  95.1128197  13.3716130  60.1999760  96.0949516  12.3209023  60.6715870
  89.8972225   8.7031811  86.6691780  90.1505852   9.2313886  85.9121799
  90.2407837   9.1837424  87.4223423  34.9821067  75.1090479  66.8293190
  34.7353601  75.1643896  65.9061241  35.0814939  74.1715288  66.9948864
  76.8518972   5.7417822  46.0475254  77.7344275   5.6914997  46.4147329
  76.4912319   6.5547872  46.4013290   9.8670709  86.0501671  46.3762712
   9.2980438  86.0670757  47.1457863  10.2468514  86.9280434  46.3398790
  13.1096244  75.6622601  50.6734705  12.9117811  76.5422773  50.9938717
  12.7138019  75.0774765  51.3196802  21.2832451  98.9847660  77.2765255
  20.7414508  98.5916615  76.5923023  20.9392095  98.6216545  78.0926275
 116.9187546 104.6403599  54.6136856 116.8179989 103.8950539  55.2058077
 117.3866081 105.2958107  55.1311207  67.2676611   9.6039706  53.1795645
  66.7859745   8.8309360  53.4738922  66.6161442  10.3052163  53.1761694
  76.5432882  12.6867747  19.8823535  76.7228270  13.4788167  19.3757296
  76.0804653  12.1121740  19.2725515  34.4363165 109.1247463  44.9077463
  34.9950647 109.0935993  44.1311741  34.5115423 110.0261307  45.2209377
  62.3433495 102.0988560  38.0178094  62.7449656 102.1529293  38.8849974
  62.9849863 101.6284275  37.4856138 100.6183720  11.4015269  56.9604588
  99.8725605  11.1188316  57.4896765 100.7351017  10.7017016  56.3179255
  50.4984617 100.9995937  67.1981859  50.5261850 101.6146278  66.4652538
  51.1482954 101.3341045  67.8162766  53.5823154 107.8389454  73.9975071
  52.6917744 107.5721931  73.7694407  53.9199305 108.2511520  73.2023096
 101.8060303  17.2546840  65.3923798 101.2551785  16.4750898  65.3215170
 102.4780083  17.0159090  66.0308647  84.6494102   3.4848422  86.3281822
  83.7712574   3.7868458  86.5602779  85.2363586   4.1324276  86.7185116
  54.4128323 106.0405350  57.0241261  54.4385672 105.5048561  56.2312698
  55.1068878 106.6876507  56.8986082  79.8561001   7.4959165  32.4910283
  80.7783127   7.2452140  32.4371243  79.4520903   6.8099570  33.0225039
  25.8294463  95.7533360  55.5090284  26.3525486  96.5529823  55.5652046
  25.5776715  95.6960869  54.5873117  97.9548168   9.3574142  73.2076454
  97.7762699  10.0864708  73.8016415  97.0917702   8.9957857  73.0061245
  72.7509022   5.3189987  59.4939995  73.4500408   4.6731049  59.5953035
  73.1896544   6.0937458  59.1425753   9.0086758 104.6760368  25.7020569
   8.3214730 104.4017696  26.3093138   8.6611891 105.4660511  25.2881002
  11.4951193 101.3886166  57.2933531  12.3750472 101.6755009  57.5375986
  10.9127736 102.0327187  57.6961422   0.1407229   1.2736279  61.7533112
  -0.5116666   0.6042910  61.5469074   0.4212748   1.0677230  62.6450109
  35.2631903  96.7063618  46.3845921  34.8062897  97.1599865  47.0929003
  35.3204584  97.3546410  45.6826782  61.0127306  81.8548012  75.7976198
  61.9619846  81.7502403  75.7327414  60.7931328  81.5154362  76.6652822
  47.1834469 107.9654598  61.3984108  47.9116917 108.3080673  61.9165993
  46.8872738 107.1943474  61.8820381  46.4596367  93.7876320  33.0119228
  45.7345152  93.2122898  33.2556677  46.1248922  94.2946243  32.2722340
  81.4971066  95.1308537  67.2339439  82.1727562  95.1207447  67.9119015
  81.9377518  94.7989750  66.4516878  67.3791409  23.2671762  72.8338766
  66.8415833  22.5456810  72.5072145  67.9869843  22.8543139  73.4473085
  65.7508707  26.1942887  28.1769133  65.9129810  26.6112781  29.0231252
  66.3801432  26.6042089  27.5834394  52.2595263  39.6298051   0.1849006
  52.8197002  38.8990045   0.4463658  51.6016054  39.6871066   0.8777852
  35.9876347  34.3300390  82.9080582  36.0083866  33.8323855  83.7254620
  36.5644693  35.0770307  83.0677319  12.7650928 105.5974483  28.4375143
  12.0819175 104.9512863  28.2586932  13.2497489 105.6674480  27.6150537
  68.7590933  17.7120221  57.0538139  68.4468842  16.8098724  57.1237040
  68.0507517  18.2398450  57.4224329  46.4703178 111.1714172  51.7750502
  46.2795544 110.5227947  52.4526358  46.3586473 110.6970692  50.9511852
  18.2955945  81.4158726  84.2649364  18.2898426  81.5335464  83.3150101
  19.2137361  81.5220642  84.5138741  82.2328281  25.7550478  70.3926325
  81.9432163  25.8935785  69.4908714  81.4671803  25.9692621  70.9256697
  30.9702849  97.8279686  48.7739515  30.3409338  97.2575855  48.3325815
  30.7083416  97.8067017  49.6943712  49.9060345 104.6227551  56.7583466
  49.0591669 104.2105389  56.5876532  49.7587729 105.5527592  56.5861940
  19.2188108  96.2546825  85.6640244  18.9384007  96.2429905  86.5791607
  18.4031987  96.2363338  85.1633549  32.5652671 110.1674366  88.4626102
  33.0258775 109.9249458  87.6593208  33.2238054 110.6210995  88.9886761
  37.8944659  85.3785133  66.1463451  36.9726086  85.2442074  65.9264040
  37.9294658  86.2676811  66.4990377  52.6875162 106.6973877  36.2945199
  53.1358528 106.9244766  37.1091723  53.2077837 107.1175289  35.6096578
   8.4714556  28.9458299  95.5045033   8.1989753  28.4715486  94.7189903
   7.7452314  29.5416117  95.6885529  50.9888029  95.4518127  74.5363760
  51.1236668  96.1090565  75.2190781  51.6210270  94.7623825  74.7393799
  15.6765723  86.4977932  59.4478512  15.7947958  86.2827396  58.5226393
  15.5122221  87.4407482  59.4554710  73.0316257 100.9384918  54.6108150
  72.5920725 101.3821411  53.8854170  72.3183918 100.5975056  55.1504993
  24.2287874  81.3461494  61.9449902  24.4824386  81.2618923  61.0258675
  23.8871431  82.2372818  62.0184469  81.8247604  19.5497155  44.6955919
  81.3193798  18.8504255  45.1100969  81.1847591  20.2419901  44.5300865
  61.9303322  97.0506001  57.3728895  61.0581303  97.2319031  57.0227098
  62.5256205  97.2593498  56.6529751 105.5144596  26.8384075  58.3243513
 106.2452316  27.0061898  58.9193773 105.2081776  25.9632206  58.5619831
  41.2811756  91.0958385  56.7522621  40.7129335  91.7364311  57.1800041
  41.5117979  90.4788017  57.4467468  52.0968676 100.3393173  63.8391876
  51.9889545 100.8937645  63.0664206  52.8610516  99.7980976  63.6408329
   5.1160103   4.5099872  47.3546934   5.6912595   3.8636544  47.7640486
   4.8603842   5.0909710  48.0711746  15.3792560 100.1694775  60.2587652
  15.4518700  99.7232628  59.4150591  14.4992054 100.5459499  60.2556467
  97.4423122   4.8000896  48.1798744  97.2283268   4.0910393  48.7862539
  98.2196140   4.4909576  47.7146149  48.6948967  83.1503582  38.0575609
  48.7592173  84.0921593  37.8990841  49.3819237  82.7681351  37.5115490
  88.6158848  24.4373298  75.2782345  88.8610172  24.3328428  74.3588781
  88.9192295  25.3154564  75.5086899  75.8654261  29.0306830  64.1441250
  75.1916218  29.7070479  64.0752268  76.6749382  29.4719625  63.8868380
 106.1136627   3.8654861  64.3333912 105.9212399   4.1531816  65.2258253
 105.3295612   4.0934670  63.8339424  57.6856327  11.5308094  76.6824579
  57.8657293  12.4324691  76.9485569  58.1540060  11.4274549  75.8541012
  96.8447685 105.2423859  79.3612385  96.1076546 104.8709488  78.8765383
  96.8847942 106.1546707  79.0742540  35.0255728  90.5268764  57.0430708
  34.3982911  90.2695274  56.3674068  35.5079341  91.2575817  56.6562557
 102.7404785  40.0321770  78.8344336 102.3208332  40.8895874  78.9050102
 103.0918694  39.8647881  79.7089243  43.1028748  81.9987392  42.1311140
  42.8239346  82.9061890  42.0088100  43.9790726  82.0665646  42.5104666
 106.3633919  50.2479267  23.2113457 106.6909885  50.2011490  24.1095257
 107.1289539  50.4881477  22.6893830   7.2043663 104.4950581  54.3203306
   7.2644728 103.5459805  54.4292164   6.2820500 104.6963692  54.4785786
  57.3123598  91.1577606  87.1549892  57.8074503  90.9570408  87.9492378
  57.7209091  91.9527817  86.8125725  45.0396109 108.6376286  59.4873381
  44.9745464 109.5812035  59.6345139  45.4835844 108.3036804  60.2668238
  72.7519894  89.9449825  31.7291021  73.2701492  89.1411495  31.6891336
  73.1484604  90.5183792  31.0731649  98.5841084   4.4968748  57.0095730
  97.6652813   4.3478265  56.7864704  98.5630989   5.2109587  57.6466560
  70.5636263   4.5796597  81.6998959  70.3495359   5.0491971  82.5060749
  70.6905031   3.6724538  81.9775867  52.7846479 101.6277885  76.2936020
  52.6373625 102.5001049  76.6591024  53.1448507 101.1208820  77.0212984
  66.4653778  87.9528618  96.0619545  67.2814131  88.0622673  95.5737400
  66.4389658  88.7032890  96.6555691  47.4586058 110.9946346  81.0175228
  48.0297375 111.1122799  81.7765999  47.9402971 110.3969669  80.4456997
  52.1583557 109.4058418  52.8478193  52.8354740 109.4629860  52.1736670
  51.6696167 108.6122322  52.6297331  63.8815784  70.5469656  81.9871807
  64.7167015  70.1911402  81.6835403  63.2705736  69.8130512  81.9217777
  63.4513521  19.1487801  82.9565048  62.8650236  19.5845604  82.3379993
  64.2624998  19.6552932  82.9150963  59.6650648 100.0363064  81.9219112
  59.4085932 100.9490776  82.0534420  59.6598387  99.9205875  80.9717464
  60.5117035  19.9448955  54.7639608  60.2360678  19.7991407  55.6689548
  59.7071362  20.1847506  54.3042135  43.2663488  83.8564396  95.4375172
  43.4974432  84.4446945  94.7186279  43.4529114  82.9805088  95.0996399
  73.7117147  37.9957318  68.7772751  74.2385578  38.0942440  67.9841995
  74.3377781  37.7242732  69.4485283  41.6185427 103.4589767  46.7624378
  42.3566675 102.8495598  46.7663527  41.6356850 103.8615036  47.6307201
  73.1031704   5.4818296  33.5485721  72.3293066   4.9784064  33.8014150
  72.9053926   6.3779557  33.8207364  95.7910633   3.7190586  41.4503527
  96.4764309   3.9568087  42.0748329  95.1367569   3.2592630  41.9763851
  25.5773258  36.0989738   3.2782069  26.1483502  36.8066025   3.5772476
  25.6701899  35.4183507   3.9448091  27.8181267  91.7285156  92.8601456
  28.6541677  92.1923447  92.8139782  27.2490335  92.1994209  92.2513676
  41.3529491 107.7836800  46.5402746  41.9536829 107.3503304  47.1465445
  40.4888344 107.4475479  46.7780876 103.6473465  33.3799529   1.4859508
 104.0646839  34.2259622   1.6481988 102.8370380  33.5970974   1.0249953
  49.5197153 103.7591934  60.2245617  49.5539474 104.6821785  59.9732590
  48.8928413 103.3683300  59.6158886  13.5053158 100.0896835  79.0982437
  14.0939379 100.2163315  79.8423672  13.9768040  99.4909191  78.5190964
  32.0440221 100.1514244  56.3172865  31.9362497 101.0459805  56.6403627
  32.1258116 100.2476692  55.3684568  45.5019712 103.1675816  49.9168015
  46.0057354 103.9800930  49.9644518  45.0437021 103.1203365  50.7558441
  20.7039428  98.0460262  56.2221718  20.8503652  98.7939739  56.8012714
  21.5093970  97.5327492  56.2855577  76.7546797  93.3586597  92.6808548
  76.8161011  93.1807327  91.7423439  75.8411837  93.1751537  92.9001427
  57.8754663 110.7150269  89.6925259  58.5863113 110.1457405  89.3978214
  57.6454353 111.2306499  88.9195824  78.0118418  91.4411640  21.8088150
  77.3878241  90.7385540  21.9909573  78.8567400  90.9976006  21.7337418
  37.0356226  70.7414341  52.3079634  37.9524302  70.8022499  52.5762892
  36.6466999  71.5675592  52.5951672 103.5891056   4.0947500  53.8937521
 102.7386189   3.6760616  53.7610435 103.4195042   4.7828925  54.5371246
  30.3993511  73.5742903  18.8464677  31.2831259  73.7041426  19.1904342
  30.0046825  72.9321003  19.4364333  85.7935619 105.3334713  69.4433928
  86.6170979 104.9723434  69.7714090  85.2059650 105.3144360  70.1987743
 101.8618011  18.1658399  62.7869940 101.6980934  18.0146873  63.7178993
 102.6585770  18.6959171  62.7669048  78.8644075 109.0885067  53.4863424
  78.0161428 108.7707424  53.1769848  79.2025566 108.3774185  54.0306234
  85.3016376   0.3291736  54.5990658  84.3799400   0.3822079  54.3462896
  85.5666733   1.2394915  54.7306299  29.4504976 104.4479656  68.7784290
  28.6128688 104.2839813  69.2116928  30.0174642 104.7840118  69.4725895
  31.6137981  55.6719875  43.2062149  32.3338485  55.9058714  42.6205015
  30.9968519  56.3998461  43.1298351  92.1384144   9.6383727  58.0752563
  91.9796371  10.4627311  57.6154137  91.8222141   9.7956395  58.9649296
   9.8133183 100.3435135  62.5704765   9.6677238 100.0260830  61.6792583
   8.9402801 100.5737114  62.8883553  58.8386440 105.7947350  70.9742594
  58.0884218 106.3411331  70.7400465  59.4752455 105.9501457  70.2765369
   6.8606138 101.4682293  36.8632865   7.2875917 102.3247147  36.8818069
   7.1720779 101.0627747  36.0540700 106.9936848  77.8437662  17.4474037
 106.7215633  77.1985149  16.7948437 107.5021172  78.4857845  16.9518816
  49.6068144 107.0803928  58.0561829  48.7644243 106.7163754  58.3284092
  49.4935179 108.0279541  58.1304741  74.8159933 110.3602695  71.3708401
  75.2718878 109.5308590  71.5139246  74.3730259 110.5363941  72.2008944
  59.4638300  91.5075397  59.8635960  58.6984396  91.9807816  59.5373201
  59.2955017  91.3959408  60.7992458 103.0664253   8.9206249  71.3752460
 102.8750896   9.6463561  70.7811594 102.2084045   8.5556388  71.5916252
  72.1135330  78.1739473  33.0435848  71.3135433  78.2658672  33.5610747
  72.6406622  78.9371824  33.2798839 105.8531380  31.9379115  51.4168644
 105.4874039  32.1545672  52.2744942 105.2728748  31.2583470  51.0737610
  37.3420691   2.4099542  63.0587721  37.7670956   3.2664278  63.1038952
  36.4305973   2.6060188  62.8419590   3.8503981  15.5438054  56.3864565
   4.5725635  15.4498351  55.7652664   3.0861330  15.7255030  55.8395386
   9.6976256  28.7273598  70.8782768   9.9009681  28.7654424  69.9436998
   9.3852347  27.8336120  71.0191965 108.1226063  95.5249023  55.7946920
 107.3869801  95.7030296  56.3806534 108.3833218  96.3863564  55.4688692
  95.0172615 106.3379574  65.0999022  94.1181087 106.1705112  64.8175335
  94.9244022 106.8205929  65.9212875  70.6232882  84.4479370  66.7676401
  71.5303850  84.1580296  66.8643761  70.1513338  83.6662292  66.4805126
  95.5473518  18.8334084  22.8857327  96.3761806  18.5009170  22.5411582
  95.7709122  19.6804285  23.2714939 117.2802162  22.4780107  87.9965115
 117.1188545  22.9005408  88.8401127 116.5309334  22.7283764  87.4560261
  52.5871229  94.6464825  65.3073454  52.6564980  94.2657471  66.1828232
  51.6837215  94.4740486  65.0420761  92.2222805   1.6083561  87.5367165
  91.6117477   1.2572905  86.8884563  92.1201420   2.5579110  87.4723339
 102.6874733  10.7723904  21.1330914 102.2271729  10.0982070  21.6329193
 103.1667137  10.2872479  20.4613757  98.4639454  91.5691662  50.9685707
  99.3729782  91.8125153  50.7933950  98.0013275  92.4043655  51.0368776
  79.6960402  15.0082803  59.6593094  80.3028870  15.7376051  59.5325947
  80.1828003  14.2379844  59.3661594  60.9928513   7.6666081  43.8647985
  60.6089687   6.9164956  44.3188858  60.3233862   7.9335201  43.2348728
  91.7916965   2.7839729  27.9224253  91.4775944   2.4764602  27.0721269
  91.3760281   3.6386305  28.0365086  98.7720871  30.1393390  52.3199272
  98.4118843  29.4423223  52.8682470  98.1106567  30.8307481  52.3462152
  53.2920885   4.5094228  79.6235085  53.4580612   5.3934723  79.9508286
  54.1106367   4.0385151  79.7798824  72.0106030  10.0600505  41.0257483
  72.3424101  10.4177940  40.2022457  71.1594009  10.4815257  41.1442709
  54.9131536  32.6532197  82.6048946  54.9480200  33.5657263  82.8918552
  55.4158688  32.1753240  83.2645416 111.3339710  18.5024679  58.6178160
 112.2822666  18.3808005  58.6643791 110.9707355  17.6589763  58.8876629
  72.3506689  19.1063678  52.7424574  72.4797058  18.7946498  53.6382341
  71.4421654  19.4070923  52.7220345  84.7076130  15.1318550  56.8842793
  84.5783997  15.2895796  57.8195095  85.6447697  14.9570727  56.7980909
  90.0641918   5.8738750  69.3086243  89.2834759   6.0136765  68.7727308
  90.0080490   4.9574149  69.5791435  83.4067822 106.1636639  67.6607275
  82.8492928 106.3553238  68.4148502  84.2462921 105.9073162  68.0424738
  86.3338947  11.2834477  48.1216431  85.9430599  12.1504390  48.2303238
  86.3867855  11.1616874  47.1736908  41.0222101  90.2995491  18.0518317
  40.2382994  90.7486153  18.3681500  41.1059952  90.5777168  17.1397829
  90.0972271   9.0310222  60.4694939  89.6270180   9.7547537  60.0555468
  89.7974682   9.0394139  61.3785076  35.6186891 110.2440548  59.6698427
  35.5820274 109.7399807  58.8569450  36.0979939 111.0392570  59.4371557
  38.4358978   7.2601646  87.1882534  38.8759661   8.0003124  86.7702198
  37.7813220   7.6621622  87.7593517   8.7254339  48.7193441  45.3670263
   9.4022334  48.8245440  46.0356903   9.2094940  48.5210228  44.5654106
  81.0699081 109.9603748  66.5150595  81.1804008 109.0684128  66.1857748
  81.7139530 110.4762650  66.0299826  57.2349358   7.9288119  61.8309784
  56.4728212   8.4224260  61.5280533  56.8650818   7.1888036  62.3124599
 109.5980835  14.1663361  72.4043131 109.5752716  13.2873249  72.7825356
 109.2839050  14.0495181  71.5077209 114.8260689  23.1277990  35.6240892
 114.5666122  23.3083725  34.7205925 115.2954578  23.9149308  35.9003592
  95.1125526  13.1727958  54.1813803  94.3397713  12.7256525  54.5265007
  95.1203442  14.0183175  54.6300077  42.8747272 109.4303036  88.3041000
  43.0048323 108.9806175  89.1390228  43.4125137 108.9405155  87.6819134
  61.1217928  13.0427623  34.9372649  61.0806561  12.2370756  35.4524422
  61.5928602  12.7946270  34.1418076  61.4324570 102.9349995  62.7852535
  61.1735868 102.0766640  63.1206322  62.0693970 102.7412605  62.0974922
 101.2984085  94.1755104  90.1343918 101.9520187  93.8742352  89.5033169
 101.6356754  95.0153637  90.4460430  86.1425877 101.3880062  81.2528896
  86.9808960 101.7478848  80.9631443  85.5627060 102.1474457  81.3096428
  87.1693325  23.6175346  65.1437759  87.0463467  23.5808802  66.0923338
  86.3286400  23.3368850  64.7822332  96.9447136  20.9863448  38.0645585
  96.9521332  21.4056182  37.2041035  96.2614441  20.3191066  37.9999852
  56.6853010 110.8324271  53.2744074  57.1223223 111.6748230  53.3993578
  55.8631861 110.9150963  53.7576437  62.3512268   1.4055921  37.9351616
  61.7769289   2.1712564  37.9482555  61.8382931   0.7142729  38.3537412
  63.3441067  19.7824895  53.9099026  62.4306679  19.7744095  54.1958952
  63.2999516  19.9714625  52.9725790  78.5651255  63.0642939  61.5381050
  77.9236317  62.3539543  61.5495872  78.9649868  63.0119038  60.6700039
  53.3119011 105.0423813  76.3376331  52.4340773 104.7080040  76.1536598
  53.7748384 104.9720097  75.5027866  63.5049868  84.7086239   9.7630793
  63.3420324  85.6346321   9.9424917  62.6391554  84.3019676   9.7977465
  95.4162407   6.9628447  48.1682444  96.0788918   6.3059270  47.9547453
  94.8477650   6.9885385  47.3985672  53.1183290  92.8664207  21.0262489
  53.9041424  92.4896812  21.4222264  52.4746799  92.1583652  21.0509372
  23.6326861  90.9066296  29.2082548  23.1840110  90.0656891  29.2961693
  23.2174325  91.3217831  28.4523106  47.9777479  90.6719303  47.3873186
  47.9717779  91.3580894  48.0546904  47.8619337  91.1406708  46.5608215
 107.6697540   9.6574998  53.4819317 107.5403595  10.3916883  52.8815508
 106.8783951   9.6460283  54.0203094  33.3288300  44.0533450   1.2087030
  33.0474674  43.2756141   1.6905755  34.2489779  43.8879493   1.0032529
 103.2365894   7.3024040  63.2889652 102.7172661   8.0627483  63.5505104
 102.7722645   6.5544689  63.6647606  82.5360775  94.5844364  64.8158884
  83.2121944  94.8637199  64.1985512  82.3121262  93.6956692  64.5398998
  70.6598341 111.2284842  58.3136129  71.3112700 111.2597025  57.6129770
  70.9845793 111.8446412  58.9702177 115.0317764  26.2277579  71.1362267
 115.5345821  25.7802582  70.4556656 115.1255322  25.6704736  71.9088030
  84.7503567   6.4368355  63.8467836  84.6731853   5.9298116  63.0385733
  84.1459465   6.0114431  64.4550276 110.0825405  23.2168198  23.9708519
 109.3690395  23.8267541  24.1582537 109.9376011  22.9503179  23.0629992
  40.8881283 108.7573242  54.0842533  41.2230635 109.4061375  53.4653044
  41.3937378 107.9660130  53.8987589  64.0125942 107.1943283  42.3417044
  63.5685968 108.0171394  42.1365547  63.5043144 106.5266132  41.8812370
  61.5142298   5.9979075  38.8228750  61.7428064   5.3710216  38.1365824
  62.1845961   5.8727098  39.4945621  70.8139038   5.1153874  72.4925947
  70.6654215   6.0091561  72.1837854  70.6668425   5.1608676  73.4373379
  88.1232262  35.0861263  64.8584461  87.7317905  35.7435536  64.2832947
  87.9014397  34.2488670  64.4509649 108.5629177  45.1125336  36.1976790
 107.6542091  45.2568436  35.9337544 109.0755272  45.6540394  35.5974841
  18.8435233 107.0701218  76.5910196  19.3777609 107.0205688  75.7983255
  18.9257085 106.2038326  76.9897890  69.9949503  87.5900650  48.9808130
  70.1911259  88.0466843  49.7988892  69.2727947  87.0020103  49.2019701
 107.8794956  16.1032295  62.8853512 107.4770927  15.4607570  63.4697580
 108.1495571  15.5951202  62.1204138  52.7649355  40.3686714  95.2311516
  51.8922520  40.4533052  94.8471069  53.2263613  41.1602020  94.9540234
 104.0452862   7.6523334  31.5015364 104.4250679   6.9065881  31.0369229
 103.7861729   7.2978860  32.3520994 106.9063663   1.4294429  19.6339798
 107.2337151   1.9088194  20.3950834 107.0550823   0.5085889  19.8487961
  31.3035321  72.1771574  29.1438222  32.0213079  72.6904392  29.5147276
  30.7827950  71.9110966  29.9016309  43.3038235 111.6625690  32.6979399
  43.6973047 111.0784340  32.0497108  43.7544727 111.4512730  33.5155606
  98.8079929  13.6004519  62.8802967  99.6629715  14.0284324  62.8347301
  98.1929493  14.3122733  63.0571032  70.1980352  86.2878704  43.6958075
  69.3351603  86.0627079  43.3479929  70.4272509  85.5516243  44.2629337
   5.4296815 103.3160305  57.6236248   4.9791560 103.2837772  58.4675550
   5.4924816 104.2494678  57.4211693  99.6473312  15.4856503  65.7987261
  98.8338566  15.5248749  65.2957964  99.4373035  15.9154642  66.6278124
  57.9752874  39.6341157  65.1137114  57.3660517  40.3531885  65.2810335
  58.2221127  39.3218517  65.9842300  15.4273009  90.6673050  52.3815823
  15.3486729  91.6171455  52.2929144  15.7909822  90.5378056  53.2574797
  65.9674454 100.5443573  83.9489460  65.6879663 100.1205254  83.1374741
  65.2101660 101.0623932  84.2217159  69.6225786 102.9377365  68.5474205
  69.7554016 103.2747650  67.6614189  68.7109947 102.6459789  68.5585403
  97.9049778  23.0298376  72.4157810  97.5115776  23.0450964  71.5432930
  98.3503151  22.1838593  72.4629498  39.6823740 108.4578991  73.0299854
  40.1088715 108.7403965  73.8390160  38.8249683 108.1377983  73.3103800
  13.5267484  23.0750823  16.2596095  13.9069569  22.3990750  15.6986403
  13.0445230  23.6422706  15.6579554  98.1754971  16.0370767  75.2374935
  98.6764431  16.7176342  75.6870747  98.6150742  15.2203548  75.4740620
  47.8964090 106.7067051  45.9693766  47.1517944 107.0454597  45.4723501
  48.2157850 107.4602604  46.4657545   5.1666504  14.1680396  11.1197972
   4.2667431  14.3513954  11.3895714   5.4885119  13.5424304  11.7688358
  94.6522713  12.3856354   6.8238842  95.2453804  12.9510987   6.3292003
  94.5945072  12.7957380   7.6868504  78.6183214   6.6080427  66.6048002
  78.5460091   6.1204332  67.4253130  78.8180494   7.5041687  66.8755341
  65.0741100  24.4700193  30.4837799  65.3544044  25.3614211  30.6913137
  64.1180658  24.5065737  30.5133057  58.2948542  32.6330471  22.8332973
  58.7535000  32.8970122  23.6309171  57.9670954  31.7544031  23.0251122
  89.3045330   5.9453845  90.4709625  89.7418308   6.7823708  90.6273460
  89.4668007   5.4380941  91.2662983 101.7591286   4.3326613  56.9770718
 101.3436222   4.5726240  56.1488199 102.6575947   4.6526447  56.8958473
  62.6783323   8.1773579  37.5186372  62.4676323   8.0005825  36.6018009
  62.2285461   7.4866068  38.0052423  64.6914530 103.9303684  52.2777843
  64.8294020 103.2272148  52.9124355  63.7439823 103.9488029  52.1429110
  73.1366205  34.0354562  93.8086987  73.0106592  33.6649442  94.6822453
  73.8842583  33.5566163  93.4509563  51.9620800  87.6045132  62.3543692
  51.1067200  87.7907562  61.9671917  52.1802139  86.7263412  62.0421743
  82.8886223   7.9303163  69.5275545  83.5907459   8.4869111  69.1907215
  82.2404671   7.9099596  68.8234806  40.6160307 109.1157436  35.7566833
  40.6836987 109.8364067  35.1303506  41.3240576 109.2738533  36.3811302
   8.9918256  29.7571373  86.5429592   8.6994445  30.3800082  85.8775425
   9.1365379  28.9426136  86.0614681 109.9912071   2.6645213  91.9843006
 110.8307076   3.0577752  91.7459106 109.8923016   1.9274005  91.3817120
   9.8082125  34.1069555  46.3633633   9.2476714  34.8767495  46.2661982
   9.2236799  33.4253526  46.6949844  80.5551720 100.1501942  33.7314606
  80.0760555 100.4738998  34.4942784  80.2223778  99.2625999  33.5985541
  99.1535473 111.0253143  61.1289167  98.4814262 111.4240646  60.5762053
  99.6390057 110.4496288  60.5380392  19.7764754  14.3821704  50.9144783
  20.4670215  14.6692121  50.3169966  19.9955308  13.4720087  51.1141062
 116.1451054   9.3401933  11.7661226 116.7587757   9.4188219  12.4965000
 115.8173084   8.4427494  11.8242586  69.5921230  24.0451503  89.6855354
  69.6585464  23.7845850  88.7668800  68.7405205  24.4772696  89.7509575
  88.6531734  20.9567380  82.3822212  89.4885349  20.7766128  81.9509792
  88.6256695  21.9101834  82.4623203  67.9460478 107.2404671  61.2862492
  68.1625223 107.9412270  60.6711864  67.0434141 107.0043945  61.0723352
  85.3604698  11.2769139  19.6782541  86.2292957  11.6785991  19.6824920
  84.8117256  11.8878913  20.1699996  44.3109512 105.0092125  72.8398085
  43.8993931 105.1158524  71.9822073  44.7860432 104.1806793  72.7761221
 108.2306194  24.9191546  44.8788118 107.7834797  25.3399897  45.6131124
 108.5888004  25.6454349  44.3684673  92.4952793 100.3739452  51.8326378
  92.8719616 100.9451294  51.1632395  91.6773033 100.8040905  52.0818710
  51.4959478  78.7696314  94.9580097  51.4555788  77.8464270  94.7084236
  52.3117113  78.8486099  95.4525089  66.0854006  94.0204811  56.2421751
  66.9083738  94.1396618  55.7680988  66.2119961  94.4937420  57.0645046
 111.9274139  43.5531712  37.2284913 112.5036907  42.9981804  37.7539730
 111.9577980  44.4068146  37.6604629   6.9422966  19.5809615  54.4452477
   7.6805580  19.5810735  53.8359833   7.2045845  20.1855159  55.1394701
   2.4599755   9.1506934  93.8803959   3.2074833   8.7282330  93.4573269
   2.2728425   9.9121082  93.3313465 116.1694908  30.4069448  70.6139040
 115.4984283  29.7296929  70.6989479 116.5141678  30.2927160  69.7282505
 117.7781868   5.4836297  43.0799294 117.8586864   6.4100933  43.3066797
 118.1142807   5.0193375  43.8465500   1.2258539  50.6430387  11.9482172
   2.0955953  50.5484676  11.5598392   0.9388584  51.5168476  11.6830361
  20.4976010   7.6163769  60.3455687  20.5342865   7.8099501  61.2822771
  19.6143401   7.8745353  60.0820637   8.8793719  30.9670401  37.6156902
   8.0415136  30.8052731  37.1820354   9.5371318  30.7300639  36.9619107
   8.3201069  40.6579399  42.1438026   8.7126225  40.4880095  41.2874842
   8.0219281  39.7997403  42.4451590 109.0272903 104.8315525  22.2257590
 109.0538120 103.8938522  22.0353580 108.8633537 105.2436447  21.3775063
 114.7058678   1.0566502  67.4484491 114.4073391   1.8820947  67.0666742
 115.5054855   0.8452513  66.9666243  22.3559666  18.0984139  19.5088041
  22.8474689  18.4450555  18.7641585  21.4377809  18.2036424  19.2596197
 113.0181026   9.0894240  55.7418823 112.7253342   8.8194430  54.8714638
 112.4472141   9.8231870  55.9697008  11.8672121  43.1032372  78.9105225
  11.4599085  43.9648628  78.9996195  11.7762804  42.8902102  77.9817677
 113.7722015  47.7956057   7.2121745 114.3993759  48.2214165   7.7966130
 113.0312061  47.5743580   7.7762747 102.3716545  36.1504412  47.0970964
 102.0882511  36.9330716  46.6244364 101.5751076  35.8198786  47.5123930
  48.7150288  95.6137657  77.2378683  49.6326876  95.3841400  77.3841667
  48.4657240  95.1186943  76.4575005  16.4489925  20.6053853  52.5298262
  16.0695994  19.7283518  52.5855637  16.6036201  20.8577490  53.4401226
   0.4909748  90.1179028  40.8889437   0.5614328  89.2002583  40.6258821
   1.2783989  90.2791882  41.4087343 117.8229141  28.1398320  38.1721139
 118.4324169  27.5939035  38.6687922 117.4653816  28.7486410  38.8184524
  36.3481236  35.9622264  51.4589453  35.9107566  36.8075109  51.5611124
  36.5977764  35.9318089  50.5353785  15.8547819  60.0371075  41.3290644
  16.5629244  60.4360008  41.8346786  16.0305882  59.0971231  41.3709927
 101.1757565  34.0716147  65.1380205 100.6442356  34.7141695  64.6680832
 101.9462299  33.9468884  64.5839024  97.1137333 103.6725903  64.1644716
  97.9834747 103.6417007  64.5629978  96.6340351 104.3161488  64.6859694
 109.5385647  10.0805974  33.5672688 109.1866207  10.5141068  32.7898145
 109.7576809   9.1973490  33.2704639  15.4951930  20.5980182  30.0248384
  14.6170497  20.5537581  30.4031730  15.8600736  19.7240281  30.1635361
 114.1675663  20.6704140  57.6726007 113.5655308  20.1632690  57.1280003
 114.0511894  20.3146052  58.5535622  13.8776660  25.3453970  43.0793810
  13.8563073  26.2578487  42.7909231  14.7809601  25.0673556  42.9277802
  15.3893006  49.6911049  69.8277903  16.2071967  49.4531775  69.3911362
  15.1967967  48.9466715  70.3978729  90.1569557 108.7114906  33.2031798
  89.6317959 109.3932629  32.7841020  91.0629845 108.9849949  33.0598187
   3.6979356   9.8486835  43.9687204   3.3823207  10.7235360  44.1951132
   3.2975644   9.6619290  43.1195688 117.1668816   5.3101754  54.3065166
 116.3542747   5.8066618  54.4034672 117.7622604   5.9104985  53.8577700
  98.9173412  37.3961592  71.7004442  98.8984680  37.9955435  72.4465084
  98.1463718  37.6317549  71.1843681  24.4826913  68.0719614  35.7104945
  24.9625182  67.6252699  35.0130224  23.7763810  68.5330439  35.2579927
  10.2818251  11.4940882  64.3836641  10.6819701  11.6612339  65.2369976
  10.4656959  12.2833037  63.8741922  67.2331667  89.6165466  25.5621767
  67.3245430  90.3594303  26.1588430  66.6809034  89.9455070  24.8529387
   8.7796664  29.7730231  56.3841963   9.5811760  29.7940469  55.8613491
   8.0833429  29.9889541  55.7639265  77.7123499  12.2202420  38.7709618
  78.0258894  13.1169593  38.8885283  77.8711748  12.0302665  37.8463459
  96.6573620 110.4147339  45.8251572  96.9524288 109.8826218  46.5640926
  96.8607044 109.8864460  45.0532818  16.4321923 101.5064049  35.1671815
  16.2844145 100.6741142  35.6162739  15.9924078 101.4045048  34.3231201
 117.5346851  48.4315825  46.3087463 117.2321987  48.0698824  47.1417570
 117.7069664  47.6643467  45.7629442   9.1850132   8.2282782  76.8250847
   8.4069353   8.6491311  76.4594221   9.7467089   8.0638891  76.0676527
  24.5204949  42.2258568  27.2605824  24.4126415  42.8452969  27.9823112
  24.2613435  41.3812923  27.6290679  34.2407346 101.0518742  94.8385429
  33.7583733 100.7510376  95.6086445  34.1467524 100.3411198  94.2043304
  57.6571369 109.9594021  65.5610085  57.7238178 110.3689480  66.4236021
  57.3371267 110.6568527  64.9888325   6.2415504   2.3399903   3.3849430
   6.3398206   2.8139430   4.2107418   5.8635062   2.9819036   2.7838925
 103.1954288  30.0801992  45.2028179 102.2627354  29.8655844  45.2188587
 103.6030960  29.3428016  44.7486401 116.0672760  46.4924335  20.8490610
 116.2692642  46.6903925  19.9345970 116.6715240  45.7870817  21.0805464
  91.4187908 110.9664440  59.8728323  91.6666889 111.4667702  60.6503010
  91.9428444 111.3452721  59.1670752   9.4963348  11.1871696  41.1462212
   9.6191108  11.4620316  42.0548487   9.8479664  10.2974248  41.1155415
   6.0512960  27.7558231  44.8778439   6.4823455  28.4631228  45.3575945
   5.1877922  28.1062365  44.6592045  17.2324073  31.4197326  27.1666145
  17.3751032  30.4732728  27.1757340  16.2815368  31.5181279  27.1176529
 115.2412510  43.9026117  47.2934532 114.8827648  44.0131283  46.4128256
 116.1902332  43.9116240  47.1686077   4.2915243  33.8169885  47.9689693
   4.0657032  34.5142841  48.5846138   4.6145731  34.2769098  47.1941519
 102.8731918  10.8653271  38.3924389 102.9870224  10.8658385  39.3428445
 101.9246578  10.8504248  38.2648277   0.5236259  36.3932037  61.4983845
   1.4569336  36.5319705  61.6593552   0.4264199  36.4933515  60.5514145
   8.1312281  79.4563389  44.2531967   8.4172571  80.3517056  44.0722799
   7.1769947  79.4916868  44.1867065   9.3990403  61.8568850  56.3521481
   9.3545461  62.6094675  55.7623386   9.4303930  61.0977840  55.7698965
  79.7597456 103.9362049  27.0776248  80.5745220 104.4374657  27.1109009
  79.2974949 104.1768932  27.8805089  16.0843170  24.3066812  46.1788607
  16.9027960  24.5883656  46.5874910  15.5361962  24.0236735  46.9107771
  23.8163042  50.6922817  78.3233976  23.7258863  50.9166098  77.3972559
  24.3893695  49.9256086  78.3292913   9.9991602  30.0064898  76.6380692
  10.3449512  30.8340144  76.3036060  10.4126298  29.3365908  76.0935402
  94.7039318  33.3046389  67.2380066  94.1732025  32.8949618  67.9211855
  94.2254639  34.1012597  67.0084429  15.7808757  29.3204093  61.2616587
  15.3014338  29.9250722  61.8280077  15.8614945  28.5197210  61.7799568
   4.8794797  10.1238799  77.9436493   5.6089246  10.5448782  77.4887848
   5.2941406   9.6078169  78.6350012   5.0499439  56.6788197  35.9011412
   5.2900708  57.5838566  35.7024360   4.7310051  56.7081738  36.8031669
   7.9062766  13.3658385  62.3840427   7.7706224  14.0168607  63.0725193
   7.2995299  12.6579678  62.6008558  12.5169849  50.5922604  32.5354910
  12.4739134  51.4576101  32.1286178  12.9274487  50.0363350  31.8731499
  18.0849171   1.9242713  14.0921128  18.1351817   1.3968587  13.2949042
  17.6358771   2.7251390  13.8215458 104.3905830  39.3816090  58.3332634
 104.8069286  39.7793484  57.5686169 104.2334652  38.4733677  58.0751038
 115.3894234  25.7542944  65.8546829 114.8233032  26.1931300  65.2197313
 116.2781048  25.9762812  65.5768299  95.2039146 103.5560703  45.6104279
  94.4676971 104.1237068  45.8384752  94.7969246 102.7745056  45.2366018
  91.2241459 104.5206070  80.9523392  91.4903164 103.7104893  80.5175018
  90.3136539 104.3685341  81.2055588  44.2757368  61.0691404   8.4848398
  44.1853952  60.3692293   7.8381616  45.0960302  60.8727169   8.9373553
  87.4760246  70.4548264  61.6936111  87.9666138  69.6384668  61.5981770
  87.1825981  70.4528141  62.6047230 107.2301483  35.2514219  38.4732175
 107.4010849  34.4107080  38.0487013 106.6133595  35.0442123  39.1752672
  97.7670574   4.5386523  43.2592630  97.9010677   3.6921179  43.6854696
  98.3632469   5.1331335  43.7146568  54.8238182 105.3022957  34.8687792
  55.1633167 105.9938717  34.3007207  54.1699457 104.8523331  34.3337846
  13.1521559  69.1531086  45.9009504  13.1235719  69.4572639  44.9938059
  13.8288748  69.6905661  46.3125563  32.9037094  40.9111786  69.8816490
  32.7016544  41.1361790  68.9734745  33.0953574  39.9736309  69.8591709
 102.6042271  57.3408842  29.5051908 103.2558727  57.8795338  29.0563583
 101.8183899  57.8868389  29.5302558  11.2441254  52.2339487   4.9040768
  10.3052020  52.4104738   4.8449752  11.2988639  51.3336754   5.2246213
  75.7581484 111.0545821  41.5842199  75.6810724 111.9080505  41.1577463
  75.3871691 111.1882943  42.4564219  48.7039852  54.6244764  23.2199430
  49.0048027  55.5322790  23.1794310  49.4930458  54.1191959  23.4156537
  29.3409061   3.1614286  37.5108814  29.8277998   3.8732329  37.9262137
  28.8573456   3.5842103  36.8011951   1.8985134  16.2723589  63.9036417
   2.1143515  15.6947470  63.1715155   2.7413955  16.6291559  64.1837788
  37.6608706  39.7236347  83.7771511  37.8326821  38.9282560  84.2812252
  36.7899585  39.5873284  83.4041023  98.9395046  11.1043358  80.8951855
  99.0195084  11.4816570  81.7712307  99.3552208  10.2450085  80.9656334
  27.4167895   6.9007707  53.7169170  26.6265559   6.6701603  54.2053604
  27.2801423   7.8116852  53.4565449  22.6661086  23.1301570  25.1401567
  22.2162008  22.3931336  24.7271061  23.2509851  23.4651017  24.4604802
  29.9155402   0.7997194  31.2061095  29.9458194   1.7446578  31.0564208
  30.7820010   0.5839645  31.5509677  92.0342159  99.2527771  65.1286221
  92.8588867  99.2732811  65.6141329  92.1833515  99.8287392  64.3787766
 110.5340576  42.6065111  52.9278326 109.8259258  42.0340347  52.6327705
 111.3225651  42.2359896  52.5313473  93.6583328  24.1627765  70.7261515
  93.2922554  23.5797334  70.0611115  94.3130589  24.6799827  70.2570438
   0.5672438  32.5398135  63.0792236   0.2939747  33.0337715  63.8522434
   1.5112415  32.6875353  63.0219650  86.5506744 105.4260159  36.6521168
  87.4946690 105.3502274  36.5129900  86.4047337 105.0443363  37.5177121
   4.5770428  34.4758701  15.2239120   4.2036617  34.7118974  16.0730934
   5.2348524  35.1505589  15.0556433 115.5389118  18.7614107  49.6461582
 115.2760696  18.2679498  50.4231024 115.0102139  18.3931053  48.9382982
  32.8170681 109.0268612  78.6635971  33.3957171 108.8329506  79.4010210
  32.7878189 109.9829197  78.6270571   7.7466840  34.8222542  68.0464125
   7.6565635  35.3063941  68.8672161   6.8720704  34.8442698  67.6580858
  44.0162230  53.5608721  37.9614186  44.8244190  54.0640259  38.0608273
  44.1353941  53.0750370  37.1453333  18.2013190   8.5673475   9.3221086
  18.2890487   8.0791330   8.5034621  17.2672534   8.7675655   9.3826556
  21.9017816  39.1835380  63.0992317  21.0669661  39.6513867  63.0784512
  22.4582624  39.7118926  63.6714268 117.4520302  57.9328156  35.3999162
 117.3989010  57.0337629  35.0757027 117.2317219  58.4741974  34.6418905
  44.1688299  14.5473540   3.2683343  43.8139439  14.6199751   4.1543442
  44.8396826  13.8677394   3.3339900  33.0649519  51.6969776  33.9531755
  33.9382553  51.7039490  34.3449998  32.5161886  51.2521124  34.5990729
  22.4974203  17.6245689  60.7444096  22.4685216  18.2121921  59.9893665
  21.5816379  17.5222099  61.0034370   1.5205072  57.7338791  48.2736349
   0.6406058  57.9393101  48.5895491   1.9622074  57.3471403  49.0296507
  33.2932496  23.3570528  48.6205101  33.0313230  22.6053476  49.1520834
  32.5923634  23.4499621  47.9752541  49.8013353  42.4476671  17.4636984
  48.9471722  42.1362066  17.1643162  50.3858042  41.6997862  17.3399901
  22.0035553  38.0536246  16.3305008  22.8785133  37.7441978  16.5648866
  21.4522266  37.2726822  16.3794959   7.6223016  47.8488970  21.3100171
   7.6029396  48.6286020  21.8649197   8.3199918  48.0220079  20.6779647
 103.3094120   7.1583235  34.0338421 102.5534916   6.7670238  34.4716692
 104.0532398   6.9319719  34.5921612  21.3301325  38.4049201  38.0864286
  21.9426417  38.1755853  38.7853360  20.6043720  38.8374257  38.5363650
  15.2032197  25.5241632  66.9754744  14.5327854  26.2067986  67.0030069
  16.0294116  26.0025358  66.9061947  23.3879066   8.6122370  31.0387754
  22.8798699   7.8686279  30.7144666  22.7739906   9.3464828  31.0238528
   7.8778446  47.6953840  67.0053673   8.0780262  48.4781122  67.5186920
   7.5588995  47.0622587  67.6485300 112.4938011  31.0187292  42.5947905
 111.9368267  31.4226198  41.9292879 112.6963425  31.7305923  43.2017994
  25.1659703  18.2664180  52.2870684  25.4698777  17.3742306  52.4540281
  24.3834567  18.1557727  51.7470121   1.3106619  40.5589771  53.7568855
   0.3928362  40.7560635  53.9439011   1.2774359  39.8427248  53.1227636
   3.2191119   5.8523691  63.4351492   3.6986434   6.4524120  62.8639841
   3.7857252   5.7446355  64.1990662  34.1363835  51.9592857  51.3490057
  34.4470048  51.0828543  51.1218119  34.9205756  52.5072098  51.3165617
   5.8798671  17.3968029  70.6383991   6.0773605  17.9701209  71.3790321
   5.9188944  16.5125859  71.0029125  25.4754162  30.1640773  42.5980234
  26.3902283  30.3878570  42.7691078  25.1716709  30.8424234  41.9948530
   6.0290956  53.4153080  24.8512506   6.8732679  53.4445763  24.4009733
   6.2348127  53.0812883  25.7243705  13.1769860  26.3461041  38.6358738
  13.0429780  25.9774685  37.7627301  12.8060591  25.6942201  39.2305946
  38.7622190  42.5837708  59.2413759  39.6668124  42.2757864  59.1858149
  38.3339930  42.2092676  58.4715700 109.1461086  20.9440589  60.4728699
 109.4750214  20.7649922  59.5919704 108.5371304  21.6734838  60.3574705
  65.9561682  37.2949886  64.2329025  65.6235361  36.7302942  64.9305487
  65.8576345  36.7742586  63.4358072  11.9546723   8.6305225  59.6890211
  11.6819572   9.4632810  59.3038321  12.1076930   8.8323051  60.6121111
  21.5659237  12.9304028  61.9044495  21.0831261  12.1616387  62.2079945
  22.3645329  12.5735807  61.5156937  36.0989189  29.8712039  60.8722830
  36.5143800  29.7049713  60.0261211  35.4459000  29.1767430  60.9590244
  17.4141359  21.5747881  68.7184668  16.9940114  22.4151158  68.5352278
  17.4455357  21.1326671  67.8700686  49.2868233  29.6997881  44.0295649
  49.3543482  29.2666268  44.8804712  48.3817577  29.5506001  43.7560129
   6.4870673  37.7554846  56.8434048   7.2536153  37.8075218  56.2725019
   6.7302644  37.1164513  57.5132751 107.3658371  18.5291421  56.8740749
 107.1089935  19.0979099  56.1482906 107.2448444  17.6414239  56.5371084
 109.3177891  38.8771605  46.4816570 109.6514225  39.5249200  47.1024084
 110.0146389  38.2238889  46.4194870 105.9742260  94.9544716  64.0282249
 106.4582729  95.1466465  64.8313427 105.0647736  95.1641464  64.2407227
 113.6724567  43.2286167  35.1361346 114.5818520  43.2575130  35.4334569
 113.1566238  43.3805084  35.9280181  22.5264907  21.0795331  32.3882127
  23.0683160  20.2937484  32.3161077  22.1922803  21.2221026  31.5026569
   6.0476643  26.4163256  54.5776987   6.2226677  26.9061112  55.3812647
   5.3420484  26.9017100  54.1502190  93.5677147  65.4637146  41.2358570
  93.7878895  64.6421432  41.6749144  92.6604462  65.6346893  41.4885950
   4.3529281  16.8866408  38.5519338   3.7198967  17.5652111  38.7865520
   5.2048320  17.3155141  38.6329150  18.2035422  34.0775323  50.6741810
  17.2904885  34.0731978  50.3868723  18.7075138  33.9367652  49.8726654
  16.2466598  48.8023663  44.4285154  16.2812281  48.0213785  44.9808693
  17.0546281  49.2743254  44.6301985 100.4866123  60.1947689  78.7396908
  99.9245358  60.3806877  79.4918442  99.9346161  60.3731346  77.9782963
 108.6913967  71.6494083  33.8334465 109.3653965  72.1794367  34.2589211
 109.1528130  70.8621502  33.5443926 114.9942780  32.1413326  88.5942650
 115.4537106  32.8484154  89.0472412 114.6321774  32.5545192  87.8104305
 111.8091583  15.4641080  70.7422495 112.4762917  15.8893573  71.2810612
 111.0141182  15.4982150  71.2742186  99.7347069  63.1801748  70.6856823
  99.6196270  63.2049513  69.7357512 100.1467705  62.3329592  70.8550119
  20.6155038  24.7734523  76.7608690  20.7587743  25.0608325  77.6626015
  19.7017193  24.4890404  76.7424536  99.9159336  54.4993877  66.2682676
  99.0982151  54.2271376  65.8517981  99.7654629  54.3625736  67.2036171
 107.5654793  48.4509039  43.3295536 107.6971531  48.1726551  42.4232054
 107.4562073  49.4002914  43.2751656 100.1108932 109.1931248  67.0039129
 100.4733276 108.6151218  66.3325167 100.8415508 109.3545628  67.6008320
 112.4993324  34.6342182  63.0602264 112.8090763  35.0305247  62.2458363
 111.5642452  34.4894671  62.9156542  17.8033900  35.1680899  87.3133469
  17.0645487  35.4856730  86.7942238  17.8124595  34.2227006  87.1637154
   7.4682784  19.4863248  32.8946257   7.5308114  20.1481271  33.5833478
   6.6737366  18.9958286  33.1052136  71.2793493  67.5466585  65.7525158
  71.7649794  68.3710623  65.7798815  71.9517088  66.8698978  65.8310223
 114.5667076  31.4403677  53.1804562 115.2108288  32.1258903  53.0032730
 114.4644642  31.4479780  54.1321516  12.4484062  35.3576064  24.9516034
  12.2101319  35.0253248  24.0861297  12.1799493  36.2762856  24.9376988
   8.9869118  54.4196939  29.9200654   9.7888058  53.9625740  30.1735187
   9.2670476  55.0389338  29.2460513 109.6536160  23.9668417  17.1627605
 109.3246746  23.7392521  16.2931442 109.5231152  23.1741691  17.6832128
   9.2872828  38.7360644  47.3672581   9.9847525  39.0668774  46.8012810
   8.8308907  39.5214915  47.6689863  17.7993000  21.0009742  15.3235233
  17.7843547  20.3722334  16.0451126  16.9095218  20.9823322  14.9711335
  18.4348011  16.0869455  35.1887059  18.8625896  15.8436799  34.3677020
  18.7882543  16.9520593  35.3957844  28.3330703   9.8238015  89.5957184
  29.2581177   9.6904367  89.8024368  27.8663540   9.2557871  90.2087212
 117.9182585  35.0828147  78.5198116 117.2238299  35.5033064  78.0126715
 118.1619831  35.7337809  79.1778946   7.6916140  19.2184567  65.9698296
   7.3630166  19.5828211  65.1479483   6.9216835  18.8283443  66.3836527
   7.3453015  53.3697939  42.5271654   7.1297568  53.9444685  41.7926407
   7.8972930  53.9057541  43.0966234   2.4408241   9.8850477  41.5898848
   2.6508081  10.6117868  41.0033798   1.4856815   9.8954785  41.6517353
   2.6328534  34.7858000  23.0662060   1.9393408  34.4066715  22.5262666
   2.1869756  35.4401183  23.6040664  30.8935761  38.8272548  72.4285555
  30.6946898  39.5874691  72.9751396  31.8326044  38.6853337  72.5481892
   9.0995443  26.3942242  19.8975551   8.7800026  25.7396412  19.2765522
   9.9756527  26.0909271  20.1356244  34.2028904  34.3506813  52.2856569
  33.4437561  34.9315906  52.3355389  34.9393773  34.9341536  52.1029568
  11.3546836  39.9979162  78.7647772  11.7348158  39.7480011  79.6069622
  11.5197265  40.9383488  78.6971283  78.5439539  97.9450989   4.9685934
  77.7514124  97.8189278   4.4468758  78.4605885  97.3174381   5.6864589
 103.9510536  66.2182093  48.4935617 104.4304657  65.7858753  47.7868271
 104.6208382  66.7032623  48.9755821  14.8315561  37.7935266  63.3915949
  15.5690873  37.2207713  63.1812811  14.3039918  37.8076911  62.5930262
 113.7510777  73.9096022  52.9471779 112.9411221  74.3114233  52.6329422
 114.1455555  74.5750523  53.5109043  34.2386079  28.7922478  49.2293739
  34.1378665  27.8993154  49.5591593  33.5267282  29.2815900  49.6416903
  11.6511810  43.1525707  54.4362974  12.2065067  42.3806953  54.3265057
  11.0229874  42.9013252  55.1134109 110.4489517  57.4338818  68.9511108
 110.9245014  57.2857380  68.1337118 111.1290646  57.6559591  69.5870113
  95.1531506  30.0348759  51.6205120  95.1932049  29.0818834  51.5403080
  95.3160477  30.2042007  52.5484276  42.1070528  17.9268467  41.3043547
  41.8853807  17.6213837  40.4247046  42.5002575  17.1651900  41.7303848
   6.5236628  33.4526587  52.8413200   5.6442410  33.3719754  52.4720764
   6.9266748  32.5978756  52.6891375  19.0270340  34.2018867  20.5657148
  18.8805270  34.4566989  19.6547592  18.2268798  34.4658732  21.0199142
  22.4996305   7.4914974  34.8855567  23.0920053   8.2073987  34.6557498
  22.3919177   7.5647897  35.8338475   1.2100874  21.6447020  40.4781342
   0.2588927  21.6232848  40.3732538   1.3836276  21.0537362  41.2108564
 106.1363983  25.5839014  77.4441576 105.5233574  26.3114786  77.5492144
 105.7108974  25.0010777  76.8152761  83.5480881  17.4250901  49.4924593
  83.0647469  18.0742943  50.0034809  83.0899525  16.6009986  49.6574354
 116.0671806  22.4473834  69.4234800 116.9151020  22.8915262  69.4251108
 116.2618828  21.5606046  69.1202497  31.7644095  45.8802128  51.5303230
  31.9866490  46.8108654  51.5573931  31.0887909  45.7757187  52.2002888
  15.0181806  79.9014616  68.2568121  14.4089985  80.0404072  67.5316763
  15.1877797  80.7792950  68.5986948  19.7964883  44.3059397  48.1275320
  19.0478361  44.0821314  48.6804008  20.1135635  43.4637642  47.8012896
   8.8304675  84.9959946  48.6135769   9.5136619  84.3302059  48.5348463
   8.9459038  85.3547478  49.4934654   3.0123177  61.4896107  10.6564176
   2.1103923  61.5512609  10.3418362   2.9327872  61.1439466  11.5454745
  29.3738770  54.8011494  76.7088509  28.7705946  54.3775558  76.0982370
  28.9275050  55.6080437  76.9655704  16.1601865  34.5830393  63.1240129
  15.2205503  34.5609283  63.3051920  16.5205503  33.8614845  63.6395025
 114.3187046  62.8950977  46.5864611 114.0295029  62.1178627  47.0644760
 114.1597557  62.6834679  45.6665802  23.0355716  26.1188221  77.8499937
  22.7263665  26.9279122  77.4425697  23.4536648  25.6361699  77.1369171
   5.4381418  26.1396575  35.3350019   5.0761640  26.9013429  35.7878160
   6.3345724  26.3945103  35.1166129  74.7631168  56.6760159  12.3626876
  74.7170496  56.4266014  13.2856727  74.3806267  57.5529432  12.3321748
 104.8606682  38.3392453  70.2792788 105.2271366  38.2144713  71.1546993
 105.1715279  39.2037320  70.0104713 116.8989277  67.8113556  15.0525522
 116.3946819  67.6927900  15.8574820 116.2789536  67.6144266  14.3503487
   5.6993020  63.8851309  19.9398708   6.0743499  64.2521429  19.1393244
   6.0858756  64.4040155  20.6452417  13.7208378  15.7120514  21.4986253
  14.1280544  14.9552453  21.9201112  12.7967155  15.4748023  21.4215302
  49.2843246  14.2523396  62.7293015  48.8882494  14.9247861  62.1750736
  49.1517591  14.5695901  63.6226177  13.1305373  60.4707384  40.6168747
  13.0454469  59.8352242  39.9061608  14.0590537  60.4482841  40.8483601
  23.4401917  28.9608645  28.9003944  23.9530110  29.4837928  28.2841182
  24.0913701  28.5721445  29.4844270  28.1609273  61.9144583  65.8540106
  28.0693626  62.3827076  65.0241947  28.8436675  61.2643957  65.6881332
  10.7153392  27.4746966  63.8725090  10.6263137  28.4192729  63.9993238
  11.0897362  27.3849249  62.9961491 108.8977909  72.1166372  53.3760309
 108.3185196  71.5403605  53.8746166 109.7781086  71.8870926  53.6736679
 113.1056881  35.3451324  15.2636147 113.7949657  34.8025012  14.8806262
 113.3529186  35.4318810  16.1842585 115.0238895  48.5775661  67.5699186
 114.3013763  49.2021132  67.5054789 115.4854107  48.8270044  68.3705473
  12.1908903  66.8653345  47.0357275  12.2778773  67.6572037  46.5050602
  12.1133256  66.1564445  46.3972235  43.1830168  48.8063192  27.1675611
  42.6930618  48.0107212  26.9597244  43.9150000  48.8048267  26.5507722
  36.1195326  53.1945181  70.1044035  35.1781034  53.2436848  69.9384975
  36.4873123  53.9323187  69.6179676   4.6992192  19.6161175  46.2237597
   4.8004943  19.7745979  45.2852201   5.2489752  18.8522375  46.3983679
  17.6968384  16.9763160  62.7635431  17.7604175  16.2249422  62.1739483
  18.5469449  17.0091128  63.2022667  10.9697771  79.2365360  26.6397905
  11.2108827  78.9639282  27.5251079  11.4802480  78.6652899  26.0659146
   7.5932854  43.3431244  82.6979828   8.4779167  43.1288576  82.4017620
   7.7002412  43.5816622  83.6187935  16.9533432  19.3045068  24.8200250
  16.4394641  18.4970450  24.8328924  16.3253820  19.9841774  24.5751905
   2.4718018  81.3462830  55.1021385   1.8030657  81.1444569  54.4477034
   1.9981453  81.8078709  55.7941055  24.2326117  44.1949081  64.6519423
  23.2993746  44.3103600  64.4731426  24.6223950  45.0452089  64.4487429
  29.8037601  89.6985435   2.5595972  29.5758224  90.6259155   2.6247793
  30.6209660  89.6872139   2.0613250   2.2306791  43.9205408  62.9523182
   2.5157815  44.7768831  63.2711029   1.4427157  44.1054010  62.4412680
  17.1076691   4.0616140  86.8362617  16.1647916   4.1027501  86.9960213
  17.2819209   4.7912851  86.2417507  53.4243250 102.4182987   2.0844379
  53.0319500 102.0624447   1.2871695  53.4016132 103.3670712   1.9596963
 115.2810764  73.2318497  38.3918643 115.8321857  72.4599266  38.2628727
 114.9482822  73.4372425  37.5181985  15.3821492  56.5024328  25.0933456
  14.6923757  57.1017647  24.8083067  15.5033350  55.9074545  24.3533802
  56.6445398  35.3158832  63.7656260  56.2483025  34.6104026  64.2770195
  57.4923611  34.9660683  63.4916496  88.7137032 108.5994625  57.1635103
  88.4367561 108.1828213  57.9795599  89.5488167 108.1818390  56.9527626
  13.9656067  24.9200106  62.0691824  14.4516051  24.6903062  62.8611898
  14.2822659  24.3054509  61.4071608  38.5217118  39.7622991  47.3506784
  39.1454887  39.0980935  47.6438761  38.3653498  39.5540261  46.4295864
 108.0516338   6.6864032  41.0794687 107.6400471   6.7333394  41.9423866
 108.5847664   7.4795163  41.0249376  35.3438139  61.2211227  24.5647788
  34.6064854  61.0303450  23.9849663  35.6397724  60.3622532  24.8664212
 105.1120186   7.6608956  76.8950939 104.4561195   8.3453155  76.7624569
 104.6041012   6.8853366  77.1333313  20.5216241  58.0801153  62.1848726
  20.7135677  58.4008837  61.3036823  20.8234572  57.1717596  62.1801376
  24.2395473  15.6761265  22.6197076  24.5443487  15.5334389  21.7236233
  24.1061068  16.6220903  22.6795340  29.5718193  17.9771924  40.4983997
  28.8432622  17.9119992  39.8809958  30.2291775  17.3703039  40.1581097
   7.4419969  52.3411036  29.1672778   7.7357966  53.1163168  29.6457720
   7.9913402  52.3208427  28.3836699  88.0942249   7.3057598  31.1859655
  87.9410553   7.3929787  30.2451348  87.3832512   6.7433447  31.4932609
  42.0000124  12.8836620  63.8336372  41.7578650  12.0563030  64.2496586
  41.2841415  13.4802556  64.0523529 103.6626816  31.1880970  53.4120703
 102.7882195  31.5495467  53.2674932 103.6914444  30.4040694  52.8637075
 113.5291576  54.1924191  53.0377150 113.0918694  53.9098358  52.2344923
 114.4473457  54.2946577  52.7873039   0.9178451  29.2241073  29.1237688
   1.1524490  28.3062673  29.2607498  -0.0231966  29.2073369  28.9494371
  99.0294456   3.1291714  14.9162436  99.8796272   3.0274779  14.4883502
  98.6671352   2.2435828  14.9426377  14.4261992  44.7880650   1.9412734
  13.6023700  44.3082380   2.0267263  15.0160122  44.1750479   1.5024568
  14.2470062  61.1672449  44.8921394  14.2588401  61.9615650  44.3581486
  15.1050448  60.7684660  44.7473049  91.8952179  19.7766411  68.9451408
  92.2217274  19.7967553  68.0455732  92.4161339  19.0976238  69.3738842
  98.2687569 107.3758125  50.1811790  97.5161743 107.2490120  50.7589197
  99.0297031 107.2417545  50.7461691   7.6404935  68.4084654  47.1192026
   7.2332168  67.6483440  46.7037868   8.4590328  68.0721188  47.4840260
 109.4068623  60.0030279  39.3145323 109.9453735  60.1920319  40.0829840
 109.9052715  60.3595829  38.5792208  15.7817233  61.0411358   2.8198129
  15.1911843  61.7836046   2.9472297  16.0453916  61.0996580   1.9015071
  24.4402409  20.5888796  49.9923658  24.7012568  21.2403321  50.6433010
  23.8813519  21.0703588  49.3824053  51.4217281  83.8074017  96.4883614
  51.9330311  84.5971775  96.3121700  51.4050007  83.3414459  95.6523895
  32.8883100  14.5328236  83.2652378  32.5095892  13.8030243  82.7751350
  33.8057017  14.5538056  82.9928684  49.2405224  53.0771494  35.7967949
  50.0260973  53.1785583  35.2593732  48.5223961  53.0334854  35.1654315
  33.1091046  62.0487833  36.7330074  33.8147283  61.8414116  36.1203718
  33.0397844  63.0030394  36.7043781  12.4516737  33.5119629  53.2191801
  11.5862417  33.1358457  53.3797884  12.4665463  33.6853576  52.2779322
  39.7190166  39.8625207  42.2243404  39.0540051  39.4990611  41.6396284
  39.8169208  39.2054796  42.9135036  10.4408073   0.9187087  58.4021807
  10.6484985   0.2999693  57.7019930  10.9986496   0.6503147  59.1322517
  12.9757071  55.2272415  49.6534967  12.9828370  56.1509848  49.4027281
  13.6964178  55.1429605  50.2777576 111.9776249  34.3631101  39.4168830
 111.8251705  33.8001680  38.6578798 111.4533043  35.1451063  39.2442584
  19.9686468  35.9979606  13.4218609  20.5523396  35.9653997  14.1798019
  20.4871392  36.4224315  12.7383244 114.4164944  42.2564650  65.2233315
 113.5001755  42.3784399  65.4717207 114.8779297  42.9800749  65.6472397
  20.3784919  31.0651660  35.6682348  21.1795402  30.5600429  35.8075356
  20.6830883  31.9125652  35.3436303 117.8627110  17.6033080  63.4310484
 118.6799526  17.2386825  63.7707472 117.3975468  17.9133666  64.2080450
 117.0987415  24.2088819  23.6375690 117.0763206  24.5980215  24.5118093
 117.2671795  23.2795763  23.7932968   2.2176617  43.9433956  50.2000237
   1.6968460  44.5455074  49.6685696   1.6457300  43.1880045  50.3360748
  33.4629273  24.0323782  67.1106386  32.5117111  23.9753532  67.0202780
  33.6084914  24.8375630  67.6073503  29.7460961  41.1871958  23.0105233
  28.8740277  41.0273075  23.3713055  30.0586963  40.3216791  22.7470970
  16.5357506  19.7263134  36.9295859  16.1823523  19.9253535  36.0625672
  15.7630229  19.5848584  37.4765015   4.1493762  68.2087708  11.0542035
   3.6984050  67.9766226  11.8659699   3.8800240  67.5353432  10.4295599
  22.3705626  39.8632526  35.9622455  21.8431163  39.2958879  36.5244985
  21.7827010  40.1043940  35.2463531  45.3468609  29.1972375  13.6861253
  45.3253508  29.8223233  12.9615295  45.3260946  29.7418880  14.4729912
 114.3624115  81.9883060  58.4598207 115.0994015  82.5174332  58.1546831
 114.0196514  81.5753555  57.6672173  92.4531460  21.6465592  36.2330389
  92.9676628  22.4293900  36.4297104  91.9794178  21.8665791  35.4309154
  32.9006195  41.3092375  35.3146625  32.6778936  40.4238129  35.0271773
  33.7681985  41.2217331  35.7094812  35.3445435  65.3508139  25.2717853
  35.0983024  66.1165857  24.7529435  35.8578157  64.8098612  24.6716571
   7.7515095  15.8399582  74.7128487   7.5303417  14.9371886  74.9415922
   6.9064116  16.2850416  74.6500635 116.4124489  33.6166382  90.6141853
 115.9657478  34.4577599  90.5182266 116.3232422  33.4026551  91.5428925
  13.7045574  34.8040533  58.4355450  14.1406643  34.2702293  59.0996790
  12.9931533  34.2508769  58.1128502  34.2327595  18.9575922  15.5664301
  34.1602731  18.9271677  16.5203965  33.5787725  18.3311450  15.2564347
 106.3277721  16.1754608  19.2358744 106.2478065  15.2408886  19.0450513
 106.9940472  16.4886677  18.6241460  36.0114336  17.1534252  56.7574406
  35.1312685  16.9148779  56.4665127  36.5457058  17.1103764  55.9643888
   6.4194578  87.6636982  56.4380884   6.0156727  87.0702648  55.8048201
   6.6603684  87.1008778  57.1739101  95.2149105  98.8771629  19.2084467
  94.5891094  98.1825829  19.0031254  95.9994030  98.4137154  19.5017421
  29.9789810  39.8607016  51.0841179  29.9211264  38.9843774  51.4648294
  29.2699361  39.8900652  50.4417610  22.1694088  48.6151361  29.0518332
  21.4185715  48.2539511  29.5230222  22.6645112  49.0907764  29.7188187
   0.3346716  31.4379787  51.1677837  -0.4153741  31.7216706  50.6451273
   0.2957617  31.9794297  51.9561672  34.6983695  40.2293634  46.1727619
  33.9447856  40.7387352  45.8746338  35.4509163  40.6480598  45.7549143
 115.3802299  26.9804120  11.6820991 114.5942211  26.4430833  11.7805576
 115.5093575  27.0448089  10.7358360   8.8750327  69.7707748  44.8603249
   9.3199307  70.2809572  45.5370903   8.2821405  69.1961050  45.3445387
 112.2818851  45.8929729  43.8923264 112.1101379  45.7401180  42.9631472
 111.9282150  46.7663479  44.0607548   0.8997884  18.4403312  15.7370627
   0.0133031  18.2896101  16.0651767   1.4465506  17.8344393  16.2372398
   9.0649635  44.7327471  39.6944475   9.7811258  44.5159578  40.2913952
   8.8621843  45.6483603  39.8861814  82.5523472   5.9303719  21.8949437
  82.1737194   6.7943990  21.7326832  83.4163570   5.9665847  21.4845634
 118.2613230  30.4630327  12.5544107 117.5626242  30.3808165  11.9053400
 118.2037098  29.6595335  13.0714202  19.3524587  24.6792960  14.5922256
  19.6054637  25.3237104  15.2532482  19.3424141  23.8454461  15.0621426
  95.6289768 108.5391808  72.5546455  96.4512920 109.0179157  72.6587820
  95.4068089 108.6431599  71.6294098 111.3865471  23.9677954  58.9806414
 111.1879253  24.1944170  59.8891687 111.3198471  23.0133581  58.9517879
  92.7878380 108.6788940  20.6559014  93.6143875 108.2830334  20.3795958
  92.1438694 108.3519173  20.0277162   3.5455281  53.5011482  44.3518209
   2.8637722  53.3598852  43.6949492   4.3058810  53.0283451  44.0133667
  14.7841215  48.0970001  42.1530056  15.2643883  48.4030437  42.9223633
  14.1074967  47.5198412  42.5069809  22.2173405  44.2527485  40.6780529
  22.0465422  44.3286705  41.6168261  23.1430912  44.0160847  40.6214094
  23.1500387  43.4033489  61.5020800  23.8668609  44.0333414  61.5763044
  23.3315063  42.7530193  62.1805906  20.8090162  56.8102741   7.4873239
  20.6409359  57.0617676   8.3954704  20.7648420  55.8541012   7.4914938
  10.4317665  58.0231714  13.4434021   9.7043180  58.5095882  13.0555248
  10.2970409  58.1033421  14.3876767 109.8419857  76.7105627  34.2744756
 110.0120449  77.6009989  33.9671683 110.3774929  76.1552572  33.7078142
 109.9507713  44.1680431  44.3786383 109.1134262  44.6012259  44.5443058
 110.5877495  44.8818636  44.3477774   1.3105552  50.6286097  35.6934166
   1.8406540  50.0553131  36.2470961   1.0321979  51.3345718  36.2768269
  26.4612794  64.9120522  18.8820124  26.1075830  64.9959850  17.9965258
  27.2933149  64.4534874  18.7651098  42.4058723  40.0298882  54.5405769
  42.0867729  40.6769466  55.1696396  43.1025028  40.4819107  54.0645456
  12.4110985  51.4202738  36.7327762  11.9518316  50.6607580  37.0911622
  11.7351878  52.0933819  36.6533995  10.9678471  34.7468781  43.7407064
  10.9182405  33.8142037  43.5312080  10.7541001  34.7947574  44.6725035
  12.9310572  45.2518082  53.5380983  12.4583745  45.9199619  54.0344572
  12.5209057  44.4264746  53.7966108  10.7258356  46.7505217  72.0952463
  10.0345159  47.4121523  72.0717335  11.2183118  46.9469070  72.8921938
  32.6313686  73.7007093  62.4956846  33.0747581  74.2567635  63.1363392
  32.7576184  74.1503763  61.6601658   9.6658766  74.9513817  34.1315770
   9.4379920  75.5147934  33.3920717  10.1100767  75.5334139  34.7481465
  15.8494294  55.4969406  34.9144840  15.9955788  55.9517145  34.0849948
  16.7054999  55.4987621  35.3427029  26.1562634  52.1593332  41.7897129
  25.4887390  52.5882292  42.3251486  25.6598234  51.6825962  41.1245060
  42.5330973  67.5548553  37.5071001  42.8635740  66.7082071  37.8074455
  43.2320070  67.9017591  36.9526458  33.0963540  28.4568715  16.4035475
  33.3375478  28.4189820  17.3290873  32.1877646  28.1566095  16.3803256
  19.3168628  97.5914192  63.6315775  18.3725011  97.4576283  63.5508919
  19.7017944  96.9446278  63.0402136  24.3534732  63.9258480  60.8846998
  23.6331296  64.4779301  60.5805016  24.8992133  63.7953520  60.1092196
  18.5564923  30.9551811  57.8527546  17.7082598  30.7587051  58.2504082
  18.5957897  30.3903508  57.0809698  36.2268043  61.1512327  49.3815994
  36.3458252  61.8837070  49.9862051  36.9221449  60.5350780  49.6119928
  28.7357998  41.5015507  64.8860025  29.1394877  41.7073631  64.0428495
  28.3425117  40.6381893  64.7588634   8.5419458  45.7513952  16.0279334
   8.5528737  44.9853373  15.4541111   9.1045499  46.3884783  15.5876708
   8.0881763  42.5434542  53.9471912   7.3293751  42.9569721  54.3588400
   8.7500870  42.5158548  54.6380901  14.2734528  40.1191473  42.0830250
  14.3655920  39.8117304  41.1812305  14.0537584  39.3329167  42.5828314
  32.8996539  46.6740036  37.7186704  33.8191319  46.4818192  37.5346708
  32.9081821  47.5592661  38.0826330  15.2327836  62.9377556  39.3429399
  16.1793196  62.8023100  39.3871713  14.8584652  62.1274233  39.6885943
  93.0521011  30.9670305  34.3567348  92.7738857  31.8458748  34.6145368
  93.2104683  31.0325456  33.4150028  40.9029770  63.6787462  37.5635839
  40.1894474  64.2624903  37.8211761  40.5021572  62.8100872  37.5318193
  94.4593906  86.9544315   8.5324633  95.0225163  86.2511349   8.2092100
  94.9610901  87.7543259   8.3753580  33.2263303  40.9838152  40.5064058
  32.6301312  41.3037395  41.1834764  32.6509070  40.6860256  39.8018193
  24.8274612  60.4795742  34.1508961  25.2020526  59.6841097  33.7725425
  24.5080400  60.9758139  33.3972740  58.1213093  97.1903515  26.5177560
  57.3471165  97.7107906  26.3032699  58.0813551  97.0820045  27.4679637
  31.2596703  55.8031559  55.7431316  30.7194614  55.5450296  54.9962902
  32.0815277  56.1005735  55.3528452  20.5845857  60.9883404  69.4218636
  21.4929700  60.7591629  69.2255259  20.0879669  60.6638002  68.6706781
  37.5635076  49.8330450  57.6229668  37.6204062  48.8807535  57.7012873
  36.8634534  50.0816107  58.2265997 106.6516304   1.3459021  73.2899141
 106.5569305   1.9207169  72.5304031 105.8307648   0.8546150  73.3223009
  30.6566000  61.1753607  51.5401411  29.9212003  61.6952085  51.8644476
  30.5530024  61.1814213  50.5885839  27.9464984  60.6636906  47.2284603
  27.3003221  60.4055643  46.5711451  28.7673473  60.2787209  46.9214773
  33.6797595  58.6059904  46.1432028  33.0727530  59.2370844  46.5298462
  33.5272598  58.6735010  45.2006435  34.2770958  33.7512779  78.6141348
  34.9343967  33.5437536  79.2783070  33.8772941  34.5657587  78.9191151
   4.3600547  43.7180042  48.4821224   4.9378735  43.0586338  48.8662863
   3.6782876  43.8518667  49.1405344  11.2305641  28.2003593  68.5954475
  11.3701355  29.1026545  68.3080149  12.0737970  27.9321146  68.9604616
 115.0156975  51.8143320  16.7272067 115.4534435  50.9654856  16.7910087
 114.3185043  51.7740870  17.3818314  44.8354959  29.9463630  34.5700288
  44.9951267  29.9143410  35.5132818  44.0433550  29.4241738  34.4433022
   4.9685949  79.4093466  50.4147911   4.5839465  78.9062166  49.6970654
   4.4386601  79.1807890  51.1784410  13.3172870  57.8833675  39.3523908
  13.2978451  57.1988440  38.6835957  12.6480818  57.6200819  39.9841166
  17.8577280  63.8295031   9.4473159  17.0227408  63.7915945   8.9808494
  17.8036332  63.1248522  10.0928938 107.0594120  63.6993694  55.4321623
 107.2795582  62.8159904  55.7278061 106.1024952  63.7146282  55.4148340
  37.5075698   3.7766740  51.0641193  38.2001972   3.9094689  50.4169226
  37.8583980   3.1126073  51.6575527 117.3552560  46.3991451  43.9896631
 117.5077773  47.0149660  43.2729101 118.0895204  45.7870913  43.9399052
  27.6186967  52.8819704  30.8864403  27.1386194  53.7077665  30.8246827
  28.5139084  53.1411076  31.1047888  33.6852694  67.0174885   6.4887017
  32.7407742  66.9952726   6.6425478  34.0600729  66.5435505   7.2310865
  36.1564422  82.8513241  58.9865828  35.4544568  82.3342896  58.5914516
  35.9675789  83.7521076  58.7236452 115.8197212  70.7954454  27.4672818
 116.1464787  71.6825151  27.6175356 116.5956593  70.2393389  27.5372076
  37.2515082  38.1182122  63.4975433  37.3479986  37.1711254  63.5972834
  36.8101907  38.3997178  64.2989349  45.9741354  42.1191359  44.4474888
  46.3230562  41.6918468  43.6652470  45.4213190  42.8235483  44.1092110
 113.0846691  56.8092108  83.9020729 112.8586483  56.1910582  83.2070637
 113.9111996  57.1986580  83.6167622  37.2440124  34.6057844  68.5656500
  37.3064733  34.0734029  69.3586826  37.4844933  35.4876804  68.8496542
  30.3041935  82.4574566   8.8285208  30.8881998  82.9622650   8.2625318
  29.8732138  81.8396854   8.2378936  11.4234722  33.2047582  59.4916916
  11.3341963  34.0044904  60.0100470  11.2087286  32.4988723  60.1014805
  24.3432212  58.3507156  47.4937439  25.2317929  57.9948139  47.4960804
  24.3213487  58.9451933  48.2436466  15.4558039  63.4045219  77.5638485
  14.9471807  62.6567698  77.2501659  15.5367482  63.2605362  78.5066891
   2.2086962  32.9299235  41.5632629   2.8440639  33.4948635  42.0030117
   2.7352262  32.2242379  41.1877537  19.7093832  29.6904206  62.3921919
  19.2136729  29.1841888  63.0358028  20.2400756  29.0395975  61.9328165
  42.2007275  43.9286184  35.7460880  42.4605274  43.3445501  35.0336242
  41.8250179  44.6910286  35.3058577  37.4967360  48.9608431  11.1271310
  37.8815651  48.5257101  10.3663445  38.0238199  49.7514200  11.2429190
   9.0702963  58.7172747  19.6112561   8.4237546  58.0697536  19.3303144
   9.7688878  58.6564875  18.9597142  34.6048546  51.6395998  47.9545879
  34.0541840  52.4180412  48.0384016  35.3385592  51.9228554  47.4089909
  35.3949094  71.7694330  20.0698519  35.9255338  71.4755154  19.3293905
  35.4899836  71.0760307  20.7228374  30.0272512  51.4577484  39.3583274
  29.4761372  51.4209270  40.1400900  30.2699471  50.5466604  39.1932487
  63.8436365  44.7294807  14.6616518  63.9005804  44.8803663  13.7181365
  63.5313511  43.8281965  14.7416592  45.3628635  46.7959404  50.3263378
  44.7614622  46.2884665  50.8713341  44.8951530  47.6121759  50.1495981
  29.9446440  20.4601765  84.5429134  29.4559622  20.2730703  83.7414074
  30.8547711  20.5360866  84.2563248  37.0988584 111.2913609  65.8881712
  36.9820642 112.0094681  66.5101957  36.2816310 110.7955456  65.9385538
   6.8074697  65.2343893  31.0054231   7.6993835  64.8879957  31.0325122
   6.7667538  65.8487129  31.7383480  23.6352491  35.6001568  40.5013752
  24.2560291  35.0769901  41.0084867  22.9775620  35.8765697  41.1395597
  31.5333796  47.6569939  33.5885525  31.1931872  48.4674501  33.2095313
  31.1552262  47.6263666  34.4673538 108.4853554  37.8655910  60.9284735
 109.2103100  37.8011847  61.5501881 108.6076355  37.1206474  60.3399658
  25.4655910  44.4362068  54.7843790  25.7390404  44.3765354  53.8690138
  26.0956216  43.8934612  55.2584267  44.8268366 102.7925682  37.8012991
  45.6565475 102.4053574  37.5222182  44.4684887 102.1646404  38.4286189
   5.2837545  53.8677359  36.5709114   5.0550312  54.4849014  35.8759117
   4.5773298  53.2219267  36.5597820  34.4362092  23.2991099  45.7997561
  34.4412470  23.3463049  46.7557812  33.5101509  23.2276654  45.5683565
 112.9259396  87.4071789  52.8524208 113.6659241  87.3112202  53.4519577
 112.3473072  88.0352974  53.2847357  31.1455774  26.7446542  47.5426340
  31.8453097  27.0073009  48.1406546  31.5999556  26.3264298  46.8112946
 102.7555275  46.1376667  63.7745667 102.2319221  45.8434057  64.5198727
 102.1191025  46.5216684  63.1714630  18.2456923  34.6738243  67.9987192
  18.4624183  34.0505362  67.3053408  18.9433253  34.5652127  68.6450481
 115.8118248  77.8705645  35.3704524 116.4247227  78.1627512  36.0451508
 115.3385448  78.6631393  35.1173496  17.8914917  27.3688006  53.7993813
  18.2504320  26.6818357  54.3610525  18.6135125  27.9868603  53.6857224
 108.4207439  41.2128687  19.8144507 107.5511074  41.5733910  19.9875927
 108.9968777  41.9769669  19.7930038 102.5175190  77.1331501  60.4338455
 102.0286465  77.8022528  59.9547386 102.7829075  76.5040588  59.7629929
  43.3749008  64.5237303  38.1474662  43.4728861  63.8504267  38.8207340
  42.5547600  64.3033028  37.7058673   7.7038187  39.2613482  50.4699087
   8.1728464  40.0276947  50.7999945   6.8285024  39.3340230  50.8504009
  16.3215458  84.6471024  82.2835350  15.6938422  85.3637218  82.1904182
  17.1631837  85.0327969  82.0403957   9.4687665  82.5749779  37.0356369
  10.1652002  82.4909019  37.6868987   9.6773595  81.9142056  36.3752508
  37.9590964  74.3959856   6.5779632  38.6455321  74.0734482   7.1619207
  38.3677006  74.4093895   5.7124597  94.6758652  23.8517523  67.7593803
  94.5712185  22.9044223  67.6708126  95.2249241  24.1025567  67.0165014
  64.1682434  80.2983189  51.8763733  63.8710308  80.7626152  52.6588869
  65.0852489  80.0901127  52.0552254  14.4501257  13.6564803  76.0398769
  14.9232590  13.6608386  75.2077961  15.1120543  13.8835156  76.6929722
  37.9893184  57.8544998  48.3984470  37.8580761  58.2321119  49.2681694
  38.7224650  58.3482456  48.0311012  56.6999722  64.3163967  44.7808027
  56.8387032  65.0647736  44.2003584  57.5415564  63.8604403  44.7890472
  35.2576089  50.3186607  68.5658169  35.7035446  50.9281969  67.9777336
  35.1394844  50.8120632  69.3774986  22.5312042  95.3011513  55.0634575
  22.1867251  94.7363853  54.3716431  22.7646327  96.1139679  54.6150589
  45.0302458  42.6749516  48.6790943  44.1881180  42.8353357  49.1049242
  45.6734753  42.7519608  49.3837643  10.7995331  58.0718040  46.9291210
  11.6922319  58.3269453  46.6962576  10.7015312  57.1894646  46.5712118
  16.9100451  50.2554560  31.4661288  17.2857511  49.5013285  31.9204092
  17.2052610  50.1610041  30.5605054  27.3759151  35.3950000  46.1711502
  26.8005133  36.0666895  45.8051205  27.1949077  35.4107571  47.1109486
 109.5546913  59.5438385  59.3022680 110.2078819  59.2650318  58.6605215
 108.8737965  58.8725233  59.2581320  21.8252945  79.5283651  72.4406195
  22.3206639  79.1151571  71.7334461  21.1090398  78.9189911  72.6191473
  27.5437784  90.5780411  89.6481133  27.4017048  89.9233341  88.9644337
  27.4374747  91.4178562  89.2012978  10.9791887  57.8817034   5.4581916
  11.4286256  58.4485626   4.8313701  11.3256299  57.0070839   5.2813917
  21.8661761  66.3849115  59.9933815  21.1571240  66.2987185  60.6306028
  21.4210820  66.5107012  59.1553497 116.6979027  48.8949776  62.0315599
 117.3259640  48.2748270  61.6611814 116.4282894  49.4352150  61.2888050
  17.6864862  20.5201817  66.0651159  18.1579268  19.6974492  65.9344006
  16.7889559  20.2530384  66.2633753 109.5074081  44.9878311  28.2099748
 110.2720642  45.2897358  28.7002611 109.4694233  44.0468121  28.3810711
   7.6151848  51.7084980  61.1102772   6.8944943  51.8722963  60.5019951
   8.4042394  51.7927504  60.5749989  11.9219613  79.7636938  15.9013879
  11.1587930  80.2934551  15.6708276  12.5552893  80.3932762  16.2459958
 113.2921028  31.0091543  28.5841322 112.7635193  30.8028269  29.3550134
 112.8583813  30.5483007  27.8659868  51.5522099  14.7512150  39.2728758
  51.0407066  14.0157318  39.6100116  52.3147678  14.7969747  39.8496294
  26.5132117  46.3480234  69.6352100  25.7429862  46.1534548  70.1691818
  27.1624184  45.6987238  69.9057198  34.7384644  43.5409117  29.4775414
  35.5860543  43.9679289  29.6019626  34.8856163  42.6338577  29.7455502
  11.5115070  54.1980982  36.7654443  12.2556341  54.8000002  36.7804122
  11.3210225  54.0758276  35.8353925 109.0518093  42.5208378  77.4641752
 109.6102238  42.0958042  78.1151390 109.5944405  42.5676012  76.6770363
  20.9909558  27.9859304  67.1418381  20.7547975  27.2009087  66.6476727
  21.2011814  28.6364651  66.4718819  42.3395634  68.4612989  40.2464342
  42.2810888  68.1135082  39.3565726  42.0463562  67.7412128  40.8047724
 114.9613380  35.5856967  69.3788624 114.4976997  36.2810159  68.9121723
 115.7184601  36.0225987  69.7688723  58.7415981  99.1934872   1.3713001
  59.2079115  99.7850800   1.9618906  59.0941191  99.3937111   0.5041970
  27.2482038  52.2233295  69.1660643  27.6595783  52.1971893  68.3021641
  26.8165159  51.3732958  69.2516041  31.7607689  29.9498296  50.8208704
  31.2134719  30.4690742  51.4100075  31.1718249  29.2785525  50.4762459
   2.8597015  54.3490887  46.8376160   3.1793255  53.9963484  46.0071659
   3.6530977  54.5407724  47.3376322  13.9936602  31.6690254  49.4859266
  13.9405429  30.7352734  49.2821693  13.4667480  31.7715859  50.2784395
  22.5782228  56.2468147  48.7058306  22.7927303  55.3332710  48.8946629
  23.4056044  56.7150736  48.8172197  21.8624473  34.0722156  53.2247686
  22.1693897  34.0606594  54.1313505  22.3259878  34.8077440  52.8243208
   8.1758243  46.8189526  58.9355707   9.0790033  47.0124674  59.1866684
   8.1709379  45.8768749  58.7661600  33.1961656   7.3455685  78.9281559
  33.1032276   7.9302901  79.6802855  32.3044395   7.2369033  78.5976315
   8.6902249  25.9197283  51.1875963   8.0085379  25.2644825  51.3365555
   9.1561240  25.9745908  52.0219612  14.1493666  25.8072090  78.3926392
  14.8953700  26.2873673  78.0332518  13.4473252  26.4561343  78.4402752
  23.3485532  62.2984505  41.9497490  23.4388208  61.6896486  41.2166500
  23.1723905  61.7384815  42.7058125  47.5775814  44.7692871  44.2370462
  47.8129244  43.9758396  43.7561226  47.6942444  45.4770136  43.6032104
  39.3034768  48.1886673  52.3977995  40.1181650  48.4214783  52.8431273
  39.5689821  47.9941368  51.4989710  52.6641607  32.3553681  81.3822842
  53.4644842  32.3542595  81.9073677  52.1875048  33.1325650  81.6738224
  30.8022738  43.4879351  49.1140270  31.0565829  42.5939083  48.8853884
  31.3878226  43.7272072  49.8324347 116.3477230  59.3335772  85.8480263
 115.9996319  59.3042707  86.7392159 116.0830688  58.4995508  85.4599762
  31.1228228  51.6257906  42.5632811  31.5117311  50.9182692  43.0774736
  30.2120662  51.3588047  42.4388981  34.4374418  49.2094469  54.0636253
  34.1448164  48.7908792  53.2540560  34.0807033  50.0964689  54.0171480
  27.6230574  41.3163996  74.3887663  27.0970249  42.1159077  74.4064426
  27.0165706  40.6371307  74.0938139  10.6476676  24.8450971  43.0908012
  10.9130478  25.2792263  42.2800350  10.3036702  25.5505610  43.6387205
  37.9381371  59.2026663  39.7388077  37.9750681  58.6360025  38.9682484
  38.2334042  58.6463404  40.4596043  24.6155500  54.4271851  26.7086959
  24.8937702  53.7097883  27.2780561  24.8763657  54.1506863  25.8301997
  45.0230694  42.1779966  53.5604191  45.1168060  41.3623381  53.0683374
  45.8282089  42.2416639  54.0741587   2.8057387  61.4900398  36.8571162
   3.6407551  61.2840223  37.2772789   2.8174520  60.9881783  36.0421157
 115.2054119  60.0537157  63.6936474 115.4707813  60.5261612  64.4827032
 114.6142483  59.3709135  64.0107393  39.1862917  80.0893116  56.6095209
  39.9663019  80.6436539  56.5867758  39.2854452  79.5053720  55.8575821
  35.2218604  19.2008030  37.3449922  34.8294950  19.1829097  38.2178974
  35.9001255  19.8738909  37.4010229 117.7002907  44.0822649  46.1357641
 117.8842258  43.8584232  45.2234650 118.5153580  44.4681215  46.4567232
  37.1754479  51.7648745  41.4526224  36.6001058  51.6682816  40.6937551
  38.0411673  51.9268608  41.0777569  38.4637642  21.3542867  43.2315397
  39.1217446  21.0470796  43.8551712  37.8276563  21.8272924  43.7680721
  32.1183276  57.1139383  71.6086435  31.8545961  56.7213440  70.7764530
  33.0665517  57.2207785  71.5332270   7.0616049  46.4020443  56.2112141
   7.1858072  46.9066811  57.0150518   6.8440038  45.5201960  56.5132427
  36.8701386  24.1312480  61.9319344  36.3855910  24.4470763  61.1692429
  37.6781583  24.6444106  61.9316816  36.3824177  53.7131929  61.8525648
  35.7032633  53.2104111  61.4029074  36.1912179  53.5952950  62.7830362
  19.9644899  62.7208996  44.1246367  19.4356740  62.0435286  43.7030315
  19.5127499  63.5395479  43.9197493  42.2548723  42.5503922  29.4685507
  43.1344604  42.8379297  29.7132492  42.4000740  41.8075180  28.8826394
  32.8565383  53.5335398  47.3757792  32.6272845  52.8775692  46.7174625
  32.6061773  54.3681526  46.9795799  99.2899990  79.4224787  38.8496780
 100.1621437  79.0389061  38.7577224  99.0881252  79.7694969  37.9807353
  39.2481184  57.5550222  41.4965534  39.7535133  58.1125450  42.0881414
  39.8974156  56.9709349  41.1047745   6.2385643  27.8561854  63.6597490
   7.0986217  28.1010032  63.3182859   5.8422387  28.6853552  63.9273977
 107.2716141  68.5033083  35.2092361 107.6649952  67.8919220  35.8318877
 107.4955273  69.3693447  35.5499411  17.4465990  50.1933241  39.7453856
  16.8313670  50.8917236  39.9688935  16.8906033  49.4488144  39.5155931
  56.1102533  30.7686377  67.7465200  56.8189001  31.1179066  67.2060871
  55.3123140  31.1201453  67.3515987   8.3379549  57.9791021  55.0693464
   7.7947485  57.5395298  54.4151831   8.7828529  58.6736584  54.5836639
   2.1999694  57.9132366  51.7524338   2.0933865  58.6137962  51.1089373
   3.0800933  57.5727272  51.5922260  38.2104564  45.9342766  46.9865704
  37.8341079  46.2897205  46.1814260  39.0982771  45.6737757  46.7413187
   7.8499007  22.2321010  27.9563737   8.7797588  22.0970035  27.7737689
   7.6372200  23.0565071  27.5189328  14.5760655  88.9939785  59.3979597
  14.2282701  88.9124393  58.5099173  13.8495612  89.3525314  59.9077320
  41.7957878  56.5653563  33.6571097  42.4575710  56.4251137  34.3343163
  41.9230223  55.8411646  33.0442595  42.8525448  21.9650221  36.4214683
  42.2315550  22.6818466  36.2919784  42.3462915  21.2876320  36.8698907
  43.2647657  17.9347134  34.0613508  43.8271093  17.3670697  33.5343027
  42.6607037  18.3260608  33.4303331 113.9526081  22.1090794  91.0794067
 113.1697845  21.8620944  91.5717697 113.9734173  21.4999747  90.3413105
 114.5056438  23.6210155  49.7044134 115.1856899  23.6139941  49.0308237
 113.9149761  22.9099917  49.4558525 111.9859219  59.8256731  61.7536831
 111.2560177  59.4669485  61.2489176 112.0788670  59.2297554  62.4969721
  45.9724522  94.0665531  54.0311766  45.2015257  93.5044956  54.1085958
  45.6330347  94.9549484  54.1397429  45.1325655  84.2149067  20.4938507
  44.6698809  85.0528336  20.4888725  45.6160688  84.2131901  21.3199568
  21.3714194  83.2885551  21.2452412  21.9185138  83.3272552  20.4607511
  21.7878628  83.8948250  21.8578148  24.7614670  56.3635159  40.6446600
  24.6706104  56.7165709  41.5297174  25.6965494  56.1796618  40.5549526
  27.7221036  48.2630205  41.4574385  27.6620865  48.2893944  40.5024862
  27.4434566  47.3774481  41.6905642 113.5336113  38.8164759  40.9349632
 114.2348099  38.2957482  40.5432892 113.9423084  39.6595144  41.1311483
  35.8164883  46.1685514  72.4936199  35.4722381  46.9338608  72.9540825
  35.5450988  46.2940073  71.5843153  49.0561819  71.2097502  32.9436421
  48.1828213  71.0079384  33.2794166  49.1863203  72.1342134  33.1549907
  27.3903370  44.1611099  28.2851434  28.2004619  43.7285137  28.0153441
  27.6671052  45.0323486  28.5689974  34.7531295  35.0330162  21.9550610
  34.1908741  34.2956471  22.1925187  34.8711348  35.5171418  22.7723312
 104.0243626  22.4384499  41.1402750 104.1219711  21.6368389  41.6542006
 103.3200836  22.2425222  40.5223417  36.6764855  28.0313802  66.0238075
  37.1559048  28.8565803  66.0975409  36.8315530  27.7438569  65.1240778
  24.7292924  57.7908087  51.5820122  23.9011979  57.4734306  51.9422340
  24.9953771  57.1133280  50.9603596 105.4568768  41.1392784  71.0887289
 104.7707653  41.5063810  71.6461563 106.2058163  41.0259199  71.6739368
  18.2389855  95.4085255  44.9178505  18.5433805  94.5072556  45.0240850
  17.3845041  95.3244400  44.4947386  29.5425653  95.7707024  47.8207874
  30.4099083  95.9527969  47.4591446  29.6929836  95.0826740  48.4690380
 103.2264233  20.0707436  25.3745461 104.0591240  20.1128793  25.8447242
 102.8759003  19.2053246  25.5852866 111.8978691  54.1925192  19.8315799
 112.7752399  53.9016724  19.5828557 111.6809464  54.8721504  19.1933978
  20.5375695  37.0681667  35.2934361  20.9597111  37.3240829  36.1135197
  19.6402764  36.8486571  35.5442643  41.8241072  22.8290153  71.6188622
  41.9708681  21.9307351  71.3225842  41.5426254  23.2974482  70.8330059
  23.0742311  47.8596163  14.8301542  22.6442981  47.4670029  15.5899203
  22.8029108  48.7773609  14.8491192  45.3968954  59.9818993  39.8725057
  45.0622034  60.8694792  40.0006533  45.6360483  59.6869230  40.7511568
  18.5938585  55.4214430  35.5204988  19.4798303  55.7778263  35.5858636
  18.6780059  54.5148087  35.8157444  12.6037335  52.1509171  42.7703524
  13.2381499  52.0071030  42.0681620  12.6381969  51.3492060  43.2921791
  47.2124624  49.9363708   8.2017499  46.3849497  49.9690151   7.7217615
  47.3926210  50.8481312   8.4307998  40.1880789  47.5470972  29.0809751
  40.6464386  46.7398834  29.3145132  40.2811098  47.6089001  28.1303144
  15.9901333  68.7107897  84.3567371  15.9851277  67.8988171  83.8498783
  16.3875771  68.4685659  85.1931572  17.7018464  26.8653321  32.5688386
  17.4690831  27.4199200  31.8242002  18.4242308  27.3269081  32.9946804
  44.2424679  79.1509867  35.2409029  43.8972664  78.3379173  35.6096625
  43.5066319  79.5258570  34.7569132  23.5624552  62.3038721  48.1268311
  23.4761405  61.4385271  48.5267687  24.4403195  62.5951529  48.3732891
  66.6086292  61.4915276  47.7795267  66.1194849  61.2084579  48.5520840
  67.5183582  61.2689352  47.9772043  25.4327607  36.7622066  63.8303566
  24.9550390  36.6801047  63.0049658  26.3552284  36.7193246  63.5784721
  36.4705086  84.0749454  35.2231932  36.5277243  84.1263771  34.2690897
  37.3575020  83.8506889  35.5045843  34.3641543  69.3658781  41.9614887
  34.2393875  69.1925240  42.8945541  33.6658311  68.8728380  41.5308046
  30.4654217  23.8904858  78.5629177  29.9801850  24.6893716  78.3566189
  30.4733348  23.3965945  77.7430153  33.6454248  68.9043474  67.8785229
  33.7473106  69.3487692  67.0368958  34.3829131  69.2145443  68.4039974
  33.2096958  27.6827979  19.3125451  33.7297702  26.9935226  19.7256482
  32.8713322  28.1987143  20.0443745 110.1747894  64.2560244  40.2240181
 109.9953556  63.3450317  40.4566813 110.8404446  64.2014599  39.5383406
  16.7912662  62.7814054  33.3090830  17.6270235  62.4485731  33.6361361
  16.3790524  62.0250177  32.8917217  25.7776070  43.0095291  68.0593109
  25.0973296  43.6207342  67.7766657  25.3997183  42.1433783  67.9069471
   1.9776918  35.6146812  55.9107161   1.7256837  36.4653206  55.5513573
   2.3681062  35.8197331  56.7602825  11.0753608  50.5854988  69.6638727
  11.0872626  50.8097935  70.5943489  11.6830683  49.8499632  69.5870113
  27.3980951  82.5854588  16.4385426  27.7726889  83.2313442  17.0374870
  27.5411868  81.7446232  16.8730128   9.4033056  55.0294304  19.3262172
   9.4562364  54.0929937  19.5173264   9.4442832  55.0816917  18.3713233
  14.4286537  47.7421904  34.7902274  14.3770432  48.6933184  34.6957612
  14.3130398  47.4065876  33.9012766  47.5697041  69.1094780  23.5389304
  47.7044392  69.4694901  24.4155526  48.4178305  68.7350035  23.3008409
  33.1684089  97.7507401  69.5271826  33.3322120  98.1784916  70.3676748
  32.8020811  96.8976116  69.7599936  18.8572490  57.1628428  46.8548346
  17.9425895  57.4423456  46.8160295  19.2313051  57.6669884  47.5774336
  37.6769495  66.9761896  51.9992542  38.2074046  67.7034569  51.6737795
  36.9491410  67.3967266  52.4571562  -0.1063656  55.6013346  45.2072716
   0.6323574  56.1943722  45.3444910   0.0339195  55.2427721  44.3309212
  47.7982521 103.2918167  24.1983390  48.2111740 103.2706928  25.0616360
  47.8757381 102.3946667  23.8737559  27.4258900  77.2119236  17.1105313
  26.7452192  76.8589735  17.6835454  28.2312465  76.7866945  17.4051774
  93.4246254  54.1888189   3.7074068  92.7888775  53.4738111   3.6788368
  94.0914536  53.9421654   3.0665171  37.8693938 108.7710381  20.4753351
  37.3046947 109.2884636  19.9012101  37.6933074 107.8628826  20.2293921
  32.4974966  59.2979622  31.2381935  33.0090523  60.0748158  31.4641237
  31.7479038  59.3234921  31.8329144  26.1463165  83.2846260  50.3931236
  25.9951591  83.4253883  49.4584751  25.3525758  82.8470230  50.7008791
  27.7068710  68.9762735  57.8604126  27.9414392  69.4423771  58.6628819
  28.4677911  68.4272480  57.6711893   1.9597971  50.9763098  52.2094965
   1.1609200  50.6972122  51.7621374   2.2171770  50.2187681  52.7349663
  17.3225427  73.6459875  55.0984287  17.4290955  74.3557739  55.7317400
  16.3947201  73.4163618  55.1498842  38.4866905  70.7799911  31.7566442
  38.7260318  71.6970968  31.6229630  39.2373848  70.4007101  32.2136259
   0.8013678  60.5272198  60.0648689  -0.0807274  60.6391287  59.7104454
   1.1933765  59.8444176  59.5204926  12.3002350  86.3948727  56.0262346
  13.1956112  86.0665417  56.1082888  11.7990398  85.6457901  55.7038832
  30.3793430  67.5266027  49.0404081  30.3281498  68.0571461  48.2453394
  31.2250900  67.7545357  49.4264030   0.9808334  81.7003536  79.6102333
   1.0714876  82.1873474  78.7911749   1.2654576  82.3146534  80.2868843
   2.0752101  81.1376953  16.8332207   2.0479894  80.4736042  17.5220454
   1.1947709  81.1295319  16.4577317  35.7341909  68.4871531  61.8340015
  35.8577633  67.5991058  62.1691608  35.5724168  69.0173244  62.6143694
  20.0026107  64.5481491  31.0348558  19.8294103  63.6343288  30.8086538
  19.6645761  65.0471687  30.2912521  46.3299513  82.7865219  28.3884096
  45.9784174  83.3651257  27.7117491  46.0392570  81.9118214  28.1302881
  35.0636697  56.3893938  34.7360706  35.3478885  56.4641857  33.8251042
  34.1160345  56.2657452  34.6819282 108.2361126  74.9551439  40.9365559
 108.1666470  75.8425474  41.2885761 108.7862015  75.0483894  40.1587772
  65.6110334  40.8066893   5.3656965  66.4992762  41.1457014   5.4767406
  65.6075001  40.4275894   4.4867751  37.7346635  54.4335794  15.7683825
  37.1787763  54.1901350  16.5086234  37.1653748  54.3494415  15.0034893
  31.8251657  61.2296295  57.4995184  32.3931742  61.8775797  57.9163694
  32.3023438  60.4040241  57.5826359  17.9063690  83.7220860  36.8273330
  18.4020329  84.3668079  37.3321939  17.1042085  84.1799545  36.5760708
  35.1661253  77.4340582  48.5202742  34.4488525  77.5415277  47.8956127
  35.5512786  76.5861225  48.2991552  26.6368032  66.1797714  53.2990265
  25.9997106  65.4659510  53.2706165  27.2594380  65.9182405  53.9773750
  25.5235338  83.0493546  64.7821140  25.2609301  83.7883854  65.3308439
  25.1184702  83.2256985  63.9329624  35.6928849  49.8590755  30.8573723
  34.8019433  50.0515556  31.1496210  35.5797815  49.2415524  30.1348042
  50.8223438  70.7885742  36.1718822  50.1764393  70.8891106  36.8711209
  50.5128717  71.3671541  35.4749560  29.6329308  83.1372738  40.6818295
  29.6092248  83.9902210  41.1155939  30.5187869  83.0747509  40.3246450
  14.0604794  63.6078215  43.8644409  14.5633888  63.9455605  43.1233311
  13.3192062  64.2081261  43.9443398  70.9579039 107.4252701  53.7063599
  70.7668543 108.3476162  53.8766670  70.6629753 106.9699955  54.4950151
  37.2785091  85.2138233  50.7089853  37.6494384  86.0055733  50.3193998
  37.8409648  84.5060253  50.3945208  39.2472887  43.0343771  41.9869280
  39.4992924  43.3162355  42.8662920  39.2727470  42.0782900  42.0253706
   9.0148842  59.4962788  22.1615458   8.9850360  59.4813156  21.2049294
   9.5198792  60.2814102  22.3731661  15.9476697  56.6707087  32.5055194
  16.3429737  57.0190907  31.7063975  15.0804245  56.3711357  32.2328067
  43.8263845  71.2233400  52.8889036  42.9848480  71.1746597  53.3424234
  43.8539648  72.1101809  52.5297594  48.0338717  37.4754810  60.6836843
  47.5134611  38.2771707  60.6317234  47.4737263  36.8562269  61.1516476
   9.4324815  52.0346546  50.0657129  10.3616953  52.0267439  50.2953434
   9.2487913  51.1398125  49.7798109  71.6082478  87.2701073  28.6038876
  70.6726933  87.1478367  28.4425902  71.7847776  88.1673908  28.3211184
  33.0720329  57.0675516  37.9544520  33.1536508  57.6934242  37.2348356
  33.9648318  56.9630671  38.2834268  30.5101657  73.6572313  64.1820383
  29.9106956  73.1856155  63.6037254  31.3386822  73.6775112  63.7031031
   8.6279553 106.1731148  32.6694131   8.9210916 105.2683163  32.5614738
   9.3283594 106.6994095  32.2838330  44.8454237  82.0309544  17.5805128
  45.4311848  82.6983261  17.9378998  44.2439270  81.8312359  18.2978296
 113.6169338  41.9902849  38.4937024 114.2634106  41.3020420  38.3367705
 113.9854813  42.5060415  39.2109132  47.0398331  68.4300852  30.0412679
  47.6834297  69.1355419  30.1071739  47.5557089  67.6553249  29.8180056
  23.8478422  68.2673407  60.4058886  23.2904482  67.5057983  60.2458954
  24.7279930  67.9735708  60.1708078  34.7165251  64.9365520  61.1685562
  34.7568417  64.2215252  61.8036509  34.4352078  65.6953573  61.6797400
  25.2858353  70.8404827  61.1347580  25.1513457  71.6755581  60.6866503
  24.7434950  70.2184057  60.6498671  41.6969919  62.7524137  16.8579257
  42.0920324  62.0274448  17.3422766  42.3222017  63.4712648  16.9506192
   1.8771106  63.8082600  46.3768625   1.3452956  64.0738583  45.6266212
   1.9508988  64.5996141  46.9102955  87.4379253 103.8468456  43.2663584
  86.9152164 104.6448231  43.1873035  88.2148075 104.1169262  43.7559891
  31.4450741  64.1615772  77.2627783  32.3358965  64.4630241  77.0844555
  31.5100241  63.2065916  77.2585344  98.0904102  84.6095562  60.6528234
  98.0578709  83.8177586  60.1159430  97.2856140  85.0797939  60.4351091
  38.6589479  29.2550373  52.5083685  38.9930153  29.7821832  53.2341433
  37.7505922  29.5385337  52.4046850 101.8630219  71.2642050  42.5447941
 101.3250732  71.9746113  42.8943110 102.6461887  71.6999340  42.2086191
  30.0150609  59.8265076  24.4449973  30.8662128  59.3921709  24.3891239
  29.9928546  60.1973486  25.3271627  30.6753802 103.2553101  50.5553484
  30.5636334 103.6091709  51.4376926  31.6234088 103.2306004  50.4254961
  50.4159355  80.3311539  44.4880104  50.8697796  80.6752968  45.2573061
  50.8330154  79.4857216  44.3221426  17.7708709  49.7894812  28.9813709
  18.6535084  50.1061201  28.7892151  17.2546709  50.0392532  28.2149625
   7.7249420  66.8206072  65.1657248   6.9149846  67.2970533  65.3479338
   7.9800230  66.4499569  66.0105801  29.6317077  66.4699459  39.6316910
  29.0954399  67.1631432  40.0165558  30.1371789  66.1223078  40.3664541
  45.5674601 102.5379181  33.4249449  46.1924076 103.0046844  33.9797425
  46.1084890 102.1148968  32.7581763  37.7539539 100.7891464  38.8467431
  38.3961320 100.0954819  38.6961842  38.2782555 101.5842152  38.9426804
  31.5118718 106.9608021  51.8908739  30.6267214 106.6013718  51.9504738
  31.4748240 107.5672436  51.1512232  46.4723635  35.8233714  52.8278208
  47.3787355  35.8554697  53.1339169  46.1928797  34.9243522  53.0006886
  22.7949667  85.0279999  22.9546762  22.9115915  84.3529034  23.6231637
  23.1356907  85.8262157  23.3583879   1.4239721  75.5283880  49.0079498
   2.1538810  75.2813911  49.5758057   1.5329275  74.9847269  48.2276964
   5.5757719  48.9580441  10.6277990   5.8311725  49.0830231   9.7138071
   6.0817373  48.1983805  10.9161413  32.0905614  60.6711292  47.5032187
  31.5452123  60.9529591  48.2376528  32.8094029  61.3028479  47.4824190
  21.6662383  58.5507917  84.8967361  21.7513514  59.3788528  84.4241905
  20.9455705  58.6976099  85.5093670  22.9266262  95.9942913  61.8860579
  23.7001324  95.6414890  61.4462280  23.2260227  96.1950779  62.7727842
  17.4012208  69.1767883  55.8987999  17.2414529  69.8030043  55.1927137
  16.7292678  69.3747616  56.5511131  35.8633280  63.0053711  51.4626074
  35.6321526  63.7219715  50.8716106  36.3050103  63.4330082  52.1962833
  29.9829745  79.4145012  59.0889597  29.1347647  79.5137930  58.6566257
  30.6040931  79.8410368  58.4986115  34.2197251  70.0893974  44.6862030
  34.0118361  70.3101063  45.5941153  35.1752925  70.1256323  44.6436834
  38.5455084  35.4711008  66.1979771  37.8662157  35.4309559  65.5247927
  38.0860996  35.2726746  67.0139456  31.7162085  70.9216166  49.8537827
  30.8054852  70.8188438  49.5776415  31.8699408  70.1885796  50.4498148
  26.2339687  85.3382492  22.5431347  26.5342188  84.4834423  22.8519630
  25.5796647  85.6092739  23.1870770  59.0125132  61.1009645  20.1853585
  59.7040796  61.7612505  20.1407409  59.4517946  60.3157377  20.5119872
  26.5320587  65.4076385  25.6419754  26.5051317  64.9676895  26.4916515
  27.4625397  65.4436970  25.4203105  18.8023877  71.9252634  53.4073925
  18.4956801  72.4199533  54.1672897  18.0637181  71.3632536  53.1734180
  57.1744013  61.8338203  48.3995771  56.3521910  61.7654181  47.9142714
  56.9813871  61.4468336  49.2535210  63.8713598  18.5197520  69.1609859
  63.6888266  17.5875103  69.2786312  63.5504723  18.7174714  68.2811165
   4.9804646  46.4673185  16.5824056   5.7059932  45.8643389  16.7444503
   4.8422417  46.4269066  15.6361008  37.3668480  63.5395622  56.0181379
  38.3169246  63.5278654  56.1341095  37.1479893  64.4670105  55.9277582
  27.1848369  49.7797203  50.7243013  26.6036177  49.0721321  51.0031128
  27.8489995  49.3468142  50.1879072  39.9579835  84.4848633  23.3298111
  39.3810606  85.1083374  23.7710238  40.4934263  84.1156292  24.0320921
  39.5076466  91.9405556  49.7410011  39.0154314  92.1643639  48.9511490
  38.9012241  92.1191025  50.4597569  11.0540509  91.1881447  36.6401601
  10.9667861  90.4750061  37.2726536  10.1698852  91.5457439  36.5588975
  86.6896915 107.3416138   6.0653597  87.5956726 107.0708275   6.2140465
  86.7614746 108.2052612   5.6589270  44.0398884  78.1039429  60.7508993
  44.4214296  78.1291533  61.6284084  44.6230888  77.5314760  60.2525091
  37.1941018  95.8078003  50.5894852  37.2338319  95.5960560  49.6568489
  38.0985498  96.0115719  50.8275700  27.3508859  54.3933201  80.8343124
  27.9624629  53.9686298  80.2327824  26.4849663  54.1654205  80.4959679
  36.9921231  73.5023355  37.3324442  37.3790240  74.3730927  37.4236488
  37.7068162  72.8998947  37.5386262  43.1762981  39.9715376  58.3019447
  43.4027243  39.0611029  58.1120205  42.7888775  40.2965403  57.4892282
  38.8099051  47.5055599  68.5019302  39.2401099  47.6760292  67.6640177
  37.9381752  47.1899652  68.2637644  42.9941463  82.0950603   9.1398615
  43.0477571  81.1775875   9.4074458  42.9655933  82.5832558   9.9627084
   5.0589103  72.1809196  56.7683792   5.6125581  72.6629162  57.3826981
   4.5543277  71.5825796  57.3193979   2.9378858 102.0921993  71.7723179
   2.8249288 101.1540318  71.6196251   3.8670260 102.2516918  71.6065073
  72.9802084  63.3215666  52.8003931  72.6905584  63.5538387  53.6826515
  72.6972342  64.0551567  52.2545004   0.6033520  64.5353317  18.2450020
   0.5015636  64.9943876  17.4112511   1.4499840  64.0944386  18.1738663
  29.3786955  57.6158619  57.1281147  29.7743392  56.8735886  56.6712427
  30.0381112  57.8817558  57.7689743  44.8814011  71.4595938  36.3756371
  44.0659618  71.8934822  36.1245656  45.5501604  72.1392012  36.2912011
  22.2773957  79.2784786  50.6062841  22.1383119  78.3316088  50.5882740
  22.7477741  79.4669580  49.7942209  46.9367456  76.2062550  39.5058298
  47.4051714  76.2340164  40.3401184  46.2679195  76.8865490  39.5839190
   3.7325585  72.9643011  54.4846773   4.3032479  73.2330227  53.7647200
   4.3252131  72.8374767  55.2255583  39.3156695  73.6708498  42.1682692
  39.7223401  73.6045170  41.3042974  39.9423528  74.1720104  42.6901293
  42.6773453  60.8475780  33.1027794  42.7974844  61.1879110  33.9893293
  41.7725325  60.5356884  33.0865216  26.5816426  98.2651711  60.1314402
  27.1076035  99.0003204  59.8165703  26.8079638  97.5412846  59.5474815
  41.7444468  87.5238609  95.4678440  40.8030510  87.6661968  95.3691483
  42.0943546  87.6126671  94.5813370  39.4116759  97.4702835  63.2725716
  38.5422254  97.1963310  63.5645247  39.2792201  97.7685642  62.3727322
  21.9748712  54.2297935  82.7657413  22.8934002  54.2998219  83.0258083
  21.6469550  53.4700871  83.2469463  41.9586372  58.2055712  41.0230970
  42.2668934  58.6406374  41.8180370  42.4212503  58.6494923  40.3123569
  29.8327804 100.0518227  44.1580486  30.7694793 100.1011562  43.9672756
  29.7823691  99.5829391  44.9910212  24.4876313  76.6188526  21.3055158
  24.3149567  75.9707165  20.6226254  25.3787327  76.9207573  21.1293745
  15.5120182  86.5721798  69.8826838  16.3518894  86.2993240  69.5133591
  15.1553965  85.7774925  70.2795696  27.4130487  45.3197432  42.3698330
  28.2273078  45.2419424  42.8669834  27.6576066  45.0928879  41.4726353
  20.5253530  90.7083035  65.6968594  19.7620368  91.0079098  65.2030849
  20.3820467  89.7690201  65.8127642  27.0675373  58.0612135  48.3065987
  27.8156304  57.5956774  48.6805868  27.4392295  58.8721561  47.9595327
   1.0885189  78.9944601  58.0968380   1.9811977  78.6564302  58.0254936
   0.5671269  78.4124756  57.5439596  22.2379875  73.9259291  62.9477787
  21.2890697  73.8789749  62.8312349  22.3633671  74.5884991  63.6271238
  18.6364365 107.8662014  50.4059744  19.1200411 107.9314804  49.5825100
  19.3147111 107.8451729  51.0810566  37.1476126  94.5730209  24.6112204
  36.6147614  94.5358467  23.8169169  36.5262675  94.7890186  25.3065681
   0.4276274  76.8301153  42.7601910  -0.0647156  76.0275316  42.5878763
   0.4379398  77.2897005  41.9206047  46.7045927 107.1966553  35.8522916
  45.7546425 107.2306538  35.7397580  46.8541956 106.4205551  36.3922262
  24.9762774  51.5657711  46.3037586  24.4157457  51.0131121  46.8483686
  24.8780537  51.2099361  45.4206038  30.6995749  71.2917757  36.0800266
  31.6360545  71.1430454  35.9492064  30.3012848  70.4294538  35.9617209
  42.1663284  77.4256325  74.0714693  42.6188660  77.8447580  74.8034382
  42.4522448  76.5127230  74.1042280  65.0963068  95.3804493  31.3309860
  65.6066561  96.1766434  31.4788103  64.8029804  95.4492092  30.4224348
  28.0551720  61.7254353  41.8119574  28.0253196  61.1898375  41.0191917
  27.3836732  61.3489437  42.3807955 118.1989384  82.2130680  39.6633816
 117.6874542  82.6596642  38.9887238 117.6935101  81.4256191  39.8651195
  47.3195839  57.8437614  32.0969486  47.6184273  57.6848793  32.9923153
  47.5308943  58.7629175  31.9334722   3.4849963  62.3284197  81.9215107
   4.0930095  63.0518961  81.7694092   2.8081924  62.6993561  82.4877071
  50.0414705  75.1342821  46.5553999  49.9077749  75.2144480  47.4998236
  49.3241882  74.5742178  46.2586451  49.6918678  94.1224480  64.3531895
  49.6547174  93.8655186  63.4318686  49.1853094  94.9334812  64.3962812
  60.2641058  86.6090107  74.4082689  60.7596731  86.8871212  73.6380148
  60.9196615  86.2200928  74.9872589  73.8604307  95.8370113  54.1882277
  74.6809435  96.2930679  54.0011358  73.2899618  96.5117168  54.5564222
  43.5784769  78.9214468  63.9406252  44.3032742  78.4132433  64.3048096
  43.9792776  79.7450972  63.6628008  22.1307850  70.5559206  50.0418806
  21.8363762  69.6742249  50.2702999  22.0737433  71.0472870  50.8613539
   5.1643240  81.9225407  32.4879646   4.9390176  81.9375038  33.4181499
   4.8700365  82.7709579  32.1565747  32.9866433  86.3225460  53.4009981
  32.3600626  86.0560226  54.0737438  33.5675526  86.9397545  53.8457775
  54.4510031  58.5857582  38.9260817  53.7606955  57.9503489  38.7364435
  55.2596474  58.0739641  38.9062810  77.2941113  77.9046392  55.3328037
  77.2961426  78.7686443  54.9208307  76.5593386  77.4464893  54.9248266
   4.7429955  64.5085669  35.9888196   3.8889843  64.3525839  36.3920140
   4.9941972  65.3817081  36.2900710  78.5741234  93.7581062  34.5234203
  78.3199072  94.2569065  33.7470174  78.8657999  92.9133797  34.1805053
  69.0368462  67.0047903  52.4004459  68.6797380  67.8886509  52.4870014
  69.6538925  66.9234943  53.1276846  44.9824095  89.7190475  52.4914932
  45.7887650  89.5761490  52.9870749  45.2728844  89.8181725  51.5848351
  48.2805061  88.8306046  44.3991184  48.1616926  88.2094288  43.6806059
  49.2256498  88.9778137  44.4346380  81.5946770  70.5630255  25.0313139
  81.6862583  71.2641478  25.6765056  81.7489815  69.7591972  25.5275822
  82.1158123   4.5494038  45.5687380  82.2007084   5.0201827  46.3978291
  81.7088699   3.7163886  45.8068943  67.3872280  85.3519344  39.3651748
  67.0135164  86.1190891  39.7988272  67.5173855  85.6291389  38.4582853
   5.6554985  56.9820786  41.5464163   6.5429378  56.6557312  41.6953421
   5.5187273  56.8827152  40.6042624  58.5666037  96.8333340  37.4415493
  58.8408089  96.2427139  36.7399764  58.8666153  97.6970863  37.1584344
  27.1143746  75.2135992  45.5907154  27.3941135  75.4144239  46.4838266
  26.1581588  75.2342749  45.6288671  71.9707727  11.8219113  35.1132369
  71.6423035  11.5335000  34.2616749  72.9122639  11.9335806  34.9814820
  31.5521073  85.1580048  45.6270027  31.5083671  84.4131565  45.0274086
  31.1213064  84.8494148  46.4241314  46.7748499  62.7017164  30.6591010
  46.5295839  63.5438442  31.0423803  47.1983051  62.9295063  29.8314357
  39.6959567  49.6927452  70.4470253  39.2261481  49.1279888  69.8333788
  39.0159965  50.2448988  70.8330488  59.1413689  60.4888821  53.2481050
  60.0147247  60.8805704  53.2560349  59.3016291  59.5476007  53.1807709
  42.2783422  40.5227900  50.9020090  42.8027153  39.8556328  50.4590988
  41.4317513  40.4970646  50.4560757  22.7200270  53.2026863   3.8465476
  23.0264640  53.9828968   4.3087155  22.6285696  52.5395012   4.5306915
  99.3353367 104.2596436  83.3925343  99.8334408 103.9570045  84.1518307
  98.5256767 104.6118832  83.7621403  69.8694134  84.8232841  46.1659431
  69.2396593  84.9655914  46.8726254  69.9513674  83.8714695  46.1062336
 114.8427868 105.9141731  32.3857427 115.4815769 106.3328838  31.8087983
 114.1193581 105.6730747  31.8071675  58.5209370  72.9389572  46.7300749
  59.4369793  73.1155300  46.5157890  58.0837727  73.7843227  46.6277218
  58.6924696  54.8943615  33.8272095  58.2198715  55.7265282  33.8467360
  59.0830755  54.8611879  32.9539633  14.1013646  67.6833725  32.3990583
  14.9371409  67.9005098  32.8120470  13.5760045  68.4784317  32.4890924
  36.7065477  98.5303974  50.9713888  37.0922112  98.6616802  50.1052141
  36.8113351  97.5941658  51.1408329  27.0369208 110.9288258  69.0478373
  26.5110075 110.4080587  68.4408379  26.4677965 111.0598421  69.8062325
  50.7968521  81.6456032  36.6028833  51.6656971  81.9069195  36.9079304
  50.8033180  80.6896782  36.6518021  75.7461739  68.6574411  26.7841530
  75.3552580  69.0466881  27.5663948  76.4065027  68.0524635  27.1220994
  89.4669533  47.4720335  20.0320530  89.7744179  47.7759361  20.8860636
  88.5457134  47.7303648  20.0033498 104.3424511 105.5749226  59.7218895
 104.4981289 104.8020554  59.1790438 103.5846615 106.0005760  59.3208790
  59.7336292  74.2939091  62.6756954  59.4950676  75.0452995  62.1328020
  59.4293594  73.5338545  62.1797419  41.7915487 104.2551804  49.4567013
  42.1806526 103.4360027  49.7629547  41.0009241 104.3575668  49.9864769
  31.9665313  82.0152283  34.3982053  31.1476564  82.3329735  34.7786164
  32.4751019  82.8080845  34.2280388  26.8707824  75.1936245  48.6469316
  26.1044598  75.6879139  48.9378929  27.6178384  75.7056046  48.9567947
  59.4580269  98.3768749  58.4657192  58.7059259  97.9854107  58.9099360
  59.8487711  98.9551640  59.1207981  71.6351509   6.3849449  63.7182093
  71.7892361   7.2663748  64.0581703  71.3143778   5.8901191  64.4721889
  32.1577787 102.9736614  56.6121292  32.5504565 103.5273075  55.9372139
  32.4176431 103.3819675  57.4379539  55.9429312  74.6839380  27.3946476
  56.6202402  74.0263891  27.2361851  55.2661419  74.4918919  26.7455649
  93.2891941  16.7318642  54.7042894  92.5560570  17.3468935  54.7262383
  94.0641117  17.2861242  54.6119070  44.2584753  59.0875530  35.8547497
  45.1368380  59.3902254  35.6243110  43.6837053  59.5143318  35.2193499
  27.2521758  70.7950544  39.6426392  27.0015287  71.7019653  39.4667983
  26.9074655  70.3025627  38.8977528  79.3320799  81.3381195  21.1202550
  78.3927631  81.2793541  21.2948012  79.4125128  82.0420361  20.4766202
  20.7145023  99.9012375  63.9170456  20.1336432  99.1527843  63.7804890
  21.5776014  99.5120430  64.0578127 114.7784233   3.0297148  36.8922043
 114.4701672   3.8412791  36.4890003 115.5996513   2.8348428  36.4407253
  62.4904394  63.4955120  59.4989300  63.4467745  63.5266018  59.4727707
  62.2687960  63.7029123  60.4067230  76.7324018   1.7165010  35.5472374
  75.8620358   1.5653810  35.1786566  76.9163179   2.6365513  35.3577232
  20.9243441  57.6465750  57.9971313  21.8481445  57.8876829  57.9286528
  20.4578805  58.4824181  57.9952478  70.6408358  84.4476032  20.1578450
  70.7269001  85.2729321  19.6807063  70.2452135  84.6943665  20.9938025
  46.9783401  61.4389229  45.7564831  46.3375139  61.0014009  45.1959896
  46.9426632  62.3573971  45.4893351  14.9539030  92.6384258  57.0813704
  15.5996239  92.6943493  57.7857494  14.1082680  92.6856709  57.5273561
  29.6648216  83.9639091  28.6090803  29.3711996  84.5215702  29.3295240
  30.4153228  83.4881783  28.9649677  57.8169775  -0.0857199  33.1781387
  58.0201578   0.3434120  32.3469973  57.1153307   0.4443965  33.5561633
  31.0671544  87.5572968  42.4177599  31.0790110  88.2981491  41.8117666
  31.1602616  87.9545975  43.2836199  51.1153603  66.6180944  17.1371031
  51.0587692  65.8832407  17.7478540  52.0531988  66.7930222  17.0590985
  90.5021095  75.6220627  46.9865465  91.1901760  75.0364828  46.6704798
  89.8163033  75.0354958  47.3056602  66.2598801 101.8387890  40.3255463
  66.7149878 102.4576950  39.7545290  65.4016161 101.7232704  39.9177885
 101.7054367  30.3678870  90.5453014 101.7698860  30.1493621  91.4749908
 102.5672722  30.1530862  90.1884651  26.9012022  76.3641262  40.1612711
  26.0769200  75.8790541  40.1226568  26.7999005  76.9491243  40.9121037
  55.8963919  88.6730099  43.4726906  55.2716017  88.2157898  42.9098272
  55.5636644  88.5369873  44.3598318  47.6981974  70.7168579  47.2034931
  47.4908066  69.8895121  46.7690706  46.8750048  70.9864283  47.6108265
  44.5980072  64.3478441  20.4056573  44.6412945  65.0978279  20.9988475
  44.9638033  64.6719933  19.5826435  51.0464239  82.0330620  63.1477022
  50.6744528  82.8957081  63.3313131  50.3764153  81.5890121  62.6279497
  58.3429766  95.5693722  74.9098825  57.7472734  95.5996513  74.1612482
  59.2111254  95.7068634  74.5308733  46.3707066  97.8734016  47.6669168
  46.7779779  97.2067356  48.2200098  47.0421267  98.5490513  47.5723934
  56.5369701  72.8579617  33.7001181  56.6105604  72.0814276  34.2549276
  55.6118345  73.0990887  33.7470961  36.4286780  97.2857571  31.6557503
  35.5644464  96.9949532  31.3645983  36.7745614  97.7861595  30.9166956
  21.8239689 106.6214943  37.0326257  22.7318478 106.4972591  36.7559433
  21.7406058 107.5660229  37.1635842  57.7047825  84.3382072  23.8919234
  57.9972029  85.2453423  23.9804482  57.3030806  84.2996693  23.0239487
  47.8646374 104.9145317  47.8894186  47.5714874 105.5186272  48.5715914
  47.7373552 105.3962040  47.0720959 106.2710094   3.0119237  77.0900297
 105.3960705   2.6273122  77.0372725 106.1914444   3.6981267  77.7526236
  55.6792116  87.7606106  62.1905375  55.3950930  87.1518135  61.5087128
  55.9015703  88.5627365  61.7179108  18.7992513 102.6160812  36.1054301
  17.8737235 102.6621819  35.8656263  19.2274368 103.2507229  35.5308723
  56.6036129  81.2696266  14.4413066  56.0292578  81.3101196  15.2059674
  56.7378569  80.3337383  14.2918801  14.3671262  97.9281139  40.3015280
  13.9410925  97.5991154  41.0930395  13.6739457  97.9345798  39.6414614
  70.5717039   8.8703215  30.9494209  69.8068428   8.4976959  31.3880205
  70.6028461   8.4250057  30.1026869  30.7966638  76.6174316  38.6553764
  31.4325452  76.8342066  37.9735470  30.9990597  77.2192144  39.3717027
  43.0976439 101.6620445  69.6337891  43.4541273 101.6661739  68.7454557
  42.2508860 102.1012211  69.5541096  48.8628006  81.5994930  42.2275543
  49.7570658  81.8204498  41.9673538  48.9681768  81.0500908  43.0042648
  49.3853235  86.1082745  10.4331470  50.0864553  86.4834023   9.9002987
  49.8402882  85.6547451  11.1427581  54.3879080  31.6060114  17.1011853
  53.9161825  32.4043989  17.3384249  53.8898182  31.2420392  16.3692975
  46.2259054  88.0850792  30.0705719  46.2201786  87.2693062  30.5712914
  47.1110392  88.4307098  30.1859403  83.7590027  65.6731224  43.8846731
  82.9065514  65.5544758  43.4657478  83.8462448  66.6209364  43.9859676
  25.9006572 102.0381832  71.8935776  25.2318192 101.8815708  72.5601816
  25.4901981 101.7641163  71.0734320  63.6759853  97.7591133  36.5814281
  62.8148460  97.7026844  36.1673212  64.2495346  97.2459507  36.0122681
  71.3215780  74.3037653  46.2906361  71.7916107  73.8626814  45.5830050
  72.0110416  74.6354103  46.8658590  15.3474152  62.2957087  47.8837919
  16.0228240  62.8434420  47.4837399  14.5347846  62.7847195  47.7544355
  49.3641615  51.3728905  37.7017331  49.2036009  51.7434597  36.8339014
  50.3018141  51.1806250  37.7103329  24.0660906  85.4922295  55.6689358
  23.7507582  84.6109772  55.4684591  24.7131968  85.6757641  54.9879122
  23.8012242  91.8744659  62.0518446  24.6927476  92.1327686  62.2857332
  23.2959986  92.0039272  62.8544807  20.4092169  67.4746561  36.4913845
  21.3244414  67.1943235  36.4945865  20.0731635  67.2051048  37.3461580
  65.1457644  93.7939930  81.5549946  65.6406450  93.5055161  80.7881165
  65.2204657  93.0685902  82.1750259  43.6927652  84.4840431  59.5474720
  44.2222929  83.6868286  59.5309830  42.7962732  84.1735363  59.6744013
  61.0867786  88.1469440  43.9881325  60.5643034  87.5748920  43.4259892
  60.5889845  88.9635658  44.0276098  47.5379610  67.9752159  19.4264448
  47.1544170  67.9589462  20.3032923  48.1472635  68.7132072  19.4451952
  21.0946417  93.1413078  38.4016871  21.8553662  92.8844547  37.8805757
  21.0688210  92.5059128  39.1171193  38.0523658  90.2689075  46.9946241
  37.6004672  89.5182800  46.6091681  38.4213543  89.9327755  47.8113842
  57.5938272 105.1714134  59.9737740  58.2161474 104.9907207  59.2692852
  57.9082441 105.9848690  60.3683090  48.2044888  63.2919264  44.1942930
  48.9075756  63.8963890  43.9565325  48.5954905  62.4227858  44.1051579
  19.1398275  90.4440403  27.6566029  18.2558250  90.1775551  27.9090977
  19.0201223  91.2870121  27.2192240  48.8719511  81.5770054  34.3675780
  49.1544533  82.0225525  35.1662731  48.8091564  82.2736454  33.7141347
  99.4451046  10.4233432  20.1919794 100.1032162   9.8098665  19.8652422
  99.9183846  11.2486470  20.2973652  36.9026709  93.7120056  38.5971642
  36.9678402  94.2413712  37.8023291  37.1325254  92.8267384  38.3148599
  98.3583832  93.7456036  41.4794159  98.9445114  94.4360828  41.7891407
  97.4902821  94.1488743  41.4829922  20.7719660  61.3604116  55.2874613
  20.3293037  60.8896732  54.5812845  20.0677633  61.6154766  55.8835125
  47.9979277  67.3973751  13.2778406  47.5139236  66.5719509  13.3033419
  48.7354565  67.2610283  13.8725686  87.4242306   1.8722771  51.2874079
  88.2134438   2.0668186  51.7929077  86.9362354   1.2555876  51.8331003
  63.7530756  69.0789986  51.9021606  63.4871197  69.0926838  52.8215694
  64.2921114  68.2922363  51.8204403  55.9153461  76.0452604  55.6851530
  55.4741526  75.2170086  55.4965305  56.7876434  75.9441566  55.3042269
   2.1029070  74.7737598  57.4689198   1.6188696  74.4494581  58.2283735
   2.3663029  73.9834595  56.9974470  84.7723961  87.2981548  64.1584921
  85.2427959  86.6360569  64.6650171  85.2086163  88.1216431  64.3771791
 110.8784485  91.3749790  64.4813013 110.5921936  91.0522938  65.3357983
 110.3175545  92.1316719  64.3108559  23.9148045  99.2434406  77.9466105
  23.0296588  99.0177345  77.6605988  23.7872005  99.9299431  78.6013317
  56.3190794   5.7450044  31.8448615  56.4775229   4.8285368  31.6185546
  56.7830801   5.8709973  32.6725435  54.5867777  21.5040874  40.1449490
  54.3074274  21.7810345  39.2723131  54.9362707  20.6223559  40.0159550
  38.5955453  92.1489906  24.8649073  37.8666210  92.6026440  25.2881050
  38.2029104  91.7241764  24.1022778  24.2837906 108.2701302  32.2265768
  24.9544573 108.2873917  32.9093218  23.4674954 108.1008053  32.6969194
  51.8243027  77.6641417  43.6098289  52.0839405  77.3336315  44.4698191
  51.1119699  77.0862627  43.3362103  59.5879459  87.3702049  38.8507318
  59.6872473  86.4230919  38.9474034  59.0733862  87.4766541  38.0506539
  36.6366386  64.7986984  18.7142229  36.5776944  65.2884912  19.5345032
  37.5137568  64.4156265  18.7264931  33.0947495  38.4227586  12.3725522
  33.2221651  37.9727697  13.2077205  33.1966400  37.7367163  11.7128587
  38.4178281  87.9108047  42.1619129  39.1287827  87.2791958  42.2707367
  37.8849578  87.5517368  41.4524412  23.5293865  72.8424311  42.3154306
  23.7693524  73.7675714  42.2628498  24.2654395  72.4293613  42.7669096
 113.6026382  89.8106766  62.7034044 113.0812359  90.5640793  62.9804611
 114.4278145  90.1890755  62.3998880  34.6183348  90.6764889  39.6783757
  34.8408723  90.4104614  38.7862229  33.7443876  90.3147030  39.8252320
  84.0039253 101.1594009  36.2070107  83.5318565 100.6975079  35.5141616
  84.1131401 102.0488453  35.8705449  42.1822023  83.5597324  28.5097003
  41.3962507  83.9490700  28.8930154  42.2833252  82.7248859  28.9669085
  18.8491333  79.0709209  57.1008730  19.1420376  78.5443354  56.3571358
  18.1283963  79.5962620  56.7533255  16.4537704  92.3136044  43.3219004
  15.8652031  91.5738392  43.1716633  17.3287857  91.9256496  43.3302355
  66.5489292  97.9848576  30.8907914  67.2318220  98.0486679  30.2230954
  66.9708967  98.2880306  31.6946983 115.4908466  17.1049154  80.3587627
 115.8763504  17.7025127  80.9994602 116.1271000  16.3940072  80.2811909
  36.0322452  96.0473442  41.8539953  35.3695941  95.3740120  41.6999102
  35.5425501  96.8698025  41.8537903  36.0949683  92.8503036  55.7252550
  35.5046177  93.2658291  55.0967169  36.3830590  93.5656166  56.2923145
   8.1064510 109.2002106  88.4321785   7.4585599 108.6771393  88.9042664
   7.8016657 110.1025200  88.5280132 108.3480167  10.9208572  31.2764239
 107.9030609  10.1357615  30.9572577 107.6785374  11.6043448  31.2468076
  41.0120392  82.7797794  46.6326141  40.0833035  82.6385021  46.8162346
  41.2435961  82.0826721  46.0189009  43.3129215  87.6371384  51.2887192
  42.4964714  87.9629517  51.6675138  43.9979935  88.1455994  51.7227411
  49.2007971  81.4578247  58.6344719  48.3997250  81.8225193  58.2582951
  49.9025631  82.0017624  58.2768536  26.5704346  82.1670246  43.1366444
  26.1767006  82.9867458  42.8378630  26.4873624  82.1948719  44.0898275
  92.3394012  96.7315865  22.4795604  91.6772175  97.1463776  23.0324602
  91.9892788  95.8589554  22.3002219  21.2988734  93.8364220  42.6935148
  21.9132543  93.1260204  42.5088692  20.7134151  93.8496208  41.9363546
  39.2262530  52.0188379  23.4239125  39.2206359  51.5997839  24.2844892
  38.3039975  52.1938848  23.2367277  55.9840393  85.9547901  50.4162121
  55.6322336  85.4808903  49.6626329  56.9339228  85.8851624  50.3207779
  58.8943100  90.6446457  37.2682953  59.2649841  89.9223614  36.7612076
  58.6262465  91.2862873  36.6105175  25.9500122  77.9224920  10.5530047
  25.7151890  78.0281878   9.6310943  26.5576744  78.6407661  10.7292533
  66.5223598  92.2745037  15.1879859  66.4163446  92.5674820  14.2829132
  67.2396517  91.6416836  15.1524246  45.9003687  89.5272636  56.4790678
  45.3777027  90.2913570  56.2357235  46.2145567  89.1767025  55.6456280
  32.7184725 110.4374027  18.8650167  31.9112587 109.9252129  18.9128864
  32.6664996 111.0365200  19.6097291  81.0499763  69.9675941  47.8352404
  81.5248871  69.2557955  48.2642412  80.2384377  69.5632887  47.5283861
  83.0229568  17.8378344  40.6553602  83.7842464  18.3722532  40.8813381
  83.0405426  17.7879250  39.6996212  77.3275328  64.1592026  36.7269611
  77.5759792  64.0460110  37.6444006  76.8221474  64.9720097  36.7142153
  70.8962536  97.2786522  65.6209707  71.2349224  98.1725693  65.5715179
  71.1940670  96.8645477  64.8110008  54.2343330  88.3915710  57.1896076
  53.9782095  88.4056950  58.1117964  54.1800404  87.4690723  56.9400501
  29.0937543  75.1425695  41.4188957  28.3946705  75.4175949  40.8257055
  28.8384628  75.4970503  42.2706032  45.0207376 105.6817627  64.2837906
  44.3287182 105.6597328  64.9447441  45.2694225 104.7648716  64.1667414
   7.2012210  64.3903732  14.4572401   7.3058271  63.8048124  13.7073028
   7.9229647  64.1610575  15.0426733  71.3662434  55.3256416  42.7551031
  72.2818804  55.5154181  42.9596186  71.3504934  55.2184916  41.8040514
  18.7577665  55.6923485  24.0978789  18.6005473  54.7887325  23.8240433
  19.6719992  55.8569670  23.8669896  64.2058897  82.2784805  37.1244693
  65.0295067  81.8079090  36.9962406  64.3031263  83.0771637  36.6059279
   0.4490967  94.7184849   8.1140220   0.3001256  93.7775135   8.2069010
   0.8812921  94.8098850   7.2648549  30.5530381  68.7755823  46.5366125
  30.1247549  69.5984697  46.7725277  30.0151610  68.4198284  45.8292532
  22.0862722  49.4403028  72.0758247  22.7418280  49.8657942  71.5231657
  22.4764943  48.5965395  72.3039198  56.7529488  61.7383099  41.5993214
  57.2604895  61.0823345  41.1214828  57.0721102  62.5771427  41.2665606
  36.0114002 104.4653225  17.7418888  36.4371419 104.3758011  16.8892670
  36.3265228 105.3034878  18.0801284  20.8349729  90.5558872  30.8004451
  20.1683736  90.6568813  30.1209784  21.3501859  89.7994995  30.5199766
  22.8473353  76.6233253  50.0675297  22.7277780  75.8019447  50.5442619
  22.8446078  76.3674831  49.1451550   9.6352214 110.6455421  50.3669786
   8.9306962 110.6981945  51.0128117   9.6133143 109.7384739  50.0620508
  62.5666332  95.1438808  50.7959652  61.8027067  94.5913029  50.9612226
  63.3040619  94.6439838  51.1460066  43.7058544  56.1914730  35.4416442
  44.1065741  57.0501137  35.5772543  44.3895388  55.5670643  35.6843758
  81.4465237   1.5727963  40.9048367  80.7800102   2.0647013  41.3844395
  81.7121410   0.8785900  41.5079594  95.1270485   4.4723338  45.2768087
  94.6011639   5.2410841  45.4974890  95.9718132   4.8303208  45.0039434
  65.3211069  14.7932494   8.4799176  65.4996347  13.8733363   8.2846755
  65.5920315  14.9015594   9.3915653  85.9555435  59.9164200  71.5617085
  85.1330757  60.3480864  71.7928886  86.4259720  60.5632687  71.0358572
  63.6376524  77.3338938  22.4962354  64.0258265  76.4918804  22.7340555
  63.2090855  77.1712589  21.6559291   4.2835838   8.5470748  51.1435366
   5.2053040   8.5297185  51.4011431   3.8376617   8.0298162  51.8142271
  51.7364931  86.0473251   8.7163967  51.7733622  86.4943314   7.8707838
  52.5173807  85.4938984   8.7290144  81.2547874  63.8679171   4.7418773
  81.5248203  63.0649424   4.2962930  82.0762062  64.2900372   4.9935019
  87.1574974  11.4130437  50.7293606  86.6220474  11.3139236  49.9421549
  88.0558491  11.4649022  50.4030132  38.1932235 104.3988037  37.2034049
  38.1943536 104.5912361  36.2657475  38.9826274 103.8753319  37.3414302
  27.5743127  88.0804825  65.8354092  27.1403766  87.2273064  65.8295679
  27.5262928  88.3798409  64.9274969  27.3294592  66.9763756  43.2118320
  27.8405714  67.0743990  44.0151930  27.4910712  66.0748672  42.9336309
  21.3716674  38.6733341  23.1157875  20.7875562  38.6197853  22.3593640
  21.9127679  39.4445419  22.9464388  41.6589260  49.0878963  43.7073994
  42.1979523  48.9718056  42.9249668  40.7896614  49.3035078  43.3695745
  67.8967285  96.3044930  39.5042443  68.4553003  96.7186165  38.8464260
  67.0412493  96.2323666  39.0809417  61.7961597  57.4314499  50.7341909
  61.9298410  58.3717966  50.6154346  62.6680660  57.0505095  50.6297970
  62.1467638  13.9416409  65.3863239  61.8640137  13.5125077  66.1938715
  62.6658392  14.6896768  65.6816816  40.4198360 105.0632286  76.1108732
  40.8412313 105.5473518  75.4007435  39.8993945 105.7204151  76.5729094
  70.9401989  95.6337166  44.5897770  71.6629267  95.0254917  44.4350100
  71.3662052  96.4748573  44.7548199  49.8039103  98.9258003  36.7247534
  49.2061710  98.9186764  37.4723458  50.4783440  99.5617390  36.9633937
  22.7356935  97.7224731  53.2712603  22.0928955  98.4311295  53.3001709
  23.5604882  98.1367493  53.5248756  79.0041590  25.1062417  44.8241138
  79.7333336  24.6283579  45.2192926  79.3916559  25.5566549  44.0736437
  95.9074783  77.5798512  45.9227467  95.3688717  77.7177620  45.1435757
  95.7509041  76.6667747  46.1636019  51.6170311  91.8159294  31.8854475
  50.6772232  91.6535473  31.8040776  51.7238951  92.1661377  32.7698469
  70.1962185  88.7986660  19.6480513  69.6353054  88.4711552  20.3511453
  69.8759699  89.6847725  19.4792533 116.0190010  10.6374085  38.6694860
 115.7854939  11.2295794  37.9546142 116.9711494  10.5572641  38.6127877
  90.2308739   0.5911968  49.9462175  90.2091825   1.5025566  49.6543694
  90.3132236   0.0831554  49.1391563  36.4864683  39.7273540  21.0585380
  36.4060736  38.8958669  20.5912066  37.4102855  39.7755384  21.3044572
  49.3468428  97.4741077  51.9478321  48.4794044  97.7249622  51.6302490
  49.7879314  97.1123505  51.1791992  38.6953878  87.8105068  34.9507189
  37.8987145  88.2814217  35.1952267  38.4497476  87.3131275  34.1706514
  30.2947998  64.8545504  52.7672577  29.8305941  64.1260481  53.1796122
  31.0728145  64.4539499  52.3793888  16.6286242   1.9265763  56.3136053
  16.4369476   2.3913756  57.1281338  16.6274261   2.6090318  55.6424236
  86.4805698  27.6264524  49.2830753  85.8044052  27.1416950  48.8097429
  86.0132504  28.3587599  49.6850252  30.9701967  93.1643963  46.1343384
  30.1537776  93.0970764  45.6392002  31.3502550  92.2870064  46.0899973
  62.2830009 102.9952621  74.3720245  62.1535587 103.7924576  74.8857880
  62.6056194 102.3527813  75.0039816  38.5318446 102.8667450  22.9646873
  39.3714929 102.7363300  22.5239897  37.9626584 102.1884155  22.6011920
 105.8471394  30.1305366  42.3550463 106.7468643  29.9579287  42.0776749
 105.3475189  29.3833399  42.0259428  64.1354227  81.4479733  47.9763699
  65.0394678  81.3458157  47.6788807  63.7001896  81.9158840  47.2637224
  83.3802700  63.4220171  70.6875086  84.0767097  63.8464785  70.1864672
  82.6348495  63.3967638  70.0875568  37.2563314  81.8414211  40.2122355
  36.7873478  81.0129261  40.1127863  38.1487751  81.5850449  40.4447269
  88.3348560  21.0449028  52.4224377  87.9579639  21.7864537  52.8960228
  87.6259136  20.7355165  51.8585968  10.0429320  36.5636730  34.4544172
   9.4305402  37.2979355  34.4998789   9.5478308  35.8175707  34.7927022
  67.7065945  75.8414745  41.5888977  68.0273008  75.4299355  40.7863903
  67.7585649  75.1507759  42.2495508  61.9115686 103.1507587  48.1796503
  61.7380857 102.6089382  47.4098682  61.6637754 102.5991058  48.9216089
  35.4536676  90.4180336  37.1877241  36.3318682  90.7122231  36.9459581
  34.8712587  90.8848572  36.5884662  64.3029690  91.3272858  42.2141552
  64.7471762  90.5042458  42.4179268  64.9641657  92.0014668  42.3707438
  81.0223007  75.2113676  75.2185392  81.6734982  74.6483946  75.6371593
  81.4917374  76.0251093  75.0349951  43.5217714  96.1528587  49.2062855
  43.9038944  96.0084724  48.3406258  42.8276300  95.4972553  49.2740631
   6.5686703  17.3722136  52.9818726   7.4123341  17.3575282  52.5299358
   6.4948463  18.2637513  53.3223772   2.2007895   7.5859261  48.3530760
   2.9647067   7.4128878  48.9032793   1.4783928   7.6905435  48.9722967
 114.6982098   0.1600080  44.4628525 115.4300022   0.6168592  44.8775768
 113.9832020   0.7963469  44.4707346  29.9921942  98.7510872  40.8254862
  29.4427562  99.5231056  40.6900501  29.4296098  98.1363678  41.2964916
  53.8656521  89.6955585  59.9294901  53.7916803  90.6376457  59.7770739
  53.9607620  89.6131897  60.8783865  84.1791534  13.7637103  70.8701801
  83.4863091  14.2482746  71.3189411  84.9575424  13.9043176  71.4092398
  73.9305925  81.3563919  43.3216619  73.7021875  82.2359180  43.6224747
  74.7081137  81.4835739  42.7780437  37.4537659  97.7709293  90.4076290
  37.0033312  97.2317028  89.7575665  36.8148351  98.4426975  90.6457901
  60.2979755  81.3361931   9.4767731  60.1931429  80.3905773   9.5819855
  60.0955009  81.4985752   8.5554332  49.2062569 109.9488831  49.6688652
  49.6837330 110.7073975  50.0048733  49.1348267 109.3591213  50.4194021
  36.0080624  99.6263790  27.1406579  35.9708285  98.9203835  26.4953494
  36.1899018 100.4123783  26.6255212  12.6009679  64.2515802  53.2137108
  12.9642057  65.1204300  53.3851337  13.3288598  63.7579441  52.8359127
  24.8703480 107.7727032  29.3906236  24.6884656 108.2926750  30.1734257
  25.4066563 107.0451355  29.7056484  61.8793678  16.8900359  59.8858261
  62.8087234  16.7095184  59.7445965  61.4970541  16.0355318  60.0855494
  68.8860607  17.7747834  81.7485428  68.8060808  18.6596882  81.3924789
  68.4571648  17.2161186  81.1003399  66.0136080  94.2307472  60.6558704
  65.3752947  94.9016953  60.8979654  66.3621712  94.5243645  59.8141336
  65.4344511  15.2073836  48.9428949  64.5878077  14.8998368  48.6190987
  65.4951525  16.1112404  48.6337185  87.7736759  24.4164634  60.2366400
  88.1831074  24.8346615  60.9940720  87.0470428  23.9135098  60.6044340
  85.8024597   2.5656044  76.2415552  85.8409405   3.2984459  76.8561220
  84.9759579   2.1269551  76.4433289  38.3801341  87.6848125  63.4771109
  38.9749622  87.9135227  64.1913271  37.5149035  87.9446125  63.7935257
  35.4035592  83.4590816  50.4065800  35.8166361  82.6853943  50.0231457
  36.1100459  84.1019440  50.4684401  90.4405689  22.6306868  33.8903379
  90.1565933  22.2170186  33.0751896  89.8305225  22.3022366  34.5507908
  96.0052395  97.9431534  27.7983522  96.1442184  98.8616371  28.0292034
  95.8836365  97.9505634  26.8489361  82.2068405  91.3420391  54.0098238
  81.9567490  92.2587395  54.1253328  83.1069851  91.2969017  54.3322086
 104.1291714  18.1028509  22.1555400 103.3217144  18.2148242  22.6572490
 103.8521767  17.6655412  21.3503909  77.1369886   3.1905031  26.6698050
  77.9482508   2.8786901  27.0708823  76.4527225   2.9478562  27.2936106
  63.9513922  89.9368382  51.2248278  64.8206854  90.2361298  51.4912558
  64.1203499  89.2895317  50.5402279 111.7646122  18.1474030  49.3357134
 112.3251724  18.7871492  48.8966990 110.9316063  18.1971610  48.8668156
  69.6270180  11.8998027  46.9931269  69.1388893  12.6139545  47.4029493
  69.1003084  11.6554749  46.2321329  30.7234788 102.9990387  29.0741467
  31.3241839 102.3191929  28.7688756  29.8825788 102.7713299  28.6775804
  47.5106335  98.0571842  53.9963961  48.3100080  97.6035690  53.7290621
  46.9265223  97.9776955  53.2422590  75.8094025 104.6439743  48.6988068
  74.9706364 104.8455334  49.1136312  75.7139683 104.9591541  47.8000355
  82.3321629  29.7802567  38.2719421  82.5333118  30.5987859  37.8183103
  81.8361568  29.2681050  37.6332688  30.1956058  74.4137001  55.9255457
  30.6026912  73.6209393  55.5761957  30.1434350  74.2603683  56.8689442
  37.1005297 111.0967541  27.2333765  36.2823033 111.2851238  27.6929975
  37.7590680 111.0491848  27.9264116  75.8646059 103.0870247  34.8987460
  74.9733734 102.8918743  35.1883101  75.7688999 103.8468552  34.3245196
  89.0514565 100.3940773  91.4842987  89.4839096 100.8582401  90.7675266
  88.7346458  99.5826340  91.0875320  25.2654791  45.9194231  93.2701683
  24.4058275  46.2853718  93.0620480  25.0741529  45.0717735  93.6715603
  69.6167183  73.2537842  26.5629196  69.6788931  74.2080307  26.5207267
  70.5253601  72.9563904  26.6094255  44.3057919 106.0513973  51.0632563
  43.6936712 106.7481518  51.3000584  44.4411945 105.5649471  51.8764353
  24.9602461  80.0732708  39.0777373  25.8310795  80.2434444  38.7186790
  24.7305036  79.2047453  38.7474132  44.9722290  78.4067535  48.0228996
  44.5351362  79.0489483  47.4636412  45.2045822  78.8954830  48.8124514
  52.8691816 100.8741474  22.8440237  53.7193680 100.5752468  22.5214195
  52.2906113 100.1204300  22.7282572  18.6391664  87.0078373  46.4683390
  18.6872065  86.5345955  47.2989798  19.3296421  86.6194344  45.9311152
  47.9416895 107.8770161  10.0264716  47.6415157 108.7635422  10.2269733
  48.3986950 107.5940228  10.8184898  31.5325642  82.2006989  29.4228363
  32.2365594  82.6856327  29.8534966  31.5993428  81.3147259  29.7789407
  68.8584900  98.4692669  55.0455713  68.7614822  99.4188023  54.9733877
  68.0498934  98.1169415  54.6737289  98.3205032  94.5537472  49.4246531
  99.2115498  94.7455406  49.1322660  98.2212734  95.0541496  50.2345800
  32.5957346 100.7588100  44.6139526  32.5158334 101.2116528  43.7744427
  33.5036659 100.9050274  44.8794985  45.8807135  89.6689987  46.0202646
  46.6658115  89.8112297  46.5490532  46.1264706  88.9750576  45.4084826
  93.0763531  60.1273394  43.3972645  93.6247349  60.1374340  42.6127863
  92.4173069  60.8028936  43.2375050 103.8229847  71.8833351  35.0918245
 104.4006634  72.6226711  34.9023557 103.0376244  72.2827387  35.4658818
  58.1902885  78.8781834  48.5938072  58.6521387  79.6637917  48.8866282
  58.7991524  78.1616449  48.7729359  55.8158493 106.6290188  48.7754345
  55.9738874 106.1966324  47.9362106  55.4391289 107.4770927  48.5407352
  50.9699345  74.8693132  22.3854160  51.6393995  74.5360231  21.7879510
  50.6963682  74.1032553  22.8899431  48.9786720  79.1137171  13.8419735
  49.9155474  78.9606619  13.9647222  48.7388515  79.7114944  14.5500529
  51.7201424  98.9763927  73.1308413  52.0495605  98.8109112  72.2474766
  51.0185623  98.3359814  73.2487059  50.2497923 111.3358819  53.6789465
  50.1770365 111.8981853  52.9077435  50.8715689 110.6552603  53.4212971
  35.9262609 103.6788654  48.7032557  36.5455389 103.0769920  49.1161394
  36.3399506 103.9160919  47.8733063  74.5980358  98.1866741  90.9804440
  73.9882565  97.4497128  91.0164452  75.3766680  97.8760815  91.4424896
 112.1735001  40.8709145  31.9997573 112.2094631  40.5652046  32.9061127
 111.2662506  41.1503458  31.8770623  14.2005002 107.4855042  57.0912600
  15.0497091 107.1157360  57.3328066  14.0307832 107.1425915  56.2138510
  74.3240738 104.6979332  28.6428595  74.1360521 105.1385880  27.8141832
  73.4630728 104.5330524  29.0272021  40.6761837  90.2165604  34.7443104
  40.6400728  90.8741474  35.4389334  39.8703909  89.7110271  34.8509407
 117.6618004  15.4097128  73.7494993 117.8923416  15.3007901  72.8268862
 117.0565033  14.6909070  73.9316034  17.2338700  44.0414047  93.3798695
  16.9734764  44.8261213  92.8975296  18.1405520  43.8870907  93.1146431
  66.3163996  77.6140785  47.0297861  65.6079674  78.1595993  46.6880798
  66.8112373  77.3504782  46.2539768  47.0962286  95.9934330  49.7257471
  46.6322660  95.1576996  49.6755075  48.0202532  95.7601452  49.6363974
  77.3231316   2.2998451  71.2230158  77.7015972   1.5566674  71.6927814
  77.6177263   2.1871038  70.3192806  14.1313541  11.3240480  38.1415296
  14.8139930  11.9866538  38.2473183  14.6090126  10.4979706  38.0662346
  16.7187154 106.9561100  21.0782623  16.6580248 106.9468307  22.0334911
  15.8297372 107.1540451  20.7836962  59.0677023 105.8191681  54.9569225
  59.9972248 106.0275078  54.8630381  58.7236643 106.5092659  55.5240488
   8.9255929 110.3469658  55.7039642   9.3283588 109.5342541  55.3981638
   8.2512766 110.0627136  56.3209963  25.1882887 109.8654842  36.2514925
  24.9454880 110.7711697  36.0591197  26.0695601 109.9268818  36.6200304
  21.9001770 110.3213978   8.4599847  21.7908645 109.5084667   8.9533663
  21.9398308 110.0428104   7.5450808  88.1014538  84.4871330  22.3234487
  88.5333920  84.6385765  23.1641197  87.4670601  83.7928867  22.5017524
 107.2337532  19.0035629  40.5029249 106.2788773  19.0663826  40.5252457
 107.4558449  18.4610355  41.2596083  86.8728924  94.6029472  47.1252346
  87.5287628  94.3096924  47.7577448  86.0575676  94.1973782  47.4201775
  90.8223152   7.0782733  82.8746033  89.9448872   6.8583888  83.1876469
  91.1031246   7.8004521  83.4366035  48.7474155  70.4242802  30.3701448
  48.9678812  70.4536247  31.3011479  48.2046318  71.1997890  30.2279878
  61.7679977 109.2017078  14.1790438  61.3120604 108.8962364  14.9632871
  61.0737896 109.5465088  13.6174178  86.6413021 108.6668396  44.6254730
  87.5264168 108.6118507  44.9857235  86.0780430 108.7827301  45.3906775
   7.8262407  51.8236399   2.4711116   7.3931301  51.8891668   1.6200222
   7.2395939  52.2801447   3.0741704  86.2960529  62.9534626  36.6051674
  85.4711914  63.1124735  37.0640182  86.9579792  63.3838987  37.1462870
  82.8524685  10.5548489  35.1804519  83.6281586  10.0035441  35.2833700
  82.9277325  11.2067068  35.8773351 101.4925003   3.1923288  91.0249805
 102.2452545   3.3920264  91.5815067 101.2139225   2.3197636  91.3029385
  51.6875029 110.5322838  59.7960043  52.2752905 110.4591274  59.0440845
  50.8090591 110.4824924  59.4190550  44.0455532  86.0837555  61.7931080
  44.8642302  85.6180859  61.6223717  43.4992027  85.8953476  61.0300636
  52.1861076  81.5841579   5.7736111  51.4553308  81.3507748   6.3460904
  51.7704058  81.9081879   4.9745929  57.1279526  99.5553303  40.3875446
  56.2652397  99.4653988  40.7923555  57.0028067 100.2091789  39.6997523
  72.6350880  14.0059876  64.5373058  72.5172043  14.5615447  65.3078222
  71.7493677  13.7264395  64.3058157  50.4238462  99.2727375  28.2024455
  49.7089863  98.7674522  27.8152871  50.7286978  99.8386288  27.4931717
  47.8985977  87.6493835  58.5740995  47.4870682  88.5058212  58.6898375
  47.6932096  87.4049473  57.6717138  15.7368088  84.2714024  53.6662006
  16.2065053  83.4417343  53.7514114  15.1804006  84.1536617  52.8962803
  13.8055396  82.8742218  12.4824774  13.0726397  83.3476543  12.8761160
  14.5846331  83.3229733  12.8109086 111.9119740   5.0406396  77.5595665
 111.3729668   4.2934176  77.3000336 111.8621540   5.6415951  76.8161917
  58.6784363  86.8410015  21.9506550  59.4583559  87.2607136  22.3136950
  59.0158558  86.2500191  21.2775111  49.7946739  89.7068310  33.2437921
  49.2677164  90.3528214  32.7734184  49.5584536  88.8691521  32.8454018
  44.8916208 111.0277302  69.6827555  45.4489672 111.6604380  69.2296839
  44.0811598 111.0147315  69.1736174  66.8699837 101.3469887  35.6967926
  67.8098106 101.4761353  35.5692172  66.6245317 100.7023811  35.0331163
  44.2064047  78.2488775  30.7530117  45.1307249  78.0002069  30.7471943
  44.2158699  79.2049313  30.7988691  23.7401462  83.9946842  62.5319529
  23.7212682  84.5784950  61.7736387  22.8576541  84.0496731  62.8985834
  81.0396957  23.1272268  26.9758916  81.5300369  23.6765289  27.5874972
  80.2861500  23.6616182  26.7252278  41.4340067 110.9599018  52.5214005
  41.4801455 111.7092609  53.1151628  41.9351053 111.2322235  51.7526531
  45.5074501  72.0326757  43.1525135  44.6800089  71.6266012  43.4107304
  45.5962420  72.7868605  43.7352228  15.7747936  70.3924751  45.7119036
  15.7461977  70.0562286  44.8161602  16.7004633  70.3544521  45.9525681
   5.4811800  14.7430933  79.4631863   5.5904067  15.2428722  80.2722073
   6.0582471  13.9867830  79.5691109  45.3240204  75.4550934  33.3243275
  46.2687016  75.5400324  33.4531474  44.9955559  76.3534212  33.3610749
  80.2465534 106.5319061  56.2403488  79.8883200 106.1568928  55.4358244
  79.4773960 106.7406845  56.7704773  47.1079826 106.4165497  58.6679745
  47.0535564 106.8823719  59.5024061  46.5455961 106.9172668  58.0770159
  47.0526981  77.1075201  56.2589741  46.7272663  77.3889732  55.4039240
  47.9241228  77.4981785  56.3240242  93.4953976  86.2525749  51.8972826
  93.0863667  86.0653305  51.0523748  93.1372929  87.1024418  52.1536398
  82.3996830  92.5628471  51.2209034  82.6750183  91.9384861  50.5496359
  82.4117088  92.0598602  52.0352077  95.1526451  18.9940655  54.8181677
  96.0486794  19.2278838  55.0604153  95.1486588  19.0201843  53.8613319
  60.2054310  86.5160084  46.8302441  60.8822203  86.4707375  47.5056219
  60.6041527  87.0264149  46.1254454  61.2319899  79.5502377  43.4096336
  61.4606047  79.1098976  42.5910568  61.9486237  79.3339443  44.0061998
  52.2068024  94.4572258  50.0944996  53.0438375  94.0278816  49.9176979
  51.7502975  93.8580227  50.6850863  61.4982414  89.9470901  58.8978672
  60.8842325  90.6313038  59.1644859  61.3240147  89.8190212  57.9654074
  65.4302406  70.1799107  12.3176932  64.4799137  70.1567984  12.4298537
  65.6342697  69.3776655  11.8370581  94.6477413  91.3084888  64.3124962
  95.2270889  90.5783558  64.5304203  94.1915035  91.5046978  65.1307726
 101.1713600  47.7800703  94.9701691 101.1992836  47.5025558  95.8858299
 100.2546406  47.6745224  94.7157574  46.1718273  97.9366493  88.6900616
  45.9240389  98.0474281  87.7721500  45.6791830  97.1689510  88.9801598
  69.0645552  93.7669277  59.8224640  69.9219418  93.3702183  59.9765253
  68.5069513  93.4077358  60.5126047  61.1038494  94.4512653  56.9525957
  61.5290070  95.2940369  57.1113920  61.0397816  94.3911552  55.9994364
  66.0681248  96.0215187   2.9336327  65.4440880  96.5213013   2.4072985
  66.9198942  96.4036274   2.7221724  67.8237820  83.4453392  51.4290953
  67.8375959  83.5709953  50.4802752  68.4205818  82.7128315  51.5824032
  56.6616631 105.9171581  78.5881424  56.5883017 106.7040443  79.1282034
  56.1135340 105.2700520  79.0320253  75.3728008  82.9947186  65.8686447
  75.7858419  82.2380638  66.2847042  76.0906553  83.6119747  65.7275152
  54.2676926  94.1988850  77.0462227  54.2518854  93.9523983  77.9710054
  54.4361639  95.1411247  77.0523357  36.6376114  93.3733082  63.2138777
  36.0727167  93.6759853  63.9248753  37.5238204  93.4309006  63.5710144
  67.9860926  79.7300148  47.9700518  67.5670528  80.1291752  47.2076178
  67.6382637  78.8386011  47.9952335  53.1177521  90.1354313  15.1656675
  52.8781652  89.2226219  15.3257203  53.2804728  90.4966640  16.0370243
  55.5719090  85.6030846  18.4616697  55.8502340  86.4986420  18.6533582
  54.6257162  85.6102085  18.6062276 100.8411121   4.6018183  59.7619390
 101.0426998   4.0278184  59.0229416 100.3351307   5.3178942  59.3779564
  39.5310020 106.1588573  55.1308298  39.3944430 105.3934956  54.5724297
  39.3650007 106.9067287  54.5569324  60.5345011  92.3643970  29.5250225
  59.7700024  91.8122387  29.3610454  60.5179501  93.0118370  28.8201904
  62.4249887  83.4200859   5.4610336  61.5047598  83.4631538   5.7209456
  62.8961897  83.2467651   6.2759948  65.9443092  98.4485149  72.3193073
  65.6255770  99.0533352  72.9892588  66.0278749  98.9859676  71.5316534
  57.6083612 108.4703636   6.3063765  58.4501505 108.6559486   6.7225283
  57.0983696 108.0274677   6.9845957  55.2077818  56.4239025  13.3825684
  55.4463482  57.0523214  14.0640450  55.9219503  55.7865715  13.3838522
  45.8471298  82.2952271  43.2719517  46.6537428  82.7551651  43.0394363
  45.9905529  81.3960361  42.9768085  21.4885187  94.0534878  29.3969917
  20.5497456  94.0854359  29.2128396  21.5498400  93.6384678  30.2573586
  74.3936157  83.6137772  34.0179038  74.5930958  83.4009361  34.9295712
  74.7784376  84.4799995  33.8844585  68.3217955 109.2866421  32.6356864
  69.2728233 109.1786957  32.6246977  68.1464958 109.9354076  31.9540620
  38.4499907 105.8117104  39.2778587  39.3945718 105.9470463  39.3532205
  38.3382964 105.3643799  38.4390163 103.7837124   9.6561462  29.6687627
 104.6588707   9.9564552  29.4235229 103.9210987   9.1421294  30.4644656
  60.7413912  32.1246076   7.9883868  61.4645004  32.7440047   8.0868489
  60.8360100  31.5262055   8.7294632  94.3937397  92.0526505  61.7025709
  94.4153881  91.7056847  62.5944138  94.7159672  92.9500389  61.7868042
  59.0842772  62.8617096  51.9760132  58.1797791  63.1494713  51.8522835
  59.0120983  62.0624733  52.4977779  69.1126156  68.3118391  80.8210468
  68.3911371  68.6980724  81.3175583  68.8536167  68.4120274  79.9050188
  41.4703083  88.9030170  14.6730900  42.2980881  88.5282803  14.9740648
  41.7182684  89.7290611  14.2578757  50.9282255  89.1866207  69.0424585
  51.5243721  88.8954926  69.7324467  50.9937716  88.5103416  68.3682203
  77.1647930 106.9774151  45.8484077  76.9405746 106.0677528  45.6522274
  78.1181383 107.0114422  45.7696199  71.1761045 108.1711674  38.0830956
  71.4024448 109.0974808  37.9998398  70.5126238 108.1477547  38.7726474
  60.3160381  95.8362198  42.2295904  60.0199652  96.4281750  41.5380907
  61.2027311  95.5874920  41.9685602  50.3003168 102.1064091  53.1426573
  50.8236074 101.3325691  52.9339075  49.5552111 101.7653561  53.6373615
  82.2404766  87.8157234  24.9247956  82.7170944  88.3582115  24.2964792
  81.5819454  88.4024525  25.2967072  70.1554108  92.2557831  40.9546232
  70.4762220  92.1875191  41.8538761  70.6757736  92.9597473  40.5674696
  83.7595749  66.8615723  23.7536716  83.9927578  66.7924070  24.6794581
  84.5597744  67.1685505  23.3274245  41.7786980  95.0728130  61.8399906
  41.6468477  95.7329273  62.5204945  40.9260654  94.9967480  61.4116716
  74.4055748  95.8975220  72.8979540  74.9730206  96.0962772  73.6427593
  75.0094271  95.7393646  72.1722937  42.4198580 105.1060963  70.6129265
  41.6788626 104.5364952  70.4062605  43.1018686 104.8460388  69.9936819
  33.7570715  84.7367096  60.5273771  34.2050743  84.6888447  59.6828413
  33.4104824  85.6281853  60.5644655   2.7050689  31.8062329  77.7627802
   2.6822591  31.3467169  78.6021614   3.1932774  31.2217236  77.1829271
  50.2283382 101.3561535  46.7493486  50.1746321 102.2965145  46.9198704
  51.1636591 101.1860085  46.6377449  82.0981121  92.0797729  22.1802974
  82.3179722  92.9835320  22.4063635  81.4812756  92.1581936  21.4525580
  87.6230431   5.7796884  59.3864298  87.9325676   6.3489836  58.6819267
  87.5759506   6.3511080  60.1529121  35.7736135  90.6977367  62.2063208
  35.6045747  91.1434269  61.3762474  35.7370210  91.3929558  62.8632545
  76.3273382  85.6349373  13.2703459  75.5997849  85.9032822  12.7091980
  77.0721292  85.5540180  12.6745522  76.7387247  65.2739286  56.0947704
  76.8477726  65.2117968  57.0437050  75.9723711  64.7324371  55.9057808
  66.4917803  59.7826910  45.3968287  66.5020180  60.5252409  44.7928810
  66.5066957  60.1814127  46.2669039  90.5208111  81.6710567  81.9479465
  90.9455395  82.4289227  81.5460968  90.8067703  80.9271717  81.4177704
 116.9645214  26.9723058  58.0142069 117.3496628  26.1285210  57.7777195
 117.1196747  27.5287437  57.2509670  48.3505249  91.7539883  18.7410212
  48.6358786  90.9075451  19.0850234  48.9937830  91.9669247  18.0649245
  66.3704538 107.8060722  33.8278127  66.9950724 108.3964157  33.4064198
  66.2277937 107.1104717  33.1859183  49.2292070  98.0788326  56.3605928
  48.9229870  98.2423878  57.2526169  48.8864470  97.2115135  56.1449432
  72.4107122  68.1336880  61.9216299  73.1820726  67.8944302  61.4078283
  72.1187258  67.3103428  62.3128843 117.6247978   3.2143638  66.7591429
 117.0765972   3.0214480  65.9985590 118.4853172   2.8638101  66.5292454
  70.1067495  19.3412614  71.6226912  70.6655407  20.0390625  71.2805605
  69.3321753  19.3573618  71.0605478 105.0309086   9.5862216  37.4745584
 104.2940140  10.1966119  37.4997115 105.3916073   9.6095586  38.3608890
  84.8112869  76.1571169  83.6983776  84.6198940  77.0150805  84.0771866
  84.0925980  75.9999466  83.0859947  23.4696245  83.8748074  47.3153257
  22.6914549  84.0661144  47.8388548  24.0767789  84.5859241  47.5200224
  69.4129372 109.7021580  26.5491509  68.9789820 110.4257774  27.0011425
  69.7568417 109.1519833  27.2529078  87.2814083   8.5475200  48.7349796
  87.2840786   9.4464993  48.4062481  87.3965549   8.0064964  47.9537821
 112.0104408   5.3079045  29.9327588 112.0382023   6.1910748  30.3008223
 111.3859272   4.8377281  30.4851651 111.9796371  11.9469059  47.1426296
 111.6963959  11.3812780  47.8610134 111.7073441  12.8254032  47.4078369
  86.7189980  14.3472433  72.5585842  87.3300934  15.0822783  72.6087904
  86.9203186  13.8153768  73.3285332  15.9042168  11.3638258  63.1810093
  14.9836075  11.3772762  62.9192305  16.2278461  10.5165136  62.8751373
  62.6614428  90.6989670  30.4832077  63.3168316  91.1479092  29.9492121
  61.8651581  91.2183571  30.3718877   2.1545529  12.1593571  57.1454906
   1.7888650  13.0307603  56.9933081   1.3898808  11.5967071  57.2676945
  80.2852249  95.4631615  45.0196171  80.1693535  94.7197723  45.6113768
  81.0974503  95.2717018  44.5507193  21.2252569  91.1435986  40.3238153
  20.9611177  90.2509308  40.1011038  21.6592073  91.0601902  41.1729097
  67.2758913 100.5798244  67.8381968  68.1091404 100.1632881  67.6181364
  67.2084045 101.3162899  67.2304964 107.8335857   1.8562165  62.8303957
 107.5935078   1.3145207  63.5821676 107.4215889   2.7026406  63.0037594
  84.8601627 106.9662762  34.6887493  85.5238247 106.8640232  35.3709054
  85.3557968 106.9621849  33.8698673  85.7106781  71.5496826  49.4620466
  84.8229980  71.6794300  49.1282558  85.7366467  70.6287909  49.7218752
  95.1295662  51.5919209  27.1246147  95.9213066  51.0631561  27.2235322
  94.9990177  51.6529894  26.1783290  66.6236019  82.1819115  46.6154385
  67.5016308  82.0573711  46.2551737  66.2382364  82.8710842  46.0743618
 114.0518761  13.1323755  55.5322695 113.2833099  12.7749765  55.9770250
 114.4863892  12.3681736  55.1535463  59.3392038  93.8124657  37.2610426
  58.7546349  93.3397293  37.8535199  60.1785040  93.8356495  37.7206850
  58.1034422  96.9413471  54.6971226  57.9311562  96.5108109  55.5344915
  58.9794683  97.3143864  54.7953749  76.9932270 101.7963505  31.9505167
  76.7026377 100.8908844  32.0596957  77.9193401 101.7814445  32.1920204
  16.2417054   1.3314970  32.7957463  16.6667175   0.7676484  32.1494722
  16.9652891   1.7660612  33.2472014 115.5861664   1.2121844   9.1210485
 114.7894096   0.7762183   9.4232810 115.8425713   0.7261325   8.3373129
  87.3069477  15.4489946  19.0212202  88.2614517  15.4528344  18.9495230
  87.1370411  15.5190480  19.9606109  42.7369833  87.9761410  37.1787882
  43.1216240  88.4318447  36.4300418  42.2809458  88.6611938  37.6676369
  64.1286362   0.4389046  11.3379347  64.8462165  -0.1687290  11.1588073
  64.0631211   0.4573772  12.2927117  42.8069162  42.3955965  88.6470318
  42.7422762  42.9255724  89.4414997  43.2823706  42.9493570  88.0277348
  92.5883389  22.3025179  43.1568289  93.0210876  21.7094636  42.5426245
  92.9796124  23.1579685  42.9797745  34.9614263   9.1272908  38.2092786
  35.2445722   9.7662657  38.8633204  35.7728100   8.7215853  37.9038453
  51.4484596  92.5671768  46.3452291  50.6250334  92.6060390  45.8587170
  51.7539692  93.4739304  46.3718128 107.0184517  20.5343604  49.5324850
 106.2642765  20.2466440  49.0180206 107.1121216  19.8681521  50.2133846
  99.4612122  15.7518005  49.0813208  98.9369011  14.9550152  49.1617012
  99.0250111  16.2573898  48.3955145  86.5894699  93.8558578  85.6732368
  87.2460556  93.3827591  85.1620579  87.0265102  94.0514183  86.5020847
  13.7075865   8.6145806  43.6860228  14.5424104   8.6999893  43.2255793
  13.1132257   9.1982812  43.2145739   6.6688305  36.3957334  73.0289125
   7.0989150  35.8697248  73.7031317   6.2460667  37.1055365  73.5123205
 111.7914581  13.0912721  42.2617388 111.1119270  12.4334264  42.4090624
 112.5777435  12.5829852  42.0626688  81.0231209  10.6897891  48.6367226
  80.6218529  10.1484597  47.9568768  80.4920864  10.5276954  49.4164419
  61.7147350  68.5234070  39.5246172  62.2144699  68.8473892  40.2739716
  60.8008480  68.6876917  39.7571087  92.8864861  96.3737297  85.3149414
  92.5152969  96.8685722  84.5844746  92.1799374  95.7909107  85.5930138
  37.3740792 102.7620316   9.4159824  37.0115924 102.3165703  10.1817501
  37.0055294 102.2914219   8.6683714  19.6887505  25.8428478  55.0855684
  19.5026338  25.1202726  54.4860029  20.6433964  25.8575535  55.1538849
  93.9300919  93.4167385  53.9231491  93.8376522  94.3183041  54.2311335
  93.0730724  93.0206776  54.0809059 110.0715446  27.2538733  32.4021626
 110.4400826  26.3705254  32.4127054 110.8276558  27.8301907  32.5134730
  84.0540314   1.6579008  48.6046696  84.8740959   1.2180086  48.8287687
  83.5873795   1.0288229  48.0544567 109.1442776   1.3720272  36.3218164
 109.8809910   1.9670248  36.4613581 109.0069580   1.3789029  35.3745413
 103.1305695  32.4971390  56.7240047 103.1558228  31.8882942  55.9858274
 102.6096439  32.0463467  57.3885727 109.4782734  31.5916061  71.4404583
 109.5357132  30.8613968  70.8242369 109.9951744  32.2880268  71.0354376
  41.7853975  97.6282406  57.1311855  41.1712551  97.9780579  57.7766943
  42.5021696  97.2678280  57.6532745  86.2603188 105.3681469  27.7569270
  86.0645676 105.4612446  26.8245912  86.0195160 104.4649982  27.9632068
  86.8276978 101.8388557  47.4874449  87.2810459 101.0156345  47.6691437
  86.2690353 101.6436481  46.7351055  62.3656178  24.5153427  74.5650530
  61.8179417  24.1561818  73.8669968  62.2638798  25.4637766  74.4853163
 106.7926598  20.5361772  64.0767860 107.2138882  21.2968516  63.6765766
 107.2040844  19.7834826  63.6520386  69.6807671  10.7782924  55.7237673
  70.5979156  10.5548525  55.8823586  69.6961164  11.2960136  54.9188089
  23.1437516  23.5545754  76.3426113  23.3890486  23.0737376  77.1330929
  22.2110391  23.7386250  76.4539719  47.7996397  96.6189289  65.3398895
  47.6193476  95.8778191  65.9182310  47.7445459  97.3862076  65.9095240
   2.6160595  12.7214658  44.2560911   1.7799257  13.1313968  44.4776058
   3.1684747  13.4466577  43.9642572  72.3927641   1.4964728  58.8292551
  72.0720434   0.6503433  58.5171032  71.9750595   2.1378164  58.2544231
  86.6884327 102.1965313  37.3087025  85.9260941 102.2970200  36.7386293
  87.3909569 102.6603985  36.8531680  58.4071970  71.9950962  17.5891066
  58.5159016  71.0726357  17.8203750  57.4593830  72.1199036  17.5411141
 106.2752724  35.9267807  43.1252718 105.4649925  35.6819487  43.5721827
 106.8458462  35.1653433  43.2296419  54.1748810  89.1028500  31.1265540
  53.7842131  89.5673466  30.3863859  54.7551203  88.4564590  30.7243896
 114.4979858  64.6253061  68.8678980 114.9228859  65.4018879  69.2320585
 115.2154446  64.0117836  68.7095642  93.9332962  25.7904959  57.3523045
  93.5495853  24.9831867  57.0098829  94.3085670  25.5382681  58.1959772
  53.6625767 106.9200802  39.3914032  52.8722715 106.6715813  39.8708797
  53.4313822 107.7416039  38.9579582  46.2349367  78.0885696  20.7222509
  45.4950047  77.4813414  20.7194257  46.9299793  77.6213408  20.2587414
  37.6847935  87.6164913  67.6926470  37.3676038  87.0693588  68.4111595
  38.5972619  87.8000259  67.9161358  64.1302538 103.7767982  68.7968922
  64.2812729 104.3276215  68.0287600  63.8844061 102.9249382  68.4361601
 118.2370126   8.6003256   6.6250420 117.4274726   8.3127874   6.2029064
 117.9698575   8.8519055   7.5091046  14.2176807  87.9140377  11.8962228
  14.4340491  88.5348701  11.2005389  13.2782257  88.0307674  12.0377564
   3.8200280  30.8008218  90.3102684   3.7783033  30.1344204  89.6244144
   3.1134754  30.5688357  90.9129238 109.4387722  23.2048249  38.1577635
 109.7183895  22.4347162  37.6628160 108.9972687  22.8471446  38.9280725
  63.5738134  81.3850021   9.8354489  62.9373407  82.0703888  10.0388730
  63.1875515  80.5856133  10.1932359  70.7873964 101.8865013  26.4869571
  71.5046215 101.4775848  26.9713163  69.9963045 101.6009235  26.9439554
   1.8211125   3.6304083  35.7147503   1.2635276   3.0509129  35.1956010
   2.5483692   3.0748948  35.9953451 110.5154610   8.9863950  57.4849606
 110.3558636   9.3226254  56.6030836 109.9478340   9.5124668  58.0482292
  75.3540325  86.6318703  56.8935442  75.3969908  86.8762302  55.9690619
  74.9093962  87.3671913  57.3152399  58.8325882 107.4565792  51.8940210
  59.5240116 106.8130398  51.7390108  58.0215597 106.9492054  51.8618250
  12.2596967  10.5667436  42.7540922  12.0610976  10.4120684  41.8305826
  12.0172465  11.4809418  42.9013634   8.3277470   3.5328519  50.9843779
   8.9283437   3.8408834  50.3056812   8.3121687   4.2399833  51.6293240
 117.9707241  19.9217319  49.6273947 118.5758686  19.4539905  49.0518475
 117.2220421  19.3321955  49.7176552 112.2720337  18.4210825  14.2160487
 111.9967651  17.9295027  13.4422207 111.7598915  19.2290056  14.1812527
  47.6629543  95.0607109  41.0376740  47.7487469  94.9585629  40.0898123
  47.4502897  95.9858513  41.1605978  17.9119492  26.7691708  77.7015162
  17.5582254  27.4936318  77.1855068  17.9498446  26.0347748  77.0887709
   4.9600780  15.0144577  52.8211594   5.0848287  14.4045150  53.5482359
   5.6892949  15.6298637  52.8969860  76.4475727   8.3230454  40.5905294
  75.9821701   8.4529269  39.7642374  75.7544279   8.1985825  41.2388325
  61.5163946  97.1018600  49.0854788  62.3878336  97.4409962  48.8810015
  61.6815281  96.2784576  49.5447922   3.4297252  11.5434384  53.8039732
   3.8922060  11.5832424  52.9668617   2.5463280  11.8533790  53.6045313
  96.2563515   5.9655970  29.0978718  96.7839146   6.4115798  28.4353018
  95.5660534   5.5279744  28.5996699  78.3308315 103.9542198  34.8669457
  77.5293493 103.4315681  34.8407674  78.8328457 103.5866070  35.5943203
  90.4320717   7.2762567  80.0868511  89.6731663   6.8294185  79.7118378
  90.5207443   6.9028050  80.9637165  94.1465855  44.5700836  55.5599022
  94.6087170  43.7611818  55.3400183  93.4679317  44.2978764  56.1776066
  35.9099412  79.1539574  31.8936014  35.2064037  79.8022890  31.9241786
  36.3605690  79.3283081  31.0673046 100.6813431   1.0795499  71.4626551
 101.3669300   1.7469440  71.4346123 100.8661079   0.5147037  70.7122946
  92.8535938   1.6756648  39.7616577  93.7941265   1.6150573  39.9288440
  92.6222992   2.5691468  40.0154734  64.9356127  93.8463116  64.7220612
  65.7423210  93.7967968  65.2348995  64.9888420  94.6898079  64.2727280
  88.9285362   2.4054764  78.5434580  89.1387403   1.4812706  78.4096909
  88.6062420   2.7033565  77.6927996  77.7480602  97.0796299  49.7549534
  77.7406263  97.7121925  49.0365982  77.3932505  96.2775707  49.3714905
  62.5594568 104.9624920  40.6889534  62.2838306 104.7509193  39.7970438
  63.5138702 104.8926735  40.6676197  73.4740782 106.5871334  26.6994715
  73.7268877 106.8634605  25.8185840  73.0362511 107.3515701  27.0738792
  39.8826265  94.0402889  32.2009015  40.1816607  94.6494865  32.8759456
  40.3929090  93.2448673  32.3530626  55.4689503  89.4679737  37.6241636
  56.3988781  89.6288204  37.7841401  55.3849840  89.4763947  36.6706920
  18.4863925  93.5954094  11.9355893  18.7418270  93.6886692  12.8533518
  19.3148685  93.5093021  11.4639509  71.2598228  98.1038666  41.1731005
  70.4208183  97.8497314  41.5574408  71.0240269  98.6467361  40.4208183
 110.4466629   5.1232791  96.0299110 110.8468246   4.5662314  96.6975880
 109.9106121   4.5253605  95.5089664 109.1805267  28.5554814  30.2501512
 108.2339287  28.6918163  30.2900004 109.4085503  28.2053542  31.1113429
  19.5689988   2.6191318  83.6323071  19.7389638   3.5117888  83.9331436
  20.4358268   2.2176717  83.5717201  85.7308197  79.5824814  14.9220061
  86.6518784  79.8289490  14.8374546  85.2503109  80.3967571  14.7727060
  79.4923258   6.8491304  80.7384300  79.7341537   6.0985464  81.2809944
  79.9361563   6.6947716  79.9045134  81.0109425  20.1621675  28.7035131
  81.4393997  19.9682093  27.8698277  80.3131294  20.7769227  28.4768581
 109.3820000  41.8056822  43.3960581 108.4869289  41.6431522  43.6938286
 109.5376778  42.7283621  43.5977125  71.7587900 105.5830669  60.8555126
  70.9576035 105.5943680  60.3318691  72.1852398 106.4171505  60.6588507
  58.6345482 111.1267757  42.9610634  58.9420986 110.2255821  43.0584621
  57.6983309 111.0826778  43.1554365  91.0999584 109.5814133  53.7582970
  91.2969398 109.1404533  54.5847273  90.1751423 109.3918037  53.6001492
  89.5540810  91.1179447  17.3818135  89.3974113  90.3668690  17.9541492
  89.8681355  90.7338905  16.5632141 116.5230560   3.2073420  31.7010498
 115.6275082   3.2654256  31.3681054 116.6815281   4.0573442  32.1116805
   9.8345155  85.6332970  63.6481190  10.3121173  85.9404278  62.8775358
   9.7246194  84.6935654  63.5029745  12.8874362  36.7497993  92.8354263
  12.5333571  37.3529363  93.4889412  12.9355705  37.2682405  92.0322227
 106.2929440 110.3622723   8.9340478 107.2120762 110.2009392   8.7209606
 106.1711884 111.2984467   8.7759739  52.2417450  89.1338348  28.1633401
  52.4876690  88.2769966  28.5120249  53.0096197  89.6843052  28.3169413
  68.2254314  72.2192097  39.1857052  67.9319715  73.0085373  38.7306476
  68.5566616  71.6509771  38.4902692  59.2637777  86.5993023  94.3399620
  59.8905087  87.2048759  93.9440918  59.7988987  85.8671570  94.6462917
  87.6570988   8.4966028  35.0917983  88.0931473   8.7731373  34.2858052
  88.0053806   7.6219118  35.2645612  88.8442707  11.7170286  87.5367069
  88.2604790  11.0113835  87.8150749  88.3755684  12.5197732  87.7650738
  54.6254683  82.5059414  54.3422365  53.9180040  82.7178478  54.9511862
  55.3192091  83.1303883  54.5544147 117.9090023   8.4540415  43.7742376
 117.7245426   9.3906599  43.8446188 118.2184315   8.2047677  44.6450710
  62.8426456  17.9998147  94.4128609  63.4783411  17.9327285  93.7003899
  63.2845545  18.5258138  95.0794029  17.8344643   1.8896998  53.2484007
  18.7427533   1.6913328  53.0206013  17.5978899   2.6195213  52.6760149
  55.5384827 106.0679913  46.0836267  54.7643805 106.6173077  45.9601402
  55.1992226 105.1729393  46.0854006  78.7040710  99.9684525  19.6913469
  78.8045216 100.8694649  19.9984717  78.5840225  99.4550705  20.4902554
 100.7505512  18.6581969  72.3781681  99.8306370  18.4358811  72.5215387
 100.8454800  19.5356297  72.7487516  95.7326603   4.0930274  65.9602165
  94.8482513   4.2673481  66.2821722  95.9397984   3.2188064  66.2904692
  82.4137211  21.3209939  33.0595040  82.1610260  20.5557728  32.5429606
  81.6021633  21.6043186  33.4806228  85.9609699  22.0477557  60.5303907
  85.8151340  22.0631886  59.5844936  86.7398071  21.5029836  60.6437969
  52.7257442 106.6815662  20.2748442  51.8803644 106.6847610  19.8258936
  52.5087929 106.8309116  21.1950922  89.7943974  11.1928475  71.4542627
  90.6123734  11.5868127  71.1510468  89.1105843  11.7727625  71.1191130
  75.8504009  16.8372798  48.1282187  76.0114574  16.0514307  48.6504602
  74.8965693  16.9024670  48.0814648  14.2436373  15.9586453  11.1515307
  13.9691889  16.6632903  11.7383742  14.4012713  15.2126956  11.7302740
   5.3235269  30.4883409  45.8872795   4.9170318  31.0755777  45.2499866
   4.5940751  30.1703072  46.4192438  59.7201681 108.5758591  64.2909575
  59.0452290 109.1189766  64.6980381  59.5797586 107.7034473  64.6589375
  92.4434662   4.6136117  87.6312447  92.2321224   5.0269777  88.4683228
  91.8336296   5.0088263  87.0082283 111.7218304   8.2131523  67.7736044
 111.3027096   7.5585067  68.3321810 112.6549149   8.1357330  67.9725695
  70.9374428  74.3767500  42.7465153  69.9990082  74.2061472  42.8269100
  71.0197687  75.3231239  42.8641081 116.0375309  13.1700230  74.3356895
 116.3900280  12.2849119  74.4281530 115.2121353  13.1509173  74.8200369
  51.1236811  90.7572269  50.3564692  51.8992519  90.7424068  49.7956610
  51.0324621  91.6743565  50.6148815  61.6887808  62.4176693   1.3999803
  61.5064144  61.7326069   2.0431516  62.4624968  62.8664207   1.7408821
  54.1272163  82.7193260  40.8417606  53.5119772  83.1497002  40.2480555
  53.8956928  81.7917061  40.7954025  98.6140347  39.8714590  31.3960266
  99.3523598  39.9829936  30.7971334  98.1662846  39.0864277  31.0806346
  54.9132824  94.8117352  33.1161976  55.1602221  94.1342545  32.4866962
  54.2082691  95.2942657  32.6845193  57.3404217 102.4048424  59.8221588
  57.9251242 103.0914783  60.1429176  56.5021610 102.8472137  59.6885061
  64.4110823  75.6837988  56.7905807  65.0597429  75.0215149  56.5521526
  64.6979809  76.0029316  57.6461935  74.8653555  80.9691143  54.9179983
  74.7981787  80.5376434  55.7697916  75.7557487  81.3197899  54.8966980
  84.0096569 110.7529736  61.7461348  84.7583771 111.1764717  61.3262367
  83.2755375 111.3441467  61.5793657  66.6520357  93.4957123  74.4084072
  66.6394329  94.3505096  73.9778137  67.4230289  93.5242748  74.9749613
  66.8390465 109.0027523  45.6556654  66.8298435 108.6083031  44.7835636
  67.7036524 108.7887478  46.0062170 117.9794979   7.0922786  96.0164642
 117.3123741   6.5328687  96.4142704 118.7730789   6.9147694  96.5213871
  47.0803213  93.5342979  13.0205417  47.9160595  93.9827442  13.1496501
  46.5974092  94.0972424  12.4154592   2.3503608   4.5040682  74.2407990
   3.0960473   4.1135257  74.6964979   2.3880400   4.1339591  73.3588552
 115.9612083  34.1415215  10.0316274 115.9981728  34.0864921   9.0767264
 115.1321983  33.7230659  10.2637351 114.0730858  16.1839497  34.7495103
 113.3732986  16.6767848  34.3209767 114.3023968  15.4986012  34.1218567
  22.7185178  20.2347279  71.2608385  23.2582903  19.4993734  71.5508938
  21.8371749  19.8692656  71.1840200 102.7179527  21.3552904  50.8895636
 103.4749031  21.9220042  51.0381889 102.0063114  21.9579124  50.6735992
  86.1758137  94.7311401  50.3596544  86.1304951  95.6851578  50.2962303
  85.5831718  94.4172668  49.6766567  67.4860811  82.4924946   1.1651572
  67.7108860  82.7526093   2.0584854  66.9107962  81.7352104   1.2737912
  85.1712227 105.2634525  51.2751818  84.4456768 104.9040890  50.7646227
  85.2736187 104.6549892  52.0069742  65.1627779   3.2235363  31.1288476
  65.0614214   2.2799018  31.0042977  65.1796389   3.3392850  32.0788741
 109.2091942   9.9314284  38.2242513 110.1415539   9.8316872  38.0319095
 108.7719917   9.7455502  37.3932695  74.8361254  90.1904488  26.6184282
  74.6116543  90.4657459  25.7295752  75.5400753  89.5525646  26.5010190
 117.1216106  19.9887955  68.1552315 117.2551537  19.8499537  67.2176170
 117.8523636  20.5469155  68.4211826  58.9320421 100.1264477   5.5405951
  58.6603069  99.8605728   4.6621323  59.1319942 101.0588455   5.4575169
 101.3228035   0.2305950  63.6732769 100.4144192   0.4860442  63.5126305
 101.3789845   0.1305092  64.6235704  11.3892305  94.3367195  26.0958147
  10.8027828  93.7564373  26.5811753  11.7034757  93.8034916  25.3656435
  62.9094028  98.7933922  22.6006269  62.1958637  98.3427715  22.1489191
  63.6898899  98.2832909  22.3841381  32.4693727 105.7788849  31.9183111
  33.3022332 105.3413486  31.7418385  31.8345571 105.0659657  31.9889832
  36.2191081  77.9499006  89.8343372  36.7159677  77.1527338  90.0184059
  36.8802929  78.6410618  89.7973728  79.1968536 102.9119301  92.7274799
  78.4215260 103.2086563  93.2039738  79.1817713 103.4111595  91.9109154
  62.4471998 107.8017807  25.1829386  62.3266268 107.1313095  24.5105076
  63.0246115 107.3931408  25.8277965  55.7440042 100.8786964  32.6643014
  55.9989119 101.7970467  32.5754929  55.7987595 100.7047272  33.6039639
  49.0269041  93.9770031  20.3621054  48.8195944  93.1271362  19.9735284
  48.1740379  94.3746758  20.5373573  28.9296126 102.5382137  19.1332114
  28.1171179 102.5310898  18.6272132  29.3026686 101.6668987  18.9995432
  94.3082905  95.9019279  89.5936394  95.0926685  95.6678677  90.0898266
  93.9638138  95.0652027  89.2814445  59.7437334  83.6094475  43.8069963
  59.9473763  84.2829990  43.1580830  58.8685083  83.8363838  44.1211891
  10.3359735  72.0394802  37.1799946   9.8626733  71.2298870  37.3717761
  10.0861740  72.2558975  36.2816668 101.5591526  98.4844780  42.8665495
 102.1686840  98.1562996  42.2054863 100.8765221  98.9285374  42.3634958
  72.5661755 108.2109547  21.8351626  72.2824812 109.1065025  22.0188189
  71.7956018 107.7887154  21.4554739  17.0886469   9.2662460  65.4090071
  17.3072338  10.1920736  65.3027296  16.2329924   9.1725737  64.9903059
  93.3432007  31.4780927  50.1588249  93.9633846  30.7707596  50.3356647
  92.6862240  31.0828972  49.5857239   8.2959926  51.6820383  89.7703838
   8.3192557  51.0122490  90.4538059   7.4848324  52.1631479  89.9340439
  53.7610435  89.6727848  52.9141235  54.5152235  89.5213795  52.3444605
  53.9269352  90.5289841  53.3086443 100.5501366  15.0788748  57.2968245
 100.2219486  14.1802251  57.2659540 100.1704025  15.4452324  58.0954599
  86.4247799   2.9237840  45.3225756  87.3786736   2.8589460  45.2764893
  86.1111641   2.0835775  44.9880171 100.6892014  18.5697365  48.5362768
 100.3270721  17.7596545  48.8952541 101.6118336  18.3700752  48.3777905
  77.4249876  -0.0179340  45.7410240  78.2376778   0.2824924  46.1478567
  76.7628062   0.0845764  46.4245749  65.2335358  96.0653591  35.2712893
  64.5566082  95.6066036  34.7737575  66.0243750  95.5428600  35.1378679
  46.3213205 105.3562450  23.3249736  46.6899586 104.5076561  23.5703778
  47.0277405 105.9808636  23.4894753  86.3556034 111.0696216  26.7602992
  85.4399837 110.7906027  26.7648721  86.4378006 111.6341478  27.5289249
  34.3010569 110.9896374  48.6793280  34.1974878 111.2272358  47.7578878
  34.2978239 110.0324440  48.6816788  13.1094110   3.4961310  27.9733801
  13.4908116   3.3499849  28.8390636  13.6677384   4.1639954  27.5753117
  91.4086056  96.1416149  39.3757463  91.4083004  95.6092262  40.1712227
  92.0809746  95.7446098  38.8220930  80.3968525  12.1913135  52.8977919
  80.2274513  11.6079748  52.1580267  79.8776197  11.8263900  53.6143541
   2.6924285   7.8744519  16.4119697   3.1310809   8.6539209  16.7529166
   2.2180416   8.1846792  15.6406415  66.7312050 104.1178799  42.3255539
  67.2327757 103.3764076  42.6644850  66.3036728 103.7784672  41.5392733
 107.0865917  15.8031774  56.1369753 107.9859066  15.4756451  56.1231232
 106.7376232  15.5093932  56.9784880   7.2438610  10.8973157  34.9066067
   7.9683095  10.3593326  35.2259493   7.0398974  10.5366194  34.0437460
 109.5406818  13.3895445  26.5348244 109.5612621  13.2045698  25.5958939
 108.7357903  13.8916254  26.6624451 104.7929192  12.4742651  51.3046026
 104.7041702  11.5250599  51.2187910 104.5329189  12.8173947  50.4496813
  90.6957817 107.3106575  29.8865724  91.1159897 106.6307735  30.4132867
  91.0498238 108.1315994  30.2285314 111.8699551  34.7691321  23.6966705
 112.6321602  34.3494701  24.0956259 112.0530605  35.7066298  23.7583470
  99.5457458  22.3975945  36.7678976 100.1234436  22.9777670  36.2720227
  99.7008610  21.5296006  36.3953972  12.2888052  17.7284181  70.8269787
  12.3393631  16.8334997  71.1628294  11.3573480  17.9458129  70.8638430
  40.2352905 110.6553745  18.2962370  39.4344616 110.6958008  18.8189936
  40.2718401 111.5005112  17.8483105  76.6388607 100.1967907  44.5180321
  76.5850258 100.8004284  45.2589464  77.5722122 100.0009346  44.4359922
 114.5109653  17.2560751  47.5566196 114.8631287  17.5029325  46.7014742
 113.5615635  17.3180640  47.4516344  92.6147366   0.5087420  34.2557859
  92.5981140   0.7741320  35.1753092  92.5479221   1.3297850  33.7682867
 110.7477665  20.2231884  44.6137571 110.4018211  21.1096811  44.5103884
 110.4579830  19.9530900  45.4851341  99.1562176  42.3396492  61.6988897
  99.9955845  42.0382786  62.0465517  99.3288898  42.5139666  60.7736731
  18.9773762  49.7008801  72.4027348  19.4906485  50.3698111  71.9496202
  18.6901152  49.1081238  71.7082167   6.5946859  99.2903423  95.5810165
   5.7874405  98.8830090  95.2669048   6.3792098 100.2196598  95.6595325
  95.9872818  62.1559000  68.8967228  95.8132935  61.9927073  67.9697227
  95.2796173  61.7040825  69.3564034   4.2232677  25.9006810  83.6938572
   3.8226414  25.0351453  83.6127567   4.0712985  26.3154721  82.8446960
  23.0207014  38.1199145  46.9383621  22.9540062  38.9504337  46.4671707
  22.2368884  38.0922461  47.4870968  55.2813816 109.4465733  39.7192121
  55.5876446 110.3496361  39.8023224  54.3317938 109.5050526  39.8245335
 107.5790024  42.7404928  54.0175676 106.6999054  42.9817104  53.7256241
 108.1608105  43.3305311  53.5384178 114.3493748   3.9192927  12.7701223
 114.5849705   2.9918379  12.7935982 114.0363503   4.1093540  13.6544991
  19.6356559  33.5656309  48.1124020  19.8573756  32.6433969  48.2410812
  18.8536263  33.5492277  47.5606823  91.7541218  37.6306510  39.7777772
  90.8459187  37.9213023  39.6946192  91.8507290  36.9524479  39.1092396
   0.4055450  91.7024422  82.3528004   1.3342467  91.9281292  82.2997856
   0.0145951  92.1143723  81.5822792  97.3661518  27.1152020  59.1284895
  96.7231274  27.3139000  58.4478617  98.1863499  27.4809337  58.7972069
  76.2280321 109.1232204  24.3818712  75.4369259 108.6588860  24.1084146
  76.4099979 108.7895584  25.2603889 108.7315655  35.7044816  34.0399075
 108.4379101  36.3634753  34.6689749 108.3128262  34.8938131  34.3292260
 104.4339848  18.6467850  40.4851532 104.0642452  19.2397654  39.8310137
 103.7228870  18.0383074  40.6859732  10.8608913   1.5877654  45.3585148
  10.8721435   1.0555510  46.1540318  10.1271999   1.2426145  44.8497915
  72.9835510 106.5489197  73.0079508  72.3344183 106.2122440  73.6256170
  72.8517342 107.4969673  73.0149984 114.5885181  11.7118502  47.7945471
 114.7881031  10.8822238  47.3608160 113.6804390  11.8955171  47.5539637
  82.3946190   6.1342961  32.4985743  82.7564049   6.5143371  31.6980052
  83.1488895   5.7449752  32.9409933  73.8918924 101.0225391   5.8663964
  73.0147886 100.8507633   5.5237412  74.0361023 101.9539642   5.6993800
  82.5277424 110.4619694  69.2190409  82.4934101 109.9559879  70.0308466
  82.0211315 109.9447918  68.5928631  81.3061142 106.8342781  52.2644043
  80.8472824 106.0618877  52.5947428  80.6317139 107.3357868  51.8062544
  69.5048285  96.5799141  32.1225333  68.6654282  96.3990593  32.5455332
  69.8197603  97.3780918  32.5467634  81.1631584  92.1492958  12.7730238
  81.8270969  92.7710629  13.0710661  80.5391788  92.6828003  12.2808337
  81.0563755 101.0016441   7.6327807  81.3647938 100.0967693   7.6808542
  81.5149117 101.3712025   6.8781924 105.7294941   8.8141710  59.0634680
 104.8961926   8.3981502  58.8426304 105.9168625   8.5172451  59.9539518
  76.1576653 108.9031792  37.8378844  76.3169050 108.1000996  38.3338046
  76.9754267 109.0590763  37.3654532  67.1337891 103.0506992  66.4853334
  66.4769745 103.2056046  65.8064938  67.9549026 103.3536053  66.0977125
 114.8306179  10.9091794  63.1243563 114.8158646  11.0559773  62.1785927
 114.8737717   9.9575871  63.2183838 103.9985752  10.8756626  42.2909355
 104.6667290  11.5288329  42.0831442 103.2087517  11.1934209  41.8534088
   2.3722841   9.7273034  72.9111242   2.1658589  10.6091321  72.6012850
   3.2266915   9.8157316  73.3334970  70.3538942  79.9245071  14.8439145
  70.3908777  80.2539444  13.9459538  69.7485399  80.5158424  15.2912402
  80.1328850  89.4880867  21.2423229  79.8147535  88.6117077  21.0255575
  81.0628033  89.4680309  21.0162973  83.5743046   2.1245299  62.9464340
  84.0667534   1.4180240  63.3642530  82.6705074   1.9867747  63.2300138
   7.9809171  20.9406328  41.7484856   8.5915899  20.3414559  41.3191891
   7.1165168  20.6522202  41.4554644  83.1913567 106.7228603  48.6083126
  83.7450695 106.9917107  47.8752661  82.4083614 107.2677803  48.5294724
  66.0795832  97.8000259  68.1416893  65.7712221  98.7057304  68.1709528
  66.3949394  97.6832199  67.2455072 113.4573078  46.0529041  48.4018087
 113.6172009  46.8365383  47.8758955 114.0440369  45.3928471  48.0325985
  26.0003471  25.5289459  60.7498503  25.8285975  25.7483244  59.8340940
  25.1316881  25.4236746  61.1379004  13.8104951  10.3152299  88.9925957
  14.5654714  10.9031081  88.9672947  13.8904834   9.8585725  89.8300362
  27.8024745  29.7958493  83.0853176  26.8755317  29.6054363  82.9412556
  28.2655454  29.1169381  82.5945282 107.4280357  19.5286334   8.3564430
 107.8966618  20.3624845   8.3201784 106.5037823  19.7705615   8.2975799
 100.2496529  24.9578762  46.0100126  99.9511528  24.3855119  45.3032398
 101.1456776  25.1910591  45.7671261 116.8085098   4.1599041  61.6480160
 117.7499104   4.3317354  61.6697359 116.7054844   3.4734464  60.9889317
 103.1402493   5.3970271  50.8740377 103.9246655   5.0930673  51.3306808
 103.4121227   6.2083513  50.4450035  90.9233189  99.0185738  69.0919352
  90.9639454  98.3100796  68.4495831  91.5184975  99.6859360  68.7504148
   2.5330633  40.1785326  38.3595896   2.6867348  40.8180523  37.6641560
   2.8638196  39.3537354  38.0038595  17.0869780  44.9265909  59.4570112
  16.2809944  45.0941277  58.9685917  17.7707863  44.8970461  58.7878561
  94.1901207  18.3324170  29.6559739  94.2549324  17.6054907  30.2753377
  93.2785702  18.3179760  29.3642616  69.5553493  90.9043694  13.6157990
  70.4707193  90.6248474  13.6299121  69.3064117  90.9559250  14.5386231
  94.3371582   7.6964265  30.2736521  94.9971676   7.1755743  29.8161221
  94.6850777   8.5880774  30.2615619   8.3904374  13.9902449  46.7360210
   8.1841487  14.4274676  45.9098768   7.9990983  14.5493937  47.4071693
 114.7408199  13.7768316  45.9990931 114.7487640  13.2211256  46.7784262
 115.6587219  13.8289022  45.7326937 111.3088799  41.1726761  60.1605272
 112.1281910  40.8927011  59.7523832 110.7238483  41.3524246  59.4245529
   7.5441599  12.5048983  20.1427865   8.1775820  12.0419991  19.5943964
   6.8203294  12.7105665  19.5511758   6.6001254  23.6266685  42.1970224
   6.8500018  24.1646791  42.9482460   6.9228381  22.7513695  42.4113703
  96.5812302  27.5968504  46.0305071  97.0403767  28.2305717  46.5816975
  96.6841412  27.9344177  45.1407337  41.8573761 101.6535473  87.7683258
  42.0675087 101.8445492  86.8542194  42.6418781 101.2243748  88.1097889
  97.2086620  33.1468272  69.9164677  96.2598610  33.2441139  69.9974394
  97.5272274  34.0342951  69.7517157  63.5702753 109.2423820  21.7069578
  64.3694830 109.0933418  21.2017035  62.9226780 108.6614895  21.3076997
 109.3146706  14.2580116  45.1990986 108.8091469  14.6331131  44.4780064
 110.2270317  14.4330609  44.9684811  12.5455534  14.2285550  64.1997719
  13.3096230  13.8799345  64.6590042  12.0194113  14.6378946  64.8866844
 116.6318607  10.3297961  16.7738533 115.7345200  10.4094326  17.0973861
 117.1786022  10.5608749  17.5247884  55.4190302 105.8349991  54.0770197
  55.4300880 106.7561531  54.3369818  55.7913113 105.8305168  53.1951904
  95.0431156  13.6905289  31.2779331  95.4353905  13.4702122  30.4330587
  94.6209717  12.8806412  31.5644813  83.7894726  13.0247903  21.1390424
  83.1315899  12.5828075  21.6757607  83.3468819  13.8094389  20.8155203
  84.9065208 107.6804638  20.3087687  84.3741608 107.1144962  20.8678007
  85.6325436 107.9555988  20.8686018  80.2463436  15.1515424  43.7995863
  80.4399681  14.2988622  44.1890478  80.1777554  15.7460535  44.5466375
  61.4741373  98.4163761  53.1613731  60.7747936  97.9717159  52.6823854
  61.1726761  98.4275246  54.0697956  90.8732986  22.4952149  38.1598353
  90.2025700  22.3722315  37.4880981  91.6926289  22.2553015  37.7269578
  38.0434942  16.2254536  30.0590181  38.2388115  16.8256235  29.3393803
  37.1103621  16.3525403  30.2303219  85.6611729 107.8624630  29.0469646
  85.7330799 107.0233631  28.5920215  86.5425491 108.0304337  29.3804073
  75.2185440  96.9233036  35.8660293  74.5208311  96.6765499  35.2589512
  75.9402609  97.2003746  35.3015947  18.8040221  10.0669718  48.0522585
  19.1154838  10.9500897  48.2505655  18.0053771  10.2034867  47.5425863
 113.8489532   6.9808853  57.1750784 113.4820366   7.7784765  56.7936945
 114.2488670   6.5236843  56.4353085 117.2870350  61.0969687  48.6506939
 117.1586609  60.2675962  49.1110182 118.2323360  61.1486626  48.5094118
  71.6385221 102.5361824  30.0894356  71.2905121 103.2806110  29.5985842
  72.1617031 102.9322720  30.7863021 115.3134346   3.4244651  39.4271970
 115.2181625   3.3596322  38.4769583 114.4273090   3.2970208  39.7659945
 102.8324699  17.4304485  35.9835148 103.4745407  17.1723711  35.3221703
 102.0838547  16.8545473  35.8281159  86.7000294  75.0862885  89.5616722
  86.4596272  75.6379223  90.3060722  85.8768272  74.6822548  89.2872334
  17.2670901  18.0130839  69.7159100  17.2343040  18.9671159  69.7864723
  16.4261234  17.7726364  69.3270731 112.4676228  25.2169633  49.9140644
 113.3540154  24.8556590  49.9142075 111.9807339  24.6572471  50.5189514
 106.9225693  23.4589434  49.1560745 106.9294453  22.5057817  49.2436171
 107.6171494  23.7583637  49.7427034 111.8987179  20.8192134  40.7659340
 112.2825146  21.4804769  40.1900291 110.9537888  20.9432912  40.6767702
  30.5151892  13.2209384  39.2094064  30.0779533  13.1438112  38.3614039
  29.8338914  13.0157781  39.8497009  68.9441490 103.4746838  47.7982473
  68.1543875 103.2664490  47.2991037  69.4510555 102.6627350  47.7942276
  84.3871784 104.2245197  59.1869688  85.0129795 104.9252319  59.3702793
  83.9719009 104.4834137  58.3643246  53.0768108 107.2768307  45.3854465
  53.0556631 108.0955791  44.8900223  52.2269154 106.8711853  45.2141142
  21.7867994   6.7928720  24.1396451  21.8073916   7.5468862  24.7289419
  21.2046051   7.0604777  23.4285402   1.0376962  14.4749475  38.7190270
   0.9159319  14.9787819  39.5237350   0.1601677  14.1647005  38.4955931
  88.4811974  10.4334235  27.8312397  87.6594734  10.3284550  27.3516750
  89.1505337  10.0951040  27.2364593  50.3947735  17.8876281  58.9040661
  50.8605337  18.2210541  59.6709585  50.1584959  18.6713398  58.4078789
  76.7826128 103.5835171  29.7721958  76.5667534 102.9335690  30.4409313
  76.0280466 104.1722965  29.7580457  20.5878115   8.8799113  44.5879316
  20.9317970   9.7681946  44.4938040  19.7670615   8.8874662  44.0954399
  29.6424842   3.5036820  60.9663057  28.8987160   3.8756463  61.4403105
  29.7077537   4.0317807  60.1706409  98.8689423  17.3092687  33.4867382
  98.0091190  17.6824939  33.2927418  99.0777397  16.7769873  32.7190709
  29.1565061  94.8714638  81.4738178  29.6094108  94.5518684  82.2541809
  28.9963484  94.0857029  80.9511757 109.3285179  12.9291379  54.7531223
 109.6020794  12.7019978  53.8644123 108.5032845  12.4602091  54.8769140
  78.5656929 103.6141872  48.6191893  77.7230167 103.8917446  48.9784908
  78.3395004 103.1273079  47.8267193  98.8818645   9.9248356  35.8517718
  98.6084652  10.8223796  35.6623030  99.0521431   9.5398027  34.9921274
 110.4146004   6.6675091  69.7508049 110.2693176   5.8136916  69.3432236
 109.7795677   6.7025858  70.4661655  98.5711288  13.4238124  86.2939358
  98.9522457  12.5499308  86.3794613  99.1958141  14.0015113  86.7324162
   6.7683494  54.6522951  31.6681194   6.2537247  55.3307390  31.2309623
   7.6156235  54.6703196  31.2231088  12.2787106  27.3777986  61.5507078
  13.0432737  26.8050885  61.6113567  12.4536955  27.9310989  60.7894754
  88.2510757  12.9483128  20.2926588  87.8026676  13.4364665  20.9832168
  88.9179897  13.5525703  19.9665666 113.3074093  49.3358278  24.8608232
 113.6918449  48.7029934  24.2542243 113.9197254  49.3654108  25.5959630
  71.1272204 109.0211635   0.9683675  70.4715956 109.7147518   1.0413331
  71.9598043 109.4590144   1.1453409  13.5947335  22.4511051  26.3594317
  13.5516000  23.3662319  26.0820961  14.3322575  22.4200153  26.9687963
 104.8215485 101.2555885  15.6669867 104.9292660 100.9226513  16.5579295
 105.5651760 100.8941460  15.1846862 109.5495415  11.5672493   9.1845953
 108.6168194  11.4002967   9.3202311 109.9740124  11.1982739   9.9591333
  24.9239826  38.7310958  20.7172179  24.9118018  37.7865052  20.5628443
  24.0437555  38.9333367  21.0342813  13.6215115  17.7273750  48.4217739
  12.8484392  18.0193555  47.9387236  14.2880714  17.5925899  47.7481556
  50.0273657  18.1837714  19.4440114  49.7066879  18.8047802  20.0980330
  50.0860071  18.6949396  18.6368561  84.1417599 102.1353436  45.3949928
  83.6518192 102.9363728  45.5808496  84.0434170 101.6054440  46.1860466
 114.6986580   2.1860166  19.7319818 115.5196285   2.2470100  19.2436063
 114.9687767   2.0138681  20.6339979  87.5983238 108.0829430  35.4753709
  87.2263527 108.7237549  36.0813665  88.1941700 107.5619793  36.0136890
   6.6955715   2.7536595  48.7926054   7.2317964   2.8217000  49.5825815
   6.1549675   1.9769061  48.9362478  25.4576850  15.8677626  53.4300804
  24.9437380  16.2910736  54.1177559  25.3931379  14.9326527  53.6240816
  17.5358951  14.2657399  27.8026223  17.7002108  15.1488328  27.4718952
  18.0533981  14.2107046  28.6059856   5.1781839  86.0950661  52.0824718
   4.9681586  86.7425823  52.7554131   5.8745778  86.5023136  51.5672779
  83.4361076  90.0409508  23.8903165  82.9107189  90.6149292  23.3328748
  83.5414886  90.5303383  24.7061753 102.3395252 110.0754356  32.6493788
 101.7502785 110.2769184  31.9224501 102.0673847 109.2064953  32.9445219
  91.6871452   7.3374891  49.1207743  91.1533165   6.6214347  48.7764978
  91.6848564   7.2036654  50.0685740  15.1954567  19.9283230  66.9814110
  14.7635198  19.7218716  67.8102875  15.0320804  19.1637051  66.4292336
  79.2398405 107.6007366  24.2650127  78.5816956 107.6408768  24.9588871
  80.0525284 107.8755951  24.6895432 100.6330681  16.0939538  51.3682795
 100.3825569  15.9975934  50.4494810 101.1681938  16.8873417  51.3886929
   8.4312773  43.7177610  47.1653128   8.0543143  44.5962381  47.2144079
   9.0642571  43.7684345  46.4490700  41.4993382  24.2820644  28.3185410
  40.7551432  24.4474912  28.8973713  42.1440792  24.9465275  28.5615015
  13.9411616  75.2622128  46.0266161  13.8443947  75.0118828  46.9454241
  14.2809570  74.4762707  45.5987549  97.2899532 106.5924263  38.4103584
  97.8196430 105.8018780  38.3069062  97.7787781 107.2709084  37.9445887
   1.0410582   1.5606080  24.6460247   0.6241499   0.7179868  24.8260474
   0.3946196   2.0422766  24.1299486  27.8818178  33.3100247  67.4973249
  27.0051694  33.1424856  67.8432274  28.1220460  34.1639447  67.8569651
 108.9824104  38.5085154  14.9426889 108.2195187  38.3110809  14.3993175
 109.5626831  37.7567101  14.8230863  96.9349766  97.4466515  31.7891383
  97.7126884  97.4676132  31.2315083  96.9137001  96.5551949  32.1370959
  11.6600072  18.7781632  42.7020359  11.8933451  19.6994424  42.5878811
  10.8562326  18.7972510  43.2214689  93.8020515  84.4043922  85.1563072
  94.4070435  84.3152142  84.4199181  92.9362202  84.4501495  84.7507572
  37.7066803  14.6741974  39.3872881  37.6263428  15.1775289  38.5770822
  38.0460572  13.8237774  39.1082907   7.8984469  30.2927494  14.0979886
   7.2532922  29.6346092  13.8394189   7.6586741  30.5235362  14.9954724
  29.6816611   7.1382195  43.5517120  29.8763084   6.4351296  44.1713953
  30.2572632   7.8561008  43.8154507  54.9523354  20.7342935  18.7635088
  54.7758389  20.9641147  19.6757925  54.2195940  21.1102986  18.2757187
   4.5387936  25.3568006  18.8656569   3.9362741  25.5548453  18.1487322
   4.0792704  25.6497860  19.6525693  16.9392145  56.1553049  64.9710608
  16.8863201  55.8588457  64.0624666  16.5044832  57.0080853  64.9704456
   2.1950282  81.9129276  41.6520071   2.7039880  82.6723289  41.3682699
   1.4954379  81.8374443  41.0030794  11.9522023  48.1541538  38.1256723
  11.0103548  48.2910919  38.2276630  12.0751834  47.2163343  38.2726622
  67.6780558  95.5684566  24.7421765  67.8197098  96.3472462  24.2039800
  67.2930861  95.9036732  25.5519032   7.6210707  22.7494526   7.8940505
   7.4840325  23.6920238   7.9889798   8.5710204  22.6400042   7.9370445
 101.4899349  85.4483604  33.7944388 100.9670258  85.1183987  34.5251417
 102.1077728  84.7424889  33.6040735 100.5897141  99.8251629  64.0396929
  99.9499512  99.2529106  64.4633436 100.3866577 100.6993103  64.3726635
   6.0923827  35.6491661  36.2783384   6.8420076  35.1642275  35.9331894
   5.6504875  35.9917903  35.5014420   1.1051184  34.2859459  49.2570210
   0.8244212  33.7443829  49.9946833   1.9943818  34.5577192  49.4841337
  35.3421521  18.5586917  46.2751961  36.2831283  18.4436309  46.1426926
  35.2743888  19.2897415  46.8893671  90.0331497  46.9231987  26.8886495
  89.7406006  47.0719719  27.7878261  89.2708015  46.5482140  26.4476943
  12.9388106  43.4960318  25.5174661  13.4013867  43.3381605  26.3404679
  13.5810101  43.2896090  24.8383474  75.5953074  99.9718475  36.6741109
  75.7540798 100.8027649  36.2262297  75.2038240  99.4101620  36.0051656
   8.0795020   4.8786262  53.5011959   7.4338639   5.5209154  53.7958956
   8.7898588   4.9428472  54.1395521  73.9406061  69.2753220  29.0943813
  73.3164310  69.9697495  29.3051124  74.0083647  68.7618160  29.8993349
   4.5237026  24.3358135  23.6990976   4.0115273  23.5995030  24.0333986
   4.5432559  24.9621081  24.4227028  28.6836219   9.4861192  56.3445282
  28.5283852   9.5514131  55.4022598  29.2712498  10.2155709  56.5415716
  95.3637886 101.7027760  67.3408031  95.8085728 101.4591885  68.1526375
  95.2930069 102.6564121  67.3833227  22.8802681  19.5998585  27.9450703
  22.3460245  20.2699566  28.3714342  23.6541367  20.0711083  27.6363897
  38.0581379  82.6757336  92.6360893  37.8140879  82.3236275  91.7801094
  38.6688399  83.3856297  92.4377918  31.6739583  38.9030647  26.7131329
  32.6011300  39.1408420  26.7199969  31.2165737  39.7271967  26.5462899
  74.4061804  93.5368824  66.9284105  73.6819267  92.9266071  66.7896366
  74.0865231  94.1391468  67.6002169  18.2244670  15.1025009  20.9506130
  18.1260300  16.0031855  21.2593365  18.4472442  14.6030378  21.7361951
 105.8635712  11.7379844  61.0039425 106.1855030  12.4069107  61.6082001
 105.0652599  11.4073980  61.4158154  88.9678860  41.2559748   5.6307411
  89.3968773  42.1115017   5.6474835  89.1252899  40.8920240   6.5019429
   7.4353838  25.1384997  58.3340788   6.5355796  25.3988886  58.1371450
   7.9498523  25.4842019  57.6046658 101.7492962  49.9209404  38.3671832
 102.1720505  49.8991299  37.5086784 102.3363209  50.4473019  38.9099312
   2.7892801  23.2761216  44.9697065   2.6783240  23.1689620  44.0250158
   2.2265571  22.6042867  45.3546906 105.2079678 103.5358334  51.4607811
 105.9765148 103.2991695  51.9799662 105.3280926 103.0741596  50.6309271
  11.8148422  44.3827200  61.3953686  12.7207530  44.5578861  61.6500759
  11.7187595  44.8090982  60.5437803  26.3801503   5.6501043  72.2092772
  25.5973649   5.8183533  72.7338457  26.3263392   4.7198439  71.9902992
 106.7813969  26.0445571  13.4029663 107.0949745  26.9488406  13.3899379
 106.5702438  25.8774853  14.3215156  86.5688419  96.2755966  12.5292969
  85.6684780  96.3387680  12.2105598  86.5070724  95.7332230  13.3155835
 114.8405457  43.5053205  40.1916313 114.9352074  43.7884331  41.1010885
 115.7210541  43.2337236  39.9324489  16.3921261  40.8187962  61.2139702
  15.8890486  40.2219582  61.7679834  16.9042718  40.2436018  60.6455564
  18.7016976  36.8781018  43.2688618  19.3127036  36.2710118  42.8513145
  18.1565022  36.3233304  43.8267374 114.2362022 101.4701557  53.9691496
 113.9598274 101.8274498  54.8130608 113.7303257 100.6632042  53.8734627
  18.1434953  16.5124524  67.2287798  18.7848687  15.9044218  67.5964403
  18.6548901  17.2865772  66.9933319   5.6095105  22.7984643  73.1011009
   5.4799384  23.7216187  73.3184290   6.5551084  22.6666856  73.1697369
  26.8747163  15.0358689  64.4462872  27.3127675  14.7595632  63.6413050
  26.4852786  14.2337883  64.7944784  28.2121944  34.4635367  30.9315467
  29.1114140  34.2902040  31.2101007  28.2641196  35.2933383  30.4572392
   0.5690199   5.7863420  36.8405986   1.1286152   5.2071685  36.3232565
   0.2972457   5.2526325  37.5872755 115.5206490  24.9890947  51.8595266
 115.6211185  25.8769178  51.5161514 115.1494503  24.4911718  51.1311626
  64.6308470  16.3153851  59.3229914  64.8057270  16.7166829  58.4717512
  65.3556490  15.7038176  59.4529104  96.2978363 111.1315536  30.1166296
  95.5951214 111.7805862  30.0823307  96.9830322 111.4903831  29.5527363
  13.6602306  31.1209965  24.1597342  13.7605810  30.2399302  24.5201325
  13.3855772  31.6548681  24.9052382  94.9162102   9.6569693  19.7570610
  94.3934441   9.2816973  20.4656672  94.9574089  10.5917263  19.9589610
  17.3596120  13.8853812  32.6274729  16.5887392  14.1844738  33.1096888
  17.3783565  12.9388964  32.7690601  12.0615935   4.3584582  45.1463747
  11.5057552   3.5931626  45.2933407  11.4463305   5.0817752  45.0259733
  66.3572264  93.9107704  79.0654325  66.4873934  94.6185112  78.4342480
  66.8224764  93.1643867  78.6876917  23.1537890  21.8519664  15.2035177
  22.5578809  22.3793793  15.7354569  24.0214109  22.2119594  15.3875554
  18.3218575  21.0213208  41.0169125  18.3770823  20.0664425  40.9796429
  17.8290439  21.2635159  40.2328777  55.2770519   5.0208020  13.0014825
  56.1059713   5.4303181  12.7536488  55.2297115   5.1314723  13.9510834
 114.8974419  16.2123251  44.7741413 114.0923595  16.6424596  45.0623369
 114.8397064  15.3283334  45.1367044  18.8211238  39.3923068  34.1948700
  19.4824791  39.9241900  33.7522173  19.2569411  38.5560536  34.3591118
  24.8088145  34.3714499  74.0669155  25.6853366  34.3174148  74.4477320
  24.3386507  33.6264873  74.4413567  70.5715370 107.6475430  24.4191575
  70.9338856 107.2759819  25.2234435  69.7531033 108.0610085  24.6938443
   9.9055672  15.5544662   2.1469592   9.6646607  15.0464582   2.9216355
  10.3868997  14.9372602   1.5959541  67.0801866  85.0959918  95.9231061
  67.6530183  84.5978185  96.5061305  67.1640718  86.0016724  96.2213336
   5.9918481  18.3059788  62.1822453   5.5075145  17.4850404  62.2700596
   6.6608995  18.1200480  61.5234327  92.3188210  71.6039801  83.3971691
  91.9170094  70.9243441  83.9383602  92.1993351  71.2964487  82.4986267
  18.9346087  36.8080950  55.5864382  18.7327635  35.8828068  55.7254744
  18.1437385  37.2701550  55.8643866  60.9017897  46.6508627  14.4732404
  60.1004982  46.2571430  14.8184204  61.5646553  46.4678717  15.1390910
  26.0422754  56.7369890  55.0076866  25.6856465  56.5853405  54.1324472
  25.9232235  55.9032536  55.4625988  94.8429585 107.2930527  19.7161222
  95.2114391 106.9174385  20.5157256  95.5427456 107.8442669  19.3658519
 107.3922348  47.8584814  20.9592462 107.4607182  46.9074965  21.0439277
 108.0895042  48.1996393  21.5193033  51.9676638  27.1638870  47.4449587
  52.5586653  26.4900351  47.7809238  51.5873528  27.5611615  48.2283974
  21.9998002  32.1070123  23.6452699  22.2121406  31.2804914  23.2116723
  21.1713600  32.3787975  23.2502389  20.4072309  41.5289164  44.3943930
  19.8532748  42.2134066  44.7696733  20.0115848  41.3403273  43.5434341
  34.5560551  70.7164764  11.9050527  34.5260835  71.6529179  11.7090583
  34.7469568  70.3016901  11.0637796  42.0949793  18.0878329  25.4728413
  42.7824068  18.6582303  25.1288581  42.3480892  17.2095168  25.1887107
 117.2857571  36.3140750  42.7105284 117.2265053  37.2065616  42.3696566
 117.0302773  35.7588720  41.9738340  12.6464128   9.0218210  39.0239072
  11.7239666   9.0348786  39.2791605  12.9112387   9.9415815  39.0357232
  48.0707026  30.5454135  53.2907486  47.4077320  29.9118018  53.5650539
  48.2443714  31.0652637  54.0754938  86.5135002 102.3510551  16.7287147
  87.2798634 102.7351856  17.1545792  86.8400478 102.0379257  15.8851802
 104.6469402  16.5978575  13.0231690 104.6602345  16.3922381  12.0884097
 105.2000523  17.3747373  13.1054044   8.0784386  33.1002784  18.0601001
   8.4552997  32.7490830  18.8668656   7.6562583  32.3478317  17.6455903
  48.1312037  23.9795637  56.3871908  47.7461290  23.7778330  55.5344009
  47.4843550  23.6701632  57.0212984  11.0920942  12.6230538  16.0149443
  10.1379204  12.5522590  16.0427201  11.3138282  13.1688881  16.7693520
   3.6826652   8.8403839  54.8111677   4.1002148   8.9580792  55.6644154
   3.7881750   9.6854991  54.3742704   4.7179967  48.8270235  34.3703508
   5.6084728  48.8086843  34.7209883   4.2703038  48.1077671  34.8158550
  46.2845755  99.4039917  26.2510514  46.1143780  99.6168423  27.1686339
  46.2618732  98.4475994  26.2188387   4.1361785  44.5841026  23.2448220
   4.0933278  43.8680840  22.6110172   5.0282609  44.9217606  23.1647730
  73.3078575 102.0783424  80.1025963  73.3827066 103.0297947  80.0293350
  73.4263802 101.8998909  81.0355186  46.4619875  17.2755182  72.3336411
  45.6970453  17.5361228  71.8206310  46.7662334  16.4691222  71.9172382
  44.8861599  61.2120438  27.3232222  45.0584745  60.5633545  28.0056739
  44.1003323  61.6702127  27.6212072  27.7973008  53.4177256  45.9391785
  27.2921443  52.6111126  45.8370733  28.4378457  53.3907747  45.2284002
  30.8686399  17.1255565  20.4568076  30.5635524  16.2242413  20.3529525
  31.4912653  17.0855212  21.1827302   4.4196090   2.4023454  32.0127654
   5.3244883   2.2918124  32.3046684   4.3862888   1.9615629  31.1637473
  84.3209648 102.7566719   9.0822268  84.6254349 101.8503189   9.1275084
  83.5249710 102.7687740   9.6137249  25.5044508  56.0407972  49.5648193
  26.2131882  55.4223442  49.7421265  25.9455395  56.8198919  49.2261648
  51.6596556  44.9406481  63.0347776  51.2449837  45.4162407  63.7545633
  51.4073563  44.0278578  63.1740332  28.8331199   0.6471644  20.6088710
  28.3898711   1.4737768  20.7998490  28.5556602   0.4264549  19.7197509
  52.5062752  76.4518833  92.4820518  52.2775412  76.0875225  93.3371258
  51.9246960  76.0041809  91.8675900  57.6899147  81.6617393  90.2796364
  57.2329235  82.0831776  89.5517731  58.0235672  80.8436108  89.9114323
  97.3818970  11.3587773  74.8038340  97.1940041  12.2542071  74.5225286
  96.9129372  11.2648273  75.6329823 116.9367790  39.9098468  29.4746327
 117.0748901  39.0853381  29.0084314 117.2096729  39.7254348  30.3733850
   9.1375941  63.3066940  34.6861553   9.4075739  62.5358391  34.1870284
   9.9316877  63.8364601  34.7568345   1.7953542  17.3748124  26.6523147
   1.5984459  16.4960289  26.3279724   2.7370188  17.4759388  26.5134859
 107.4863338   1.6297553  30.8109641 106.6464710   1.4490452  30.3888202
 107.4274254   2.5468704  31.0786605  20.3618932  28.2728577  52.6664686
  21.1105633  28.3339143  53.2597637  20.3269553  29.1271949  52.2362137
  28.1416059   9.4973934  32.1220493  27.9268432   8.9220655  32.8562880
  27.2928596   9.7420692  31.7532706  25.2276659  31.7246675  33.2105780
  24.8724294  30.8577776  33.4068990  25.0869846  31.8337893  32.2700810
  60.6632948 101.2468815  42.0682001  60.2456856 101.6991043  42.8012228
  60.6146049 100.3194237  42.2998762   2.1715359   6.0592633  20.2941561
   1.4182611   5.4687518  20.3043914   2.6145211   5.8680892  19.4674468
 113.1251240  49.6516657  52.8328037 113.2329082  49.5347643  51.8889046
 113.9594269  50.0183821  53.1255388  25.5194974  19.7480750  72.2434092
  26.4443326  19.8071289  72.4830484  25.3221941  20.5933285  71.8398666
  51.7891502  61.1386061   4.4172695  52.7251291  61.0145712   4.2598179
  51.7472315  61.6270065   5.2394259  39.9464130  53.4194899  51.9125652
  40.3438663  53.1746387  51.0769176  39.6778226  52.5877714  52.3028708
  97.6244450   6.0974765  94.6537876  97.2331142   6.8966824  95.0064468
  96.9083595   5.4623204  94.6485043  10.0204527  41.8343973  69.9593401
  10.9562218  41.6367626  69.9205160   9.9801528  42.7481556  70.2415800
  57.0372152  10.1884723  42.4880743  56.2745857  10.4156339  41.9560719
  56.6873932  10.0742102  43.3717012  35.3196216  19.4959521  32.8752542
  34.7330809  19.7556376  33.5857248  34.7557235  19.0314150  32.2568250
  46.1623859 105.9324074  96.1377239  45.6998825 105.9896755  96.9738102
  45.5448771 106.2863159  95.4976845  14.0114987  20.8576632   7.6109618
  13.3672249  21.3719487   8.0974323  13.6869633  19.9585187   7.6604337
  23.7463474  45.0223637  33.7645340  22.9001331  45.0900459  34.2067719
  23.5491800  44.5862150  32.9356003 102.1503639 109.5935631  36.8509746
 102.7799320 109.3981266  37.5450134 101.3079739 109.6532345  37.3015857
  10.9494591  58.1720066  57.3995924  11.7394555  58.5911655  57.0583534
  10.3235853  58.2161427  56.6767025  68.9262247  92.2133446  94.2889595
  69.5881939  91.6006374  93.9686203  68.9575052  92.1233463  95.2414036
  87.9179478  49.0522099  18.2653177  87.1680355  49.4999599  17.8736746
  88.5412216  48.9544010  17.5454545 116.6228485  29.0615034  19.2959201
 117.2127151  28.7888050  19.9987209 116.9355011  28.5894537  18.5241365
   5.3729606  77.0980358  15.0505221   4.5678666  77.5782204  14.8569334
   5.5978864  77.3578787  15.9438980  23.1750727   1.7698734  19.1931140
  23.2220793   2.6026797  19.6626413  22.3107433   1.7752378  18.7818503
  19.8661256  52.6199293  70.6424141  18.9256823  52.7756023  70.7293749
  20.1352572  53.1798601  69.9142122 108.4359169  40.0224209   8.4133512
 109.3641853  40.0826263   8.6390376 107.9849434  40.4592371   9.1358763
 104.7999382  21.4503813  60.5872726 105.1470470  20.6636786  60.1667356
 105.5767155  21.9394922  60.8585978  10.9915435   2.1910031   8.0474311
  10.7980406   3.0752659   7.7361947  11.2541759   2.3104466   8.9601135
  72.1657038  34.7740245  20.5893826  71.9069195  35.2004528  19.7724235
  72.2937059  33.8560438  20.3503036  46.2704754   4.0569764  46.9550610
  46.9134378   4.7584230  47.0590115  46.3773823   3.5161778  47.7375841
   7.3829120  49.5184469  35.3555346   7.7044791  48.9720726  36.0726857
   8.0870050  50.1478863  35.1996899  49.9811077  69.9172735  27.9870391
  50.8621883  70.2426529  28.1715727  49.5397806  69.9260378  28.8363838
  40.8912230  70.1342678  95.9592819  40.7796764  71.0844898  95.9887218
  41.1947775  69.9562073  95.0691319  35.8589339  14.9908197  51.7735291
  35.6562972  15.2442336  52.6740599  36.3751078  15.7200062  51.4298964
   0.7773776   2.2206786  31.4708900   1.0145041   2.2684461  30.5447578
  -0.1180387   2.5571179  31.5065265 109.8948765  82.3990440  50.1020861
 110.2098370  81.7457581  49.4773817 108.9786816  82.1655178  50.2513695
 111.4718342  28.0604219  49.7286892 111.5466690  28.9559793  50.0582457
 112.2144222  27.5989747  50.1183748  13.0664849  10.8573270  48.8274527
  13.8620079  11.0300088  49.3309975  12.6184809  11.7023897  48.7901402
  35.8041716  35.3848767  16.0698521  36.3482261  35.2504635  16.8458486
  35.4750156  34.5123410  15.8540511  27.2365522   6.5311885  42.2236633
  26.7938638   7.3242420  41.9214630  27.9980707   6.8514270  42.7071571
  27.4751091  55.7534742  63.6423349  27.5482774  54.9065685  64.0823603
  27.2254753  56.3633251  64.3366003 106.8112946   3.8898051  35.8095860
 107.1603870   3.6922652  36.6786957 106.0525513   3.3132416  35.7195067
  54.9570131  27.0137334  15.2020764  55.5344629  27.1327543  15.9561431
  55.3166103  26.2550259  14.7424221  37.7112412  22.1416569  47.3096800
  38.6489344  22.3296785  47.3498583  37.4058938  22.6110482  46.5333652
  36.5901899  24.6823907  48.6770058  36.9541478  23.7973762  48.6997557
  37.3561811  25.2563977  48.6750698   7.8577828  15.3185260  66.7682076
   8.3912903  15.7895851  67.4082899   6.9578183  15.5712879  66.9741344
 102.7225018 103.3387184  50.1551628 103.5095024 103.2163620  50.6861067
 103.0524158 103.5863495  49.2914104  43.6420870  14.1690516  18.1839895
  44.4150972  13.8262463  18.6325157  43.2917833  13.4190476  17.7033520
  93.6588383 106.4550781  29.4360685  93.3382607 105.6575298  29.0149021
  94.0355206 106.1544037  30.2630758  91.6320419 110.0794315  36.2012959
  91.4038944 109.3937016  35.5736375  92.0563412 110.7558060  35.6733704
  31.6840672  43.6632919   7.8869444  32.1025705  44.4715834   7.5907165
  30.8482885  43.6415768   7.4208593  64.4617796  88.9479446  27.9760218
  64.0159273  89.6352005  27.4809194  65.1745033  89.4011784  28.4263945
   0.5263983  24.4731522  61.5736055   0.5181300  24.3026710  60.6317472
  -0.0169671  25.2539015  61.6804695  14.9501801  52.1525764  38.3903074
  14.6959484  51.8061304  39.2456269  14.1630888  52.0647097  37.8527236
  78.9766572  14.7484822  95.7266611  79.0312611  15.6940980  95.8647473
  78.8567219  14.3848557  96.6039417  38.4946156  47.4420214  19.1126466
  38.5239744  47.3190451  20.0614595  38.1088376  46.6324282  18.7780249
  -0.1723678  21.7571664  24.9341631   0.2015450  21.1973166  25.6145954
   0.3170763  21.5319753  24.1429830 114.4458103  53.1797409  36.2522149
 114.6521187  53.4687042  35.3632998 114.2502213  52.2471285  36.1615658
  13.5363126  39.6834993  20.8001280  14.4286847  39.9119520  20.5399084
  13.6437833  38.9502978  21.4060163  12.9680932  49.6609449  40.3644943
  13.5878229  48.9671040  40.5897856  12.1737444  49.1963339  40.1010942
  37.8267813  47.2227287  57.2746563  38.3777237  46.7504501  56.6504383
  37.6957297  46.6047668  57.9938078  32.3716521  19.9927461  13.2168925
  32.4712396  19.1835713  13.7184393  31.9266868  20.5924678  13.8157010
  86.2230110  17.9908073  10.5006194  86.7388248  17.9178679  11.3036406
  86.7734146  17.5939131   9.8255193 103.1946850  51.3373518  40.1100111
 103.9865685  51.7092752  40.4983759 102.4797630  51.8518496  40.4847097
 107.8399086  56.0786104  48.9528131 108.0998135  55.4532719  49.6292973
 107.1734619  56.6224670  49.3726921   9.9263650  36.9156647  19.1312706
  10.1101935  37.7789521  19.5016360  10.0668764  37.0237303  18.1906271
  17.8334749  61.4401245  11.1188614  17.3702300  61.4802504  11.9555366
  18.7379766  61.6670465  11.3347626 117.5088692  17.0497370  45.6002045
 117.3852634  17.1565890  46.5433550 116.7032242  16.6295838  45.2991343
  20.4433990   5.3051543  48.3718443  20.8570337   5.2305186  49.2318249
  20.3641176   6.2477255  48.2251930  28.4228182   1.9702749  26.8031001
  28.9735198   2.5907698  26.3256645  29.0419078   1.4238313  27.2872066
  55.5626631  90.3266239  94.6291542  56.5086651  90.1832485  94.6566772
  55.2217102  89.5811749  94.1349030  61.4750481   1.1480653  65.8645725
  61.5752840   0.7600601  66.7338467  61.1889648   0.4223212  65.3098822
  26.0873723  40.1517153  13.9703417  26.3463092  39.2504907  13.7780368
  26.3669300  40.6502628  13.2025337 115.6694698  36.6494894  26.0409093
 114.9559307  37.2824144  25.9602857 115.2847004  35.8181357  25.7633567
  42.6270819  26.9700503  64.0495968  43.0713415  27.8174806  64.0766096
  42.9582024  26.5512538  63.2551146  53.0123472  25.7588935  30.4226279
  53.7993383  25.8900928  30.9514642  52.2980022  26.0812545  30.9721971
  28.1167912  45.3837633  36.9321370  27.3117208  44.8983955  37.1124411
  28.6489797  44.7806263  36.4132619  55.9099579  24.1044521  14.4132984
  56.1545563  23.4468889  13.7621355  55.4571533  23.6089253  15.0956869
  39.4877481  57.4983549  25.3469944  39.5059133  56.7695236  24.7267485
  39.8393083  57.1313763  26.1581445  34.8130035   3.4857047  17.7278829
  34.7038102   3.9574379  16.9021857  35.3696251   2.7393982  17.5055552
  39.2079473  39.4084144  21.1634207  40.0505400  38.9749551  21.2990093
  39.2853451  40.2361727  21.6378260  39.5133877  23.4957957  10.1690555
  40.0166416  22.6957655  10.0176680  39.5582938  23.6315131  11.1155200
 113.5359097   8.4131438  24.2338157 113.0380058   8.2780969  23.4275341
 113.4100819   7.6050586  24.7312069  40.3334045   6.3731641  62.0272827
  40.0111294   5.5422091  62.3764038  40.9752703   6.1211967  61.3633919
 102.2819614  72.7702522  46.6682529 102.1394062  72.0076275  46.1076164
 101.5290451  73.3364105  46.4984894  24.9923658  22.4546671  30.8672690
  24.0777516  22.2955513  31.1004901  25.3129435  21.6058540  30.5623412
  34.0560937  18.9310956  67.5388861  33.9356565  19.0735650  68.4777308
  34.9053001  18.4948480  67.4698305  29.9525642  51.0461426  63.7246895
  30.3101516  51.7979527  63.2523108  29.2431593  51.4110088  64.2537022
   1.5007079  33.8025546   3.9636257   1.6293651  33.0026865   4.4734174
   2.2290826  33.8105464   3.3426276   3.5619351  60.6617212  34.0484357
   3.1365615  61.3975954  33.6082315   2.8994769  59.9708176  34.0544271
  25.4953074  43.5435486  73.9334393  24.8053861  43.4414482  73.2778311
  25.0741863  43.3145475  74.7619581 110.0778961  23.0588222  63.9161205
 110.4503441  22.1889687  63.7716532 109.6487236  22.9969001  64.7694731
   3.7012160  95.4541588  56.3164139   4.4429982  95.0043297  56.7209339
   3.6181495  96.2703228  56.8095779 103.0627441   4.0681669  22.8736591
 102.6609898   4.9309713  22.7716947 102.3582363   3.4510505  22.6760006
  15.5549753  46.1047506  38.9693785  15.3630245  46.9817686  38.6373782
  16.1593950  46.2510872  39.6970415  14.5745099  30.9323359  27.3155093
  14.4013977  30.0720310  26.9332266  14.2379904  30.8693361  28.2093883
  43.7487555   4.7664574  13.5804212  44.1419840   3.9919257  13.1782973
  44.4580507   5.1578712  14.0902495  20.0646353   8.2974464  33.8172984
  20.0703239   7.7664483  33.0209064  20.9004259   8.1024456  34.2411613
   7.1386600  47.3580217  30.5150676   6.2787998  47.2643757  30.9250689
   7.0796132  48.1742048  30.0184822  42.8332806  10.2202559   4.6117571
  42.0922041  10.6265652   4.1623646  42.4475718   9.4934219   5.1008123
  21.0365868  25.9801769   4.7037771  20.1651192  26.1663580   5.0532216
  21.0753846  25.0250959   4.6533230  32.0752287   6.9316840  19.0616202
  31.4100099   6.2600863  18.9110470  32.8660059   6.4400524  19.2834318
 105.3602982  14.2862129  48.6305618 104.5503044  14.6925843  48.3223248
 106.0236073  14.5655119  47.9995012  45.2023554  43.6042500  40.0087833
  45.3507710  42.7298450  40.3688145  44.7906351  43.4467220  39.1591358
  36.7473364  62.1587753  37.7769208  36.3962293  62.6048040  38.5476446
  36.5855670  62.7656317  37.0545697  65.4391432   7.4225450  41.0461235
  64.8522902   8.1751895  41.1193562  65.1008415   6.7922664  41.6821480
  17.2548771  37.7409625  26.0016418  18.1125820  38.1323671  25.8361793
  16.8763649  37.6167393  25.1312780   8.7443066   0.4521957  43.9315701
   8.7475556  -0.0122132  43.0945826   8.3105642  -0.1488193  44.5372772
  27.6217961  37.6062226  32.9139924  27.9295111  38.4841204  33.1394649
  27.5058842  37.1690392  33.7575984  82.0692444  98.2697296  37.7629614
  82.5409126  98.5062218  36.9643164  81.7245865  99.0997887  38.0922675
   5.1753962  29.8625851  28.2885265   4.9065641  29.1659403  28.8873959
   5.6331611  30.4930449  28.8445854  16.1956894  35.2041292  12.8831816
  15.6953502  34.3891549  12.9245031  15.5411148  35.8780026  12.6997161
  12.6828718   7.9865086  70.9382582  11.9053638   7.4583173  70.7573557
  13.3590233   7.3478127  71.1643505  24.1201520  26.0346532  13.1754875
  23.1981063  25.8026505  13.2861161  24.5990944  25.3172016  13.5903513
  21.5982032  11.2094426  37.5385022  21.8198133  11.6029239  38.3824754
  21.3615513  10.3063989  37.7500176  26.6941547  75.1841640  24.7332406
  26.8938518  74.2528105  24.6387124  27.5067139  75.6290102  24.4922233
  27.4939179   6.1975974  26.6481805  28.2910967   6.0405076  27.1542048
  27.5475693   7.1196485  26.3968349  21.0076952  39.6597457  72.1564770
  20.3932643  39.1420889  71.6361475  21.5459418  40.1147652  71.5088081
   3.0237138  43.6286068  52.8197575   2.5155249  44.3293381  52.4111605
   3.2677737  43.0549145  52.0934343 101.0793018 105.2940845  31.5638661
 100.8944607 106.1406422  31.9705725 100.8327770 104.6503735  32.2280121
  16.0514867  31.4681292  54.9087858  16.9240415  31.5133500  54.5178461
  15.9857154  30.5743504  55.2450418  25.9327078  24.6248865  74.0696478
  26.6313744  24.5172882  73.4242678  25.4038763  23.8315725  73.9846468
   4.4430262  40.9004164  49.9010372   4.8964342  40.6147051  50.6941462
   4.5784029  40.1868725  49.2775297  45.2362061  33.0507421  29.3010759
  45.3912735  32.9019928  30.2338457  45.2975082  32.1808672  28.9063764
   5.5741954  12.8151011  54.8958302   5.4632741  12.8142393  55.8465815
   4.8107758  12.3417032  54.5652008  33.0491519  18.4696937  31.3275909
  32.4824643  18.7054789  32.0621014  32.7331018  19.0050578  30.5997658
  76.3227081 101.3873959  52.0365334  75.6413555 101.9801044  52.3538303
  76.3375998 101.5247631  51.0893583  34.8576450  16.5111721  37.2387338
  35.1478386  17.3644912  37.5610161  34.6177506  16.6689515  36.3256145
   9.4915932  34.7404289  15.7400441   9.0978843  34.0251780  16.2396860
   9.4131434  34.4659209  14.8264122  12.2928417   0.6788432  12.1253288
  12.6257861  -0.0232440  11.5663540  13.0779910   1.1245902  12.4432647
  26.4576602  20.7166076  29.0915442  26.8534279  21.5804625  29.2071009
  26.0755587  20.7436156  28.2143307  33.6093044  22.5305796  64.3622684
  33.5576367  23.4501410  64.6229696  33.0223274  22.0768166  64.9670744
   7.4786288  29.3721247  47.8465033   6.7196774  29.8590994  48.1675673
   7.3757714  28.4960270  48.2181263  24.3493748  50.5175781  40.6062937
  24.2814875  50.0489473  41.4381647  24.6041679  49.8462725  39.9733138
  21.9021463  53.4607649  26.1366606  22.7753162  53.7494516  25.8711982
  21.9583488  52.5052643  26.1460638  12.6159346  26.6922545  65.5375862
  12.3957062  25.8033705  65.8161831  11.9312429  26.9230390  64.9097586
  14.4745266  18.1489313  14.3466091  13.6353302  17.8459561  13.9999282
  14.7080302  17.4996841  15.0100744  27.1100092  56.8370628  81.8451118
  27.1540904  56.0623550  81.2846565  27.4790549  56.5497923  82.6802826
 102.5269699 110.5921459  19.7469258 102.4739647 111.5468025  19.7921896
 101.6238880 110.3086090  19.6045136  31.8401241  18.9203644  33.8039732
  31.2520719  19.6427870  33.5836768  32.5129843  19.3190145  34.3558526
  39.4582343  44.1089058  70.2092218  38.7693691  44.5700741  69.7306633
  39.5356274  43.2651854  69.7638226 106.2322617  54.6549082  64.7016907
 106.1762238  53.7506628  65.0106096 107.0620441  54.6945667  64.2261648
  28.7190485  50.6027794  12.0742285  29.5675993  50.3032923  11.7478836
  28.3495045  51.1093378  11.3509941  86.6173458  22.7712917  37.1085501
  86.7203140  22.4572587  38.0068874  85.7013893  23.0437350  37.0535707
  59.8350477  19.8619783  47.8316879  59.0416527  19.4052088  47.5521994
  60.2607203  20.1240039  47.0153666   9.1501045  37.8980970  55.6321764
   8.7485170  38.2193542  54.8248625   9.8296809  37.2920847  55.3369570
  18.1187284  16.3254797  41.9118786  17.5357437  16.7282510  42.5554132
  18.9164186  16.8533289  41.9478989   4.4002333  58.3571148  57.7725840
   5.1118451  58.8532114  58.1772232   4.3115669  58.7356138  56.8978834
   9.8364919   2.9950511  30.8868408   9.0568304   3.5324112  30.7468247
   9.7359663   2.6541367  31.7756081  32.4646997  31.9464588  29.2347264
  32.7918029  31.0536432  29.3447971  32.9733896  32.2996283  28.5048389
  60.8133650 105.5545044  61.5646505  60.4627514 104.8198891  62.0682764
  60.1568604 106.2446594  61.6590929   8.8222045  45.2638292  31.2563491
   8.8475621  44.5844841  30.5824924   8.3093160  45.9707355  30.8646083
   5.4238254  55.7466555  68.8926983   5.8939004  55.2280760  68.2397509
   4.6322179  55.2406311  69.0758038 108.2160378  72.9369450  76.3785028
 107.7791786  72.7792072  75.5415392 107.5612831  72.7064848  77.0376015
  13.8771832  15.7571483  31.3523722  13.7382448  15.2555454  30.5490518
  13.8936663  15.0981462  32.0464015  40.7146788  27.9276466  31.9734097
  41.3036060  28.6819816  31.9539738  41.2911415  27.1709275  31.8671036
  94.4141197  21.8314171  58.3198977  94.6570301  22.1183658  57.4396229
  94.7740936  22.5034261  58.8987350 101.2190628  21.2773943  47.4895096
 100.9731293  20.3618598  47.6219702 100.4646015  21.7758846  47.8034019
 114.7610188  19.8216963  35.0121832 115.3504753  19.1418374  35.3386140
 115.0346279  20.6162238  35.4705453 111.1465740 107.0320034  37.1710348
 111.4103985 106.7730618  36.2880993 110.3294373 107.5143433  37.0450687
   0.3353416  38.8277531   5.1845115  -0.1253739  38.3899355   4.4687682
   0.1702408  38.2756519   5.9488142 106.0138798   4.7879717  23.2532001
 105.1227856   4.8019457  22.9039288 106.4527416   4.0933412  22.7621531
  31.3953829  34.5150805  29.5065737  31.4898682  35.0774980  28.7378144
  31.5914416  33.6350608  29.1850805  14.1018224  26.3826942  48.8104153
  15.0353718  26.2601924  48.9827871  14.0323782  26.3816810  47.8557396
   8.4058386  51.8756199   5.6043255   8.2563859  51.9306564   6.5481830
   7.5478750  52.0460653   5.2156377  21.9813848  35.2066946  38.1530118
  22.3845840  35.5435896  37.3529100  22.6011372  35.4321170  38.8467836
  20.5851364  40.8778906  58.5241222  20.3734994  41.2307167  57.6598549
  20.9185052  41.6293049  59.0145063 102.6013660  25.7000875  44.3317032
 102.5002480  25.7781005  43.3830643 103.2963467  25.0518751  44.4459867
  -0.0782503  36.0670877  53.3961678  -0.0725091  36.6776133  54.1333628
   0.2065646  36.5920782  52.6481771   4.5905653  52.4328327  62.9567957
   4.4275796  52.8589487  63.7982798   4.6229318  51.4987993  63.1636047
   5.7900316  42.2332478  10.6087232   5.6844360  42.0412874  11.5405130
   6.7190671  42.0801544  10.4364240  80.6429863  94.9262047  29.0000629
  80.2783680  94.4008732  28.2878089  80.1530647  95.7478428  28.9667344
  31.9486260  45.4712200  41.6884422  31.1517692  45.7756996  41.2542295
  32.0056009  46.0011816  42.4835062  51.6126442  81.7896843  19.2348993
  52.3537159  82.2713852  19.6023428  51.9914150  80.9666920  18.9259458
  52.6523209  39.6356988  42.4799395  51.7598057  39.5318031  42.8098679
  53.1547356  38.9568019  42.9303932  41.2065649  59.4221878  24.1667128
  40.6139374  59.0084171  24.7942615  41.9372177  59.7369957  24.6989465
  23.0666685  15.5521023  25.0278544  22.9737711  16.4835632  25.2278113
  23.5769033  15.5306518  24.2182660  10.7065535  24.1825271  55.3833675
   9.7911572  24.3034554  55.6356716  11.1834860  24.1657495  56.2131166
  29.7446609  77.0504951  26.1511922  29.8968863  76.1229610  25.9702468
  29.4420052  77.4106216  25.3175640  36.9237518  42.4929762  18.0968559
  36.0442233  42.1179056  18.1413805  37.4499202  41.8192577  17.6661849
  31.4058590  90.6120491  27.8134203  30.8202815  91.3120270  28.1021547
  31.1532164  90.4479504  26.9048643  40.2480984  80.9258747  31.4363432
  39.8259306  81.4741898  32.0976782  41.1827183  81.1067486  31.5363407
  86.6446209 101.9640064  87.5928211  86.1586189 101.5495014  88.3057117
  86.0065746 102.0461941  86.8840313  38.6736584  67.1877432  41.1253548
  38.5382628  66.4841413  41.7600584  39.5842409  67.0878744  40.8476877
   6.3099468  23.0752134  30.2338290   5.4552460  22.7162242  30.4722500
   6.5775996  22.5677299  29.4676328  32.0382690  78.4306574  60.7361031
  31.4182258  78.9947701  60.2739811  32.6812172  79.0349293  61.1071825
  39.6059132  48.4367847  59.7531080  39.0889502  47.6661205  59.5184660
  39.0322137  49.1781044  59.5593262  31.9944882  43.5991716  30.1496530
  31.8408537  44.2661572  30.8188009  32.8215933  43.8553429  29.7415972
  40.4399681  67.7635098  29.4789076  40.3043747  66.8592024  29.1959381
  39.5565128  68.1132936  29.5946193 115.8659935  49.4784451   1.7488892
 115.9547997  48.7927341   2.4108148 115.4800606  50.2171755   2.2195916
  58.4869099  14.9638999  43.4314680  58.3081055  15.7826173  43.8940287
  59.0189314  14.4546294  44.0428782  18.7794352  47.0838547  27.0093107
  18.9162803  47.0718718  27.9566026  17.8279912  47.0924664  26.9048476
  43.4483624  58.4373522  38.5438251  43.4437704  58.4123230  37.5869632
  44.2173195  58.9623070  38.7660003  14.8592854   1.2319466  41.3862801
  15.2327299   0.3897785  41.1264277  14.5367098   1.0866972  42.2757053
  37.6283598  48.6271906  36.3278794  37.9436016  49.1327095  35.5786777
  38.2398868  47.8940058  36.3964868  36.5145755   7.9663146  52.8177547
  35.8393979   7.3386472  52.5600767  37.1235728   7.4569607  53.3524656
  13.2978106  53.1441689  55.6320524  13.1851709  52.8544188  54.7267437
  13.4105182  52.3347044  56.1303473  22.1012974  87.9173088  26.4272285
  22.1723509  88.4493446  25.6346917  21.5689373  87.1663857  26.1646700
  62.0810509  63.4194469  44.0262413  62.6563692  64.0352774  43.5723734
  61.3378572  63.9512825  44.3109226  57.6425648  52.2670269  34.2189479
  57.9641104  53.1415939  33.9999342  57.2786283  51.9333363  33.3989286
  60.7234859  65.0561905  52.7043962  60.1569843  64.3014431  52.5441837
  60.4831934  65.3540659  53.5817575  36.9520807  23.3544803  45.0150585
  36.0372376  23.0792451  45.0745583  36.9481778  24.0607429  44.3689871
  37.4300504  41.9001484  56.1464882  37.1941376  40.9973764  56.3599777
  37.5708580  41.8934155  55.1997232  42.8101397  32.4334908  43.7218714
  42.1513796  32.8577805  44.2716360  42.3050451  32.0013618  43.0331230
  42.6714373  52.6128817  28.6847663  43.6019707  52.6648331  28.9030504
  42.2278261  53.0205870  29.4285488  35.7282114  46.5519953  42.4009800
  35.7813859  45.6426668  42.1068287  34.7999907  46.6884422  42.5907755
  26.0740495  40.1513386  46.2799215  25.4350638  40.6954193  46.7402506
  25.6783891  39.2799115  46.2626314  20.9243894  37.9797173  41.0539293
  20.5510449  37.7311897  40.2083063  21.0165620  37.1529078  41.5273476
  28.3068681  16.5043640  29.5760465  27.4943781  16.5764856  30.0769377
  28.7285995  15.7152069  29.9160528  29.5745230  40.6693554  26.6137791
  29.3788648  41.4153337  27.1807599  28.7201810  40.2806854  26.4259815
   5.3623885  70.2555084  17.8772354   5.0032377  70.2020836  16.9915783
   5.6446314  69.3626165  18.0755019  21.4134049  57.3066998  32.3504639
  21.4323997  57.7736282  31.5150928  20.5266786  57.4463463  32.6827979
  41.4416265  41.7898417  59.3903685  40.8794260  41.2868214  59.9795437
  42.1784687  41.2070847  59.2068100  19.7537613  26.1190295  26.0271668
  19.6558237  25.9500265  25.0901103  20.1707053  26.9794273  26.0730743
  37.2304845  48.0212307  32.1993899  36.6336346  47.3738146  32.5746965
  36.6570544  48.7142563  31.8720937   9.4755268  45.7473564  43.4756947
   8.8503063  46.2459564  42.9496431   9.0746748  45.7006502  44.3436623
 117.5228977  23.2744789  34.6706843 116.7177677  23.2194710  34.1559339
 117.7697563  22.3630261  34.8273587  32.3312569  35.8585382  35.4045033
  32.4230385  36.2602258  36.2684798  33.2227111  35.8317494  35.0569034
   9.5336813  51.8581915  74.4697094   8.5875678  51.8427658  74.6141481
   9.9085015  51.5915394  75.3091335  57.0566845  41.0881615  14.0952313
  57.2365761  40.6051922  14.9018347  57.1286678  42.0090294  14.3463373
  23.5530448  64.2752218  27.6547480  24.4484496  64.3375206  27.9873157
  23.3396173  65.1648903  27.3733616  41.4564228   3.2495171  23.7813091
  42.3450947   2.9887494  23.5394454  41.2537384   3.9800084  23.1968999
  68.1663418  63.3911848  13.2464314  67.2548294  63.1134892  13.3373189
  68.4129190  63.1181908  12.3627424  52.1792126  42.7524328  23.8638997
  51.7944098  43.0231142  23.0302978  51.7531586  43.3085394  24.5161700
 108.9022064  64.7980738   6.3235295 108.0570984  65.2045774   6.1317384
 108.6917305  64.0756559   6.9151741  28.1968999  40.7761097  53.8102770
  27.2775888  40.5248022  53.7211370  28.5787725  40.5961657  52.9511929
   1.9341974  42.3556662  56.1675835   1.5759051  41.5070963  55.9072304
   2.1527210  42.7870226  55.3415012  43.1331253  37.4965215  13.5034025
  43.8420105  38.0558205  13.1857538  42.3351479  37.9133272  13.1782317
  29.7143817  12.8995597  33.0372930  29.8476076  12.1833134  32.4164271
  30.5914974  13.0991745  33.3644843  30.0853300  45.3093863  46.9031954
  30.2678871  44.6141672  47.5353146  30.9355712  45.7203865  46.7469835
  46.6206264  73.0892515  26.8783402  47.1659803  73.1862259  27.6589918
  45.9406948  72.4671125  27.1369362  93.9065361  33.6599016  38.4384584
  94.8158836  33.9587569  38.4406567  93.9661503  32.7122808  38.3172393
  44.5996332  44.8426771  12.8957081  44.7329330  44.5065784  12.0094240
  44.9665022  45.7265234  12.8743863  15.7930481  30.5594444   1.8503073
  15.8857524  30.0290585   2.6417172  16.6899419  30.6876254   1.5414655
 117.3329449  44.9068832   2.3894441 117.1723652  44.6334648   3.2925984
 116.4665794  44.9098873   1.9824652  56.5404797  56.9771671  43.6986065
  56.4198065  57.8862238  43.9729786  55.6586790  56.6049242  43.7085104
  25.0014329  43.3135700  29.7985101  24.6245408  44.1730833  29.6103024
  25.8023357  43.2834339  29.2751765  28.7797475  45.1420546  51.7024040
  29.4630241  44.4985437  51.5146303  29.1531539  45.6943893  52.3892260
 115.6344891  13.1887150  29.8227954 115.7087135  12.6303637  29.0488648
 115.9014320  12.6266313  30.5501413  21.1384797  22.6441884  34.1335988
  21.6410160  21.9934559  33.6434603  21.6397953  23.4542108  34.0399146
  34.3698907  56.8489265  43.2644987  34.5639181  55.9683371  43.5856628
  35.0770140  57.3920584  43.6126518  40.4120827  27.2751045  24.1586733
  40.1942873  26.6425967  23.4740353  40.5874681  26.7396259  24.9324512
  21.1369348  29.1188526  43.3867788  21.9509697  28.7916327  43.0040216
  20.7167363  28.3421469  43.7560940  92.0538425  45.1543617  76.6771078
  91.5324593  44.7213793  77.3530579  91.4257431  45.6983232  76.2018967
  76.9864702  90.5376720  91.4600372  77.7642918  90.1152897  91.0955811
  76.7048693  91.1490631  90.7795048  33.6591625  60.9545660  51.7961931
  34.3807673  61.5617085  51.6321850  33.8348389  60.2120399  51.2182474
  41.5030050   2.6106343  33.0269933  41.1106539   1.7546251  32.8551173
  41.2612677   3.1416234  32.2681475  79.7224188  65.8450413  88.1682110
  79.6387959  64.8915148  88.1733799  78.8744640  66.1581326  87.8532887
  58.0223274  67.9024124  21.3648367  58.4069109  68.7715769  21.4783359
  58.2741261  67.4240732  22.1547866  44.4894743  30.0209713  31.6722989
  44.0846062  30.8426499  31.3945270  44.4903898  30.0656414  32.6284575
  32.2782898  31.8876433  19.8966420  33.1890893  31.7519927  20.1579380
  31.7676544  31.6230679  20.6618094  83.9453888  41.6894245  67.8462934
  84.5099449  41.9841528  67.1316957  83.0613804  41.7174530  67.4802780
  67.0943880  66.1834955  12.4705291  66.6874218  65.3225517  12.5674212
  67.0904112  66.5511227  13.3543074  11.6464591  43.4907818  33.5546899
  12.2589839  43.9959478  34.0893412  11.3384271  44.1104126  32.8933239
   9.3257886  41.1875677  21.2224770   8.7412149  41.9448757  21.2538838
   8.7968630  40.4627323  21.5557694  19.3126607  54.7093344  30.0767970
  19.6671510  54.6105385  29.1931629  18.8285768  55.5346584  30.0497746
  46.2189388  51.6668415  41.1809301  46.3605165  52.5631618  40.8762932
  45.7245588  51.2494087  40.4755449 111.8816280  47.3663712  31.6079688
 112.5237846  47.8336048  32.1423388 111.0665321  47.4260807  32.1062493
  38.9095950  64.8895168  34.9782681  39.3396401  65.4984808  35.5786443
  38.0366278  64.7630548  35.3499746  40.3490305  10.5574524  45.4830456
  40.3793955  11.1460590  44.7288227  41.2670612  10.4196203  45.7164001
   7.2691536  59.4197655  57.4432707   7.7856880  59.4546080  56.6381550
   7.6123023  58.6610651  57.9153442  27.8991389  50.1098394  80.8889675
  27.3819590  50.6041765  81.5248775  28.0933499  50.7408285  80.1958847
  21.0159445  34.9464011  45.8662510  20.6998229  34.3573141  46.5512848
  20.2703857  35.5163050  45.6776094   1.5938862  73.1682730  19.6178639
   1.3269021  72.9928255  20.5201769   0.7856797  73.0945873  19.1103160
  31.3432169  52.4466038  57.2102642  31.0559630  51.7690468  57.8223419
  31.2320280  52.0511055  56.3457155  12.3506773  80.3313351  66.5015793
  12.4656057  81.1299419  65.9865522  11.8069673  80.6000805  67.2421122
 117.2001076  42.2050142  49.2962742 117.9579258  42.0292330  49.8539877
 117.1965885  43.1562710  49.1898108  56.2841082  50.9723997  41.4899015
  55.5907679  50.6011868  42.0355320  56.4658260  51.8265963  41.8817711
  42.7972984  27.2046852  22.3772359  43.1510973  28.0478120  22.0940495
  41.9397783  27.4164867  22.7460623  18.3251178  28.0977964  22.6692986
  18.3792531  28.9653897  23.0700231  17.4452639  28.0617571  22.2940779
  29.7003126  19.5790172  26.3076043  30.5842519  19.2763257  26.5156007
  29.1235685  18.9547074  26.7478704 107.4770641  25.0991249  28.5380197
 106.7665482  24.8240614  29.1174555 107.0594501  25.6887078  27.9101491
  29.4614291  57.0949316  45.4385900  29.6851325  56.5756464  46.2109423
  30.0418186  57.8547144  45.4844856   5.0098217  35.9120202  23.0324340
   4.1783667  35.4458356  23.1195354   5.0253397  36.2059450  22.1216106
  18.2742584  61.6316414   7.6369971  17.5769234  61.0149860   7.8599095
  17.9929364  62.4611139   8.0230850  44.7445345  22.0909762  38.2890797
  43.9752245  21.8509746  37.7725601  44.8143005  23.0402565  38.1879401
 110.0296307  31.2048507  59.4394112 110.2663708  30.5053115  60.0483656
 110.8681870  31.5643430  59.1498899  34.0722704  17.2566116  70.7134724
  33.8258338  18.0919051  71.1106968  33.9291120  16.6108680  71.4053917
  49.6506214  78.9774132  25.8645368  50.0354290  79.6200275  25.2685523
  50.3757668  78.3941078  26.0884738  42.1078348  41.1833286  42.1576405
  41.9991970  41.6320419  41.3191366  41.3030577  40.6761074  42.2638941
  30.1916909  62.6601839  20.9790516  29.7072220  62.2132921  21.6731739
  31.0790682  62.7506256  21.3263440  30.6587911  31.2053967  38.5287881
  30.5475569  31.7693758  39.2941546  31.1287713  30.4405999  38.8611054
  40.9610176  50.7658195  31.2228560  41.7684078  50.2916622  31.0240483
  40.2670574  50.2268696  30.8431435 110.4114151   4.7090936  12.4740815
 110.5770016   4.9106944  11.5531194 110.9200573   3.9155355  12.6407564
  16.4965963  45.5606365  33.4962106  16.7091227  46.4697313  33.7074184
  17.0451260  45.0432348  34.0858221  59.9178648  70.7530260   2.4684903
  59.8011923  71.6989279   2.5572979  60.2093840  70.4653835   3.3336562
  70.7690907 110.9699154  94.6146297  71.1817408 111.7988396  94.8572254
  71.0845709 110.7958221  93.7278366   3.9732239  48.6820698  68.6805677
   4.8192960  49.0515995  68.9332342   4.0851897  47.7367401  68.7808323
  36.6119480  39.7660542   5.1255620  37.0114541  38.9339399   4.8721606
  36.5412784  39.7173214   6.0789055  39.6945930  73.0839682  52.3724270
  39.7262359  73.6323881  53.1563044  39.8634505  72.1979904  52.6929951
  13.7596238  64.2323303  46.5498734  13.8600957  63.6789942  45.7753038
  14.0478206  65.0991821  46.2639761  32.4856520  47.0223236  44.0232325
  32.1824956  47.9178715  43.8738298  32.6247931  46.9711828  44.9688816
  39.1003990  43.7854528  44.7238255  38.6531115  43.4828901  45.5141592
  38.7011623  44.6341658  44.5327139  38.6792588   5.1054877  23.1087232
  38.3427382   5.1635736  22.2145128  39.3058920   5.8259219  23.1760812
  20.1030707  63.9624262  20.8914304  20.1781893  63.0355930  21.1185288
  20.9078455  64.3572617  21.2270999   0.5709657  26.3603044  67.3236179
  -0.0556634  26.8062329  66.7537785   1.3519001  26.9133067  67.2999334
   1.6468070  42.9342890  24.2071486   1.1202575  42.4324226  23.5849714
   2.1212918  43.5648680  23.6654258  25.3963685  53.3987427  38.5518312
  25.1135254  54.0604591  37.9206753  24.6101642  53.2020330  39.0611625
  38.9045072  33.8575435  26.6649246  38.6357522  33.8999391  27.5826406
  39.7617817  34.2829537  26.6465092  56.6463375  59.3491364  34.9931955
  56.4952755  58.5333729  34.5157576  56.0366631  59.9733782  34.5996881
   9.2877299  26.7995715  48.5500669   9.5399547  27.7220082  48.5916090
   9.0958631  26.5626335  49.4574165  16.1449802   7.9785842  39.3754387
  15.4043686   7.5703967  38.9269876  16.3744366   8.7278497  38.8257265
   9.0826416   3.3411440  19.1227245   8.9687371   2.8972691  19.9631011
   9.6592897   2.7633312  18.6228836  23.6270785  31.7156577  40.9286451
  22.9957271  31.7447400  40.2097702  24.0362835  32.5809622  40.9231853
  43.2353306  13.3921635  26.1160517  42.5156069  13.0462897  26.6438746
  43.4573841  12.6791596  25.5172610  25.3718090  49.4750786  44.7484636
  25.0261998  49.1364717  43.9225531  25.1621032  48.7977505  45.3914928
   1.8843043  19.5748389  65.4155445   1.1883628  19.3369651  64.8029184
   1.5580396  20.3597641  65.8556318  19.3453288  50.3315926  37.7312040
  19.8063195  51.1527157  37.9028916  18.6010456  50.3444195  38.3329606
  49.2371559  44.0052652  28.2230783  49.2078447  44.1760063  29.1644716
  49.2519569  43.0507421  28.1531262  12.2575974   4.8483676  39.2846894
  12.5617039   3.9647493  39.4919825  12.4574113   5.3604311  40.0683308
  46.4280462  31.7854404  33.2078910  45.7829380  31.2139273  33.6243582
  45.9288502  32.5588727  32.9455209  32.9784918  62.3320580   4.3001971
  33.5883856  61.7743444   4.7831219  32.8441930  63.0895042   4.8698211
  49.3527508  29.2651033  57.7118731  49.7206879  28.7936521  58.4592628
  50.0273514  29.9012709  57.4743128  28.8423538  56.6478920  49.9998760
  29.6510649  57.1331072  50.1635313  29.0387392  55.7537651  50.2795124
  22.7076077  37.5937915   8.1013995  22.9240322  38.1508350   8.8491267
  23.2888103  36.8383455   8.1893575  41.2944412  36.0965753  52.4861383
  40.6266356  35.5952692  52.0182037  40.8279991  36.4838219  53.2268810
  21.2311554  45.8238935  25.6804657  20.4938459  46.2302399  26.1359739
  20.8957386  45.6330109  24.8045135  27.1901488  72.4681139  48.6318779
  26.9713807  73.3999729  48.6298275  26.3549733  72.0256853  48.4803104
  52.9007149  73.2005119  41.9650030  51.9982958  73.0332661  41.6931486
  53.2567596  73.7652206  41.2790203 115.3553963  35.5742097  29.4194531
 114.4585323  35.2476478  29.4916558 115.9024525  34.8281741  29.6652079
  28.1391287  27.8854728  24.9845600  28.7823915  28.1676412  24.3343091
  27.7670145  28.7000656  25.3224969  57.2286987  67.8898573  34.8277974
  57.9170275  67.5205374  34.2745876  56.9284821  67.1533298  35.3603673
  50.6229877  38.7034535  39.6983671  50.7334137  38.1935620  40.5008936
  50.0604153  38.1611252  39.1455317  47.0060158  53.3153248  33.9109373
  46.4145231  52.9141474  33.2742095  47.3264170  54.1053104  33.4756207
  15.5926919  29.5987582  73.0677557  15.1846123  30.2791882  72.5322914
  16.4387870  29.9681687  73.3205175  43.9078760  85.0407219  34.3922853
  43.9558125  84.8929691  35.3367972  44.4540548  84.3516254  34.0140367
  59.7502470  75.7878876  29.1768050  60.4174519  76.3796997  29.5244122
  59.6168661  75.1429081  29.8713827  86.7406178  38.2386708   1.7789407
  86.9418144  38.9838815   2.3449907  87.5894165  37.8292131   1.6112779
  48.1937551  33.1840205  26.4178514  49.1327143  33.1680846  26.2325454
  48.1171894  33.6958933  27.2230554  13.1922603  23.4184957   5.2905989
  14.0908301  23.3951187   5.6196249  12.6850033  23.8014293   6.0063380
  61.0157061  25.4644442  48.8386440  60.4183245  24.7243643  48.7307310
  61.8818426  25.0640535  48.9143181  31.8607664  18.9289129   8.7676954
  32.4518394  18.4419227   9.3418968  32.2980285  18.9264286   7.9162097
  42.9066515  29.2393899  39.3708301  42.8759670  28.9818025  40.2922106
  43.6458826  29.8449898  39.3159318  27.7282500  88.7848568   8.0291671
  27.0235991  88.1370258   8.0244654  28.3906817  88.4139729   8.6121505
   0.4572810  47.7936459  41.8383789   0.3525101  47.9559660  40.9008789
   1.0824412  47.0704842  41.8878460  26.0978365  60.1401663  42.6408339
  25.4776859  60.7790136  42.2893810  25.8605051  59.3165255  42.2147799
  45.1823711  31.3594413  43.2633543  44.4520712  31.8809247  43.5964394
  45.7803106  32.0015621  42.8807545   5.2980232  28.0450392  37.0708203
   6.2117422  27.8682351  37.2946286   4.8760393  28.2245088  37.9110289
  38.1777644  35.0526118  24.1296649  38.6590481  34.3485212  23.6950922
  38.2472134  34.8498940  25.0625706  19.5099306  68.2869482  21.1188531
  19.0545893  68.9699507  20.6265044  18.8238204  67.8689909  21.6392326
   9.6562934  62.8222466  30.7067466   9.5615292  62.1697807  31.4006758
   9.9510276  63.6123943  31.1595535  31.6088700  28.4366703   9.4954652
  30.9885693  29.1419935   9.6797931  31.1415815  27.6372743   9.7380388
  73.1859350  28.4204102  39.4326973  73.5965776  28.0371952  40.2077818
  73.8817835  28.9335489  39.0219498  16.1795020  36.4126062  45.5126381
  15.8537543  35.5131149  45.5448055  16.7094862  36.5038705  46.3044834
   1.8458515  21.1054087   8.6718065   2.5179002  20.4522943   8.4768093
   2.1469313  21.8985796   8.2285661  16.8751025  61.1213541  19.0110064
  16.4659727  61.9633341  19.2107928  17.7498317  61.1830473  19.3947697
  42.1362162  10.9392297  67.2059822  42.4280787  10.7695508  68.1016684
  41.2011623  10.7347536  67.2159719  32.1289778  55.3179932  32.1515584
  32.1974206  54.4606829  31.7313528  32.1757317  55.9435272  31.4285421
  60.9894657  97.7874660  34.6462464  60.3045893  98.3278656  35.0401282
  60.6411791  96.8965530  34.6809268  29.9364257  46.3861275  40.0642824
  30.4210401  47.2099257  40.0119591  29.2429781  46.4742279  39.4103694
  17.6528096  44.1679430  42.8182745  18.3541834  43.8861465  42.2309971
  17.2999716  43.3540249  43.1778145  12.4760485  82.3473454  27.7204156
  12.8921890  81.9299221  28.4746170  12.3976660  83.2682705  27.9693794
  52.9491568  57.6889133   2.4833101  53.3648062  58.1940079   1.7844895
  52.9186630  56.7935896   2.1461192  47.5967693  46.0447884  71.7022228
  47.1208382  46.2283659  72.5121737  46.9118118  45.8893204  71.0519171
  25.0605845  35.2458215  23.2065034  24.1325045  35.4791903  23.2274556
  25.4035664  35.5520511  24.0460396  54.3102264  68.0761766  52.5928736
  54.9433994  67.3622894  52.6683187  54.0142393  68.0386877  51.6833591
  36.1526823  32.0161223  31.0025859  35.9460115  31.6917944  31.8791318
  37.0797181  32.2504807  31.0463238  58.8148928  47.4351978   6.7914480
  57.9459143  47.0415974   6.8701136  58.6532402  48.2985020   6.4109045
  33.8680792  67.1755123  17.4792802  34.4503379  66.7627573  16.8414378
  33.5952187  66.4595032  18.0529618  45.5928278  93.7707806  80.0168133
  45.7145929  94.7056103  79.8509836  44.8931789  93.5103989  79.4177103
  56.9613743  47.2392941   9.3917334  57.8610182  47.5624895   9.4408792
  56.6991663  47.3977137   8.4848809 103.6083794  49.6523952  29.3016434
 103.7280083  50.2464819  28.5607076 103.7166882  50.2076626  30.0737691
  65.2515411  12.7103698  70.4767275  64.4118118  12.4042857  70.1340914
  65.8808136  12.0451868  70.1978350  26.9284701  62.6250458   7.9669809
  26.6216898  61.7207813   8.0334860  26.1724091  63.1108427   7.6374257
  42.2660255  81.7850590  16.7447400  43.1239271  82.1168041  17.0096588
  42.0634794  82.2609711  15.9393072  25.8505011   4.0617630  54.6719217
  26.7650652   4.3182400  54.7903490  25.3673530   4.8880595  54.6776915
  35.9224010  26.8483496  12.0030499  36.8457007  26.7307615  11.7796159
  35.4818940  26.0982919  11.6035497  47.0917463   8.6399752  40.6014347
  47.7834988   7.9787308  40.6231165  46.8327713   8.6855835  39.6810627
  65.5468035  62.2942400  31.0063314  66.4911032  62.3485231  31.1532521
  65.2209663  63.1693125  31.2168431  39.6498489  72.8555346  28.6031723
  40.5250931  73.2364130  28.6746788  39.0566850  73.6035156  28.6732674
  36.4868617  99.7166061  45.7927799  35.8171630  99.5182991  45.1382542
  36.1044121 100.4162407  46.3223886  43.5009527  48.6400318  41.4222050
  44.3446636  48.1930161  41.3547039  43.2167816  48.7535048  40.5152273
  49.2645454  61.1418390  42.9696798  50.1340628  61.5373564  42.9085064
  48.7751389  61.5255833  42.2420454  45.8005047  55.1966572  14.1540861
  45.3780127  54.3481159  14.0210390  45.8017969  55.6021500  13.2870173
  15.2045369  70.2131271  22.0411801  15.6438208  69.3636131  22.0810652
  14.6277499  70.2206039  22.8050470  57.4045467  49.7435474  36.1503673
  57.8820992  49.7619629  35.3210092  57.4353027  50.6471825  36.4645767
  56.2756824  51.4559507  38.5371590  56.2696505  51.3296843  39.4859743
  57.0712852  51.9604683  38.3677244  59.6362257  54.2797899  40.1425266
  59.3136406  53.5244274  39.6510029  58.9983892  54.3976402  40.8464527
  19.1456926  59.9554825  38.3403873  18.5824621  59.2418480  38.6399341
  20.0356889  59.6217966  38.4534931  31.3371086  36.7013717  31.3900495
  32.2709560  36.5865421  31.5660429  31.1369038  36.0457754  30.7219577
  15.4500580  45.4709291  48.6407328  15.0840759  44.6420479  48.9493513
  15.4345930  46.0406733  49.4097424  30.7155132   4.5828605  92.7068138
  30.5444598   5.3882515  93.1949902  31.3168454   4.0883717  93.2636929
  51.8703175 106.3258362  33.0500436  52.6760817 105.8316135  33.2007790
  51.6478968 106.1483479  32.1361160  43.8966084  41.6689730   6.5666187
  43.9295816  42.5946236   6.3251334  44.4467497  41.2320900   5.9164572
  47.7200603  62.3983908  40.6758451  47.2624493  62.9327726  41.3248920
  48.2979488  63.0131960  40.2238655  40.8090401  45.1187754  46.2763643
  41.3453245  45.7805252  45.8396482  40.4838181  44.5666361  45.5653048
  28.3817434  55.2338362  26.1374593  27.9446888  55.9194756  25.6323719
  28.7570333  55.6924438  26.8891692  40.5404806  70.7586527  62.6428890
  40.7087135  70.9839725  63.5578537  41.3623142  70.3762054  62.3353910
  37.8189254  47.5040436  40.9468365  37.9945850  46.6892290  40.4762506
  37.0085812  47.3334503  41.4269114  52.8114319  62.5606489  33.8414121
  53.5698557  62.1834660  33.3955860  52.3376608  63.0285835  33.1538010
 103.4027767  78.6620426  36.7975330 102.9759121  79.4636297  36.4950848
 103.2056808  78.6242151  37.7334571  32.8876424  62.5090885  44.6911430
  33.4209609  63.3004999  44.7651386  33.2714820  61.9016171  45.3235006
  18.8839126  87.5172710  38.7823486  17.9858804  87.4801636  38.4531212
  19.3572962  86.8693542  38.2604861  17.9241097  41.1356115  46.4679670
  17.9126537  41.9671249  45.9939575  18.0970275  41.3804817  47.3770142
  67.2193861  94.3239021  34.5602107  67.6088381  93.9338589  33.7776327
  67.1791267  93.6053181  35.1912785  43.7565517  59.1515779  29.8491645
  43.6115313  59.7144365  30.6096840  42.8779364  58.8900042  29.5737600
  20.2799702  55.5334091  38.4761071  19.3305707  55.6505442  38.5100079
  20.5896401  56.2473822  37.9188132  43.6760521  62.1984720  30.7321692
  44.5986700  62.3738194  30.9172535  43.3527946  61.7606878  31.5196252
  42.6537704  54.3365955  32.1960044  43.5732031  54.5970106  32.1406579
  42.6260900  53.7070990  32.9165602  55.1700497  53.6098957  31.8562412
  55.7248974  52.8650045  31.6249132  54.8884058  53.4293652  32.7530789
  49.1391230  58.1668949  41.7469311  49.3641949  59.0967083  41.7788649
  48.5681820  58.0325508  42.5033760  35.5196452  43.8487291  24.4173479
  36.2653446  43.7324667  23.8285804  35.0930738  44.6480751  24.1086221
  52.8264713  59.9656153  34.9628019  53.0099630  59.8910189  35.8992839
  53.1298399  60.8426905  34.7284150  53.5616684  67.7223969  43.5125494
  52.9865408  68.4456873  43.7621784  54.3199825  68.1468821  43.1113005
  29.3238068  65.9443903  28.5012746  29.7712111  65.9677935  27.6553941
  28.5659838  66.5179348  28.3873439  40.8909702  37.6521492  58.3015060
  41.0931444  37.7003551  59.2358685  41.7147207  37.3883939  57.8915024
  25.5841708  61.7219400  62.1895409  24.7940207  61.3647652  62.5949001
  25.2837729  62.5052071  61.7285728  46.8255329 101.5015411  36.7662716
  47.5930738 101.4950848  36.1943650  46.2090397 100.9015560  36.3465309
  78.5182858   4.5398200  32.0465803  77.5954056   4.6180663  32.2882485
  78.9725637   4.4011134  32.8776169  33.9153433  84.7533035  25.7438207
  33.3392167  84.0167427  25.5394173  33.5065031  85.1745224  26.4998984
  71.0706758  89.9433613  64.7593307  71.0297441  88.9946079  64.6391773
  70.1606512  90.2326584  64.6930742  38.4903908  63.6181021  31.5836859
  37.8816557  64.3390560  31.4227533  38.0180264  63.0335999  32.1765280
  53.9171648  33.1941032  23.5387540  53.4108400  32.5714612  23.0170417
  54.3351841  32.6578498  24.2124939  31.2684655  32.9523826  53.8670158
  31.5015626  33.8439870  54.1257429  32.0698643  32.4466062  54.0018654
  35.6112456  68.0048180  30.6733441  35.4564166  67.9034567  29.7342038
  34.7541595  67.8604650  31.0743427  57.5187302  58.0639315  28.4465075
  57.4079132  59.0092564  28.3449388  58.2366514  57.9728842  29.0730309
  42.5781727  72.3185015  42.7414560  43.2008696  72.4597740  42.0283461
  41.8835831  71.7878771  42.3512983  21.3937354  83.3169079  36.2646437
  22.1969128  82.8105736  36.3861537  20.7023311  82.6579094  36.2020087
  62.9215240  65.5347061   6.7360908  62.1836710  65.8946371   7.2282863
  62.7939939  65.8566141   5.8437103   8.6432570  46.8255043  33.6116290
   8.6719859  46.2165976  32.8736281   8.7532979  47.6891994  33.2139492
   0.7830258 105.9350777  75.3976202   0.7306489 106.3338470  74.5290184
   0.9431483 105.0071239  75.2258825  48.8562775  89.3648911  19.7553110
  48.8758755  88.7207699  19.0475261  48.2279587  89.0104008  20.3844261
  41.5448332  77.1613312  12.9392219  41.5471601  76.4541578  13.5843027
  41.6827250  76.7209768  12.1005869  18.3924568  66.2374544  38.0207324
  17.6067114  66.7641211  37.8742456  18.3963442  65.6074953  37.3000574
  60.2046680  84.2057419  52.6689529  59.8247766  84.6107674  51.8892956
  60.7923174  83.5321045  52.3267221  57.2608805  86.5711212  56.2393522
  58.0538654  86.4610004  55.7146788  56.5838909  86.8044376  55.6041527
  35.5722547  79.6535778  42.8649855  35.9314489  79.1206455  43.5743427
  35.0900459  80.3506756  43.3096886  16.2635648  75.5298758   7.0986736
  16.7296517  76.1119747   7.6988041  16.9245958  75.2670383   6.4582163
  97.2352123  72.2940063  31.1818504  98.1540203  72.5623846  31.1828423
  97.2441292  71.4078760  31.5436935   8.7995982  49.4134045  49.6989822
   8.1007338  49.1787338  49.0884447   8.7880045  48.7169027  50.3554726
  50.9599781  65.3499508  41.1862850  50.0705814  65.5121136  40.8717871
  51.1301470  64.4350243  40.9622669  27.3676395  65.3087187  39.1885591
  27.7158785  64.4731569  38.8774419  28.1315494  65.8834648  39.2369199
  19.3156302  53.9162970  74.2963219  18.7232256  54.5483541  73.8891459
  18.7512803  53.1835985  74.5430851  23.8568211  71.5271902  19.7651398
  23.2344437  71.9879532  19.2024863  23.3808374  70.7527065  20.0648785
  57.6328278  67.0287275  44.4256878  57.6905107  67.2846365  45.3462410
  56.7940569  67.3832130  44.1306543  20.1501107  41.6092110  25.6266284
  21.0136032  41.9747448  25.4342794  20.1758385  41.4141846  26.5633965
  50.2707148  63.4405851  39.3904328  49.6429873  63.9648104  38.8930607
  50.7967854  63.0000067  38.7230659  38.9675188  44.1103554  24.3829060
  38.3134913  44.1755724  23.6870432  38.5959816  44.6119499  25.1085758
  45.6677771  62.3721170  42.7880335  45.4214430  61.5926838  43.2860708
  46.3771391  62.7663708  43.2955694  47.3760796  41.3915873  16.3689291
  48.0132580  40.8596659  15.8921790  47.0776987  42.0383215  15.7294464
  22.1292138  13.7133718  88.9902878  22.4760389  14.5807564  89.1990662
  21.2058544  13.8665164  88.7898350  26.4498186  69.0432978  47.7571249
  25.5590415  68.9434958  47.4212885  26.3394427  69.1441345  48.7025785
  36.6825294  60.9475565   7.5259852  37.2660589  60.6649446   6.8218154
  37.0091367  60.4952049   8.3037615  87.6789951  65.3467560   7.9427451
  87.4628544  65.9308052   7.2158337  87.0980835  65.6219721   8.6519933
  23.2376719  90.1548576  49.8118019  24.0781450  90.6050777  49.8963070
  23.3641076  89.5462227  49.0839195  28.1470704  57.4230003  76.6326094
  28.2618880  57.7705240  77.5170755  27.3059750  56.9669962  76.6617632
  31.7554641  97.6283646  38.0289745  31.9411922  97.8540516  37.1174908
  32.4693394  98.0289173  38.5251379  23.5838413  48.0697918  39.1742921
  23.0558896  47.3998165  38.7399697  24.2188287  47.5755405  39.6926928
  45.6847572  86.9188404  24.6053553  46.2042379  87.7159119  24.5002389
  44.8370171  87.1323013  24.2154813  38.8941479  93.0480576  28.0205584
  37.9414773  93.0350113  28.1126499  39.1507411  93.9237881  28.3095121
  41.0768461  66.0139894  40.8755302  41.6416311  65.4302025  40.3691339
  41.2146807  65.7507610  41.7854452  31.4723969  49.8338747  26.4741397
  31.5930700  49.6906853  27.4128437  30.9142876  49.1095304  26.1911654
  29.4262075 100.0845432  47.5712156  30.0054526  99.7100258  48.2348824
  29.4151664 101.0219765  47.7644062  34.5193386  43.0328703  14.3888283
  35.4114127  42.7664709  14.6112418  34.0976191  43.1870413  15.2341771
  35.6510901  51.7911386  34.7983742  35.9810185  52.3411703  35.5088997
  36.3192439  51.8551016  34.1159439  36.8475580  76.4144230  35.2829647
  37.3507333  76.9202805  34.6448779  36.4098978  75.7404947  34.7628617
  24.6417809  15.7703769  11.1825562  24.5807266  15.0850201  11.8479812
  24.0714478  16.4683926  11.5046179  39.0374160  76.9772720  46.4617348
  38.6164474  77.8292131  46.3468027  38.6564851  76.4275551  45.7769489
  54.5637083  62.4813986  45.7609749  55.1932526  63.1138420  45.4146719
  53.7961531  62.5738955  45.1965857  41.6787910  72.7608681   2.9380068
  41.0954618  73.2333565   3.5319030  41.4905643  73.1286001   2.0745403
  31.1784291  74.2617083  39.8267198  30.5780578  74.7614717  40.3799105
  31.1553001  74.7106218  38.9816308  27.8296041  78.3141851  60.6049585
  28.7735391  78.2001781  60.4943943  27.5998735  79.0149069  59.9946737
  51.3631344  81.9656181  41.3498831  51.8017292  81.2131023  40.9529066
  51.1805582  82.5514221  40.6152201  49.7895479  66.8847322  21.8764448
  50.1305532  67.4903297  21.2182665  50.5701637  66.5097094  22.2841501
  69.2609072  69.9908018  33.2611203  68.9239264  69.5865297  34.0606475
  68.8307095  70.8451223  33.2250381  16.1495519  74.8958206  69.9616766
  16.0955620  75.8306170  69.7629929  15.2381587  74.6053362  69.9965048
  61.4463139  53.9289284  48.3419704  61.8173981  53.3474445  49.0056038
  60.6501913  53.4838009  48.0516529  33.6869764  49.7816229  13.2513607
  32.8624630  49.3176699  13.3968139  34.0671539  49.8740149  14.1249514
  22.1721601  55.8989811  45.8717251  23.0607796  55.5931997  45.6898260
  22.1356940  55.9755993  46.8251562  20.2729130   6.4419287  96.1316681
  20.5717421   5.9589750  95.3611565  21.0340714   6.4621836  96.7117119
  33.2098985  49.9719810  44.0056038  33.7527466  49.1855383  44.0608740
  33.8362885  50.6888580  43.9058352  17.1915317  69.5580959  49.4455624
  18.0211866  69.9770308  49.2166519  17.0897877  68.8592720  48.7994003
  26.1321926  44.2708635  52.3622322  27.0038414  44.5614529  52.0938730
  26.0611939  43.3794832  52.0207214  37.7574229  59.2155027  50.7071352
  38.5779452  59.4709730  51.1286926  37.1257234  59.1634178  51.4244032
  57.2184420  60.6909132   5.8058298  57.0655155  61.3266706   5.1067907
  56.3676596  60.2733564   5.9401661  17.8153419  52.9361105  41.2144995
  18.6913025  52.7197313  41.5340328  17.2542369  52.8644419  41.9866753
  52.5121975  66.9585276   7.2756356  51.7435408  66.4021540   7.1497524
  52.5933886  67.0434856   8.2255948  31.4216185  67.9919958  14.1409147
  30.8320427  68.1847763  14.8699319  31.6965699  67.0870256  14.2881060
  31.5032506  40.6258774  67.5344896  31.3761568  39.9400568  66.8789482
  32.1720862  41.1971235  67.1569109   6.4247280  74.5498514  55.0773811
   7.1367300  74.5495462  55.7171345   5.6925720  74.9641228  55.5340624
  62.7865934  61.1308670  26.8015623  63.0950928  61.6334772  26.0476089
  62.5147343  60.2899742  26.4338374  49.1063643  78.6647463  56.7438364
  48.9751768  79.4289589  56.1825800  49.8491573  78.9004660  57.2996473
  25.0932503  41.7982340   4.7053885  24.6432233  42.6032257   4.4490752
  26.0165238  42.0456982   4.7559932  47.8238487  48.8324499  32.0461273
  47.4766207  48.2690954  32.7377176  48.6246157  49.2022705  32.4179220
  19.6355534  43.0017185  41.1292934  19.7109556  42.0770454  41.3649416
  20.5363584  43.2817173  40.9668732  73.3334351 107.3460865  91.4652634
  72.6111889 107.2862053  90.8399677  73.6444378 108.2479095  91.3863182
  28.9422393  36.4000320  18.3661854  29.0085363  36.2247586  19.3048620
  28.0556297  36.7409801  18.2482302   3.5919634  50.1548862  23.5211420
   3.0057621  49.7065067  22.9115915   4.0904525  49.4507647  23.9358115
  69.3462753  81.8283081  46.0305119  69.7045803  81.0732174  46.4970827
  69.1033173  81.4852715  45.1705551   1.0234741  32.9645538  34.6766734
   0.6235517  32.9562497  33.8070607   0.7627241  32.1309114  35.0681853
  65.3958178  74.2164993  10.6616473  66.2948275  73.9232540  10.8100462
  65.4708719  74.8826313   9.9783701  28.4522843  53.6743927  40.5843878
  28.2244611  53.5263443  39.6665573  27.7217579  53.2991076  41.0760403
  53.2740259  38.4306145  10.4263306  53.5451031  38.4890556   9.5101774
  53.4458733  37.5208759  10.6693876  43.2682943  79.8022270  58.7286377
  42.7247190  80.4403687  59.1907310  43.3041430  79.0477419  59.3166018
  23.3015394   3.3487824  78.5698557  24.1678500   3.4932438  78.1892443
  22.7789927   4.0902618  78.2642698   5.8330667  61.7354393  15.7352626
   6.6746628  61.8223238  16.1829233   6.0532629  61.3629103  14.8814666
  71.6183043  47.2291851  21.5058327  71.5883303  47.6787186  22.3503757
  70.7129812  47.2422934  21.1952639  70.1488161  82.7747250  54.9903727
  69.9838161  83.4804058  54.3650579  70.9859562  83.0034542  55.3942490
  42.0781803  66.9629526  13.5479891  41.2228346  67.2201395  13.8921881
  42.3962021  67.7413416  13.0906057  51.2353754 109.1403580  25.3006220
  50.7739496 109.6542549  25.9633684  50.6472015 108.4090519  25.1122451
 115.8251572  59.6902704  46.3660717 115.8889389  60.4662561  46.9228601
 116.7152882  59.5547342  46.0412359  31.0845947  91.5129662  25.1555872
  31.1380315  91.1137772  24.2872405  31.0498691  92.4541664  24.9847889
  50.0003719  71.8408108  47.8787374  49.2267179  71.3082266  47.6942301
  49.7250032  72.7374411  47.6877880  46.3609171  88.9886951  37.9742479
  46.9215822  89.3507385  38.6604071  45.6491280  89.6227360  37.8871965
  49.4396305  45.6233883   9.8832506  49.9794722  45.7153654  10.6683254
  48.9642477  46.4518642   9.8210484  46.6842604  44.1534758  31.8330812
  47.5452280  44.4026566  31.4971161  46.4832783  44.8172903  32.4927711
  57.1929693  80.5911827  39.4096875  57.0287800  80.7488251  40.3394318
  58.0771255  80.2255440  39.3812370  28.6809182  61.3654900  34.4629121
  29.5854068  61.1495113  34.6898103  28.7304592  61.6897583  33.5636759
  60.7005453  46.3891602  37.7876472  60.4723501  46.9874096  38.4991622
  60.6150866  46.9173193  36.9939375  26.3556528  37.3372507  18.0547678
  25.7387018  36.6124368  17.9535496  25.8072591  38.0889964  18.2792079
  68.7567806  66.5006351  68.3090258  69.3321323  65.7912683  68.5953712
  68.6124563  67.0247889  69.0968466  64.1314363   5.4046935  20.3870130
  64.8287725   5.9475636  20.0192595  63.6176920   5.1282322  19.6281528
  51.1173058  24.7378278  33.1581330  50.8457708  25.3910398  32.5132966
  50.3118324  24.5106244  33.6226964  22.6292109  52.5444317  40.2058792
  23.1183910  51.7348099  40.3523350  22.8529167  53.0980968  40.9539700
  27.9729724  55.4008865  60.0531101  27.1330643  55.5820274  60.4749823
  28.0903506  56.1214018  59.4339895  49.2030144  49.7374201  11.6938245
  49.8235607  49.5184994  12.3889720  49.0736151  50.6821728  11.7770648
  44.3813181 109.0497684  43.6833429  44.4705677 109.3136883  44.5991039
  43.5163069 108.6428261  43.6345720  84.0649509   6.1750931  40.9101009
  83.5863590   5.5356932  40.3825092  84.1534519   5.7596189  41.7678785
  49.1894722  56.5972996  39.5169759  49.1668224  57.0399857  40.3653574
  48.2701635  56.5233469  39.2607856   3.2768831  50.4086113  10.3031611
   3.5703474  51.3044930  10.1373065   4.0848577  49.8984957  10.3596580
  60.8328581  55.2471399  29.8004866  60.3838253  54.6988297  30.4438806
  61.4891100  54.6698666  29.4102073  50.5007315  56.4585638   8.6764669
  50.7359409  56.3493633   9.5978713  50.8215284  55.6631279   8.2514900
  28.2698584  44.2403030  31.8705702  28.2859087  44.0349865  32.8053522
  28.3041644  43.3874130  31.4373994  21.3031149  51.4999533  48.6360168
  22.0541263  50.9666872  48.3755493  20.9986711  51.8991756  47.8210497
  12.3919630  37.2705555  35.4012275  12.2713959  37.6233268  36.2828445
  11.5148306  37.0005298  35.1292777  44.9648714  32.5307894   4.6364841
  44.5306206  32.4742007   5.4876351  45.1342535  33.4651041   4.5156655
  72.0230532  71.9396353  18.9381933  72.6537275  71.2707138  19.2047000
  71.1834049  71.6237116  19.2719734  34.0687132  78.6242294  28.4436512
  33.3338189  78.5387897  29.0509939  34.5551610  77.8054523  28.5395980
  51.4450693  14.8644614  33.8910604  52.3242617  15.0087535  33.5411596
  51.3158751  15.5779839  34.5159030  21.3761830  84.0797997  58.0090189
  21.1568475  84.9490643  58.3444262  22.2729731  83.9273739  58.3069563
  13.4383917  54.1333055  21.7207527  13.0149460  53.7309361  22.4790549
  12.7677846  54.7052813  21.3474441  51.7426777  43.8985729  21.5186286
  52.5177956  43.7618399  20.9738970  51.0074568  43.8369179  20.9088063
  39.9397612  64.3627787  25.0773358  40.4826212  63.9121485  24.4304419
  39.2785883  64.8204470  24.5580816  34.7498465  27.2144938  29.3971252
  35.5869770  26.8260646  29.1430283  34.9842453  27.9023051  30.0201869
  55.3499269  48.8339663  33.8341546  55.9251404  49.0973663  33.1158376
  55.5061817  49.4858074  34.5174694   9.4520169  70.1435995  51.4190340
   8.7283123  69.8254013  51.9586945   9.2323738  69.8590612  50.5318880
  13.2398856  49.1585445  21.3760662  14.0317416  49.6425295  21.1416364
  13.4065521  48.2657480  21.0737991  31.8798971  42.7247047  42.7666426
  31.9628167  43.5674095  42.3203182  30.9640598  42.6889706  43.0426884
  35.9942341  38.6673021  65.9772635  36.1606455  39.1978955  66.7563725
  35.5075407  37.9100275  66.3026810  51.3568449  20.9035516  75.4623795
  51.6308928  21.6907668  75.9329319  51.7778778  20.9776783  74.6059513
  57.3346996  79.6339512   2.5428891  57.9940605  79.1530609   2.0426691
  56.7711687  80.0296497   1.8779907  34.3279052  70.3481817   8.9844048
  34.7167420  71.2227964   8.9937198  35.0477624  69.7686768   8.7349844
  42.2645664  53.1750250  25.7784843  42.8260088  53.6725283  26.3730478
  42.0520782  52.3765278  26.2616873  13.2321346  37.2183084  47.3663235
  13.4476209  37.2950077  46.4368534  13.0170047  38.1109500  47.6367664
  71.8094492  67.4456692  59.1377020  71.3852453  66.6277790  59.3972015
  72.7191401  67.3428392  59.4172096  52.3227358  71.7601538  22.1725535
  51.5296984  72.2186995  21.8949556  52.0971155  71.3854170  23.0239654
  73.2517385  86.1219215  39.0629268  73.8798523  86.8432140  39.0248799
  72.5496483  86.4452457  39.6275139  78.5092020  80.2925968  65.8322334
  79.2493629  79.8187017  66.2114573  78.8392925  81.1801529  65.6925392
  91.6147709  78.0570650  23.1202102  90.7687473  78.4741688  23.2830358
  92.1259975  78.2362938  23.9093566  64.1832542  76.5376377  28.7317181
  64.7294188  75.7702398  28.5613203  64.7780132  77.2812939  28.6343837
  91.3644886  69.3229485   9.0194201  91.0706425  69.6026707   9.8863924
  91.9405937  68.5779524   9.1906154  71.1004591  71.8795156  51.7438650
  71.5916395  71.1729527  52.1630764  71.6059446  72.0894814  50.9586048
  87.2837257  80.8862495  39.5266724  87.7862453  81.4744854  40.0903034
  86.6114712  81.4447975  39.1363716  46.4551306  87.1579933  48.7290382
  47.3275900  86.9711304  49.0756273  46.2586641  86.4133263  48.1606197
  55.6087160  59.5950460  44.7231007  54.8460674  59.5050287  45.2944994
  55.4531908  60.4080343  44.2423725  54.2722845  98.6521912  38.2271266
  54.7270393  99.1280365  37.5321412  53.5306311  99.2126083  38.4554172
  63.9661503  57.1502924  48.6785889  63.7024355  56.6522551  47.9048634
  64.8648739  57.4226570  48.4932613  26.3841295  70.2159023  45.2266312
  25.9651470  69.3609524  45.1278830  27.0222950  70.0901985  45.9288979
  57.7301979  72.8551674  26.8169928  58.6123896  72.8930902  26.4474893
  57.2478056  72.2766447  26.2263656  54.3248129  60.9396172  25.2939296
  54.4506836  60.1113415  24.8309541  54.9340391  61.5451145  24.8714948
  73.1458139  58.0730391   7.4495625  74.1013002  58.0164623   7.4409503
  72.8830242  57.8220034   6.5640360  90.5375862  90.9742355  47.8392649
  90.2619171  90.4636097  47.0780182  91.4453888  91.2128353  47.6516438
  66.3697243  71.5599918  22.4758458  65.8185434  72.3278379  22.3247027
  66.2939215  71.3918877  23.4151173  68.5743284  71.8073225  41.8699121
  68.5411072  72.1375847  40.9721088  68.0396891  71.0135269  41.8530512
  22.1605802   8.8139290  89.0273476  22.3364735   9.0295136  89.9432182
  21.2351680   8.5697699  89.0122223  14.5931661  88.6975479  15.5380774
  14.0863526  89.2444801  16.1382687  14.3752038  89.0313625  14.6678519
  29.5715475  67.3042059  51.9015837  29.6873474  66.4624405  52.3423338
  29.3364310  67.0736217  51.0028172  40.3266430  76.9936991  51.3380051
  39.7749829  76.6728449  50.6245947  39.7512364  76.9967365  52.1029425
  33.5409999  89.0898800  27.7077246  34.2999053  89.2907810  28.2553840
  32.8643751  89.6990299  28.0032539  53.3916140  42.2231197  17.3212147
  52.8402185  42.8694916  17.7621222  53.9809084  41.9047022  18.0050087
  52.5072050  71.6600609  54.8185396  52.1128607  71.8377066  53.9646292
  53.1876135  72.3268700  54.9115229  58.8594198  49.3851709  33.7016511
  58.1807566  49.5077515  33.0378532  59.6565914  49.7244406  33.2946563
 102.7451706  67.7255249  56.5416670 103.1961823  67.5210238  55.7225227
 103.3033085  67.3499727  57.2226048  66.2567806  79.0781307  53.1615543
  66.6739655  78.2412434  53.3660412  66.8276882  79.4760847  52.5043392
  53.7150383 106.3013935   9.9545676  54.2556524 106.7453766   9.3012297
  54.0494347 105.4046917   9.9728107  38.5987735  86.5526104  31.7696929
  37.9302955  87.2073460  31.5679836  39.4204354  87.0435810  31.7769027
  79.2955208  80.5990887   4.2202735  79.6783400  80.7329750   5.0873101
  79.6819353  79.7794819   3.9118025  55.5327034  62.5232697  29.9796557
  55.4819536  63.1268549  30.7208276  54.8620272  62.8339052  29.3714380
  70.7540798  78.2341337  52.5516844  70.6799126  79.0896749  52.9745054
  70.6706524  77.6048565  53.2681227  24.9816728  59.1268635  69.4955683
  25.8951640  59.1341209  69.7814226  24.6371341  58.2931900  69.8157454
  24.1550350  83.5681248   6.7633420  23.5589099  83.4946728   6.0180438
  24.8558021  82.9448318   6.5718776  69.0183115  85.1715088  22.4828577
  68.7699127  84.3014812  22.7952433  69.6115017  85.5070019  23.1550217
  60.1938438  77.4861956  32.4701309  60.5139065  77.5885725  33.3664060
  60.9863377  77.4654913  31.9336987  57.5992060  68.7291336  51.3457727
  57.5606775  69.5192957  51.8846464  58.5300970  68.6149025  51.1543846
  48.1820536  37.5412226  64.6373940  47.2406292  37.7116847  64.6075439
  48.4613562  37.8872252  65.4850388  25.0671101  69.3572283  57.0415306
  25.9689665  69.0667343  57.1775484  24.7854829  68.9008617  56.2486601
  52.2287607  82.0080376  29.2887568  52.5930977  81.8552780  28.4168887
  51.3674259  81.5911865  29.2648149  66.9119787  72.1984243  76.2349892
  65.9689999  72.0391560  76.2756729  67.1457672  72.0209408  75.3239059
 102.3818302  23.9090133  92.7291584 102.8828621  24.3210459  93.4330177
 101.4951706  23.8297606  93.0809879  71.6445971  86.2747097  61.6408491
  72.1120167  86.1284256  62.4632549  70.8097887  85.8207130  61.7557955
  48.2778835  85.3836250  66.3088036  47.3927689  85.5089569  65.9666061
  48.1827259  84.7038078  66.9759083  70.9002066  71.7206526  55.9393501
  71.7038918  71.4448214  55.4986238  70.3738880  72.1225929  55.2482176
  73.4213209  78.3255672  61.8962765  72.6154566  78.0244589  62.3159838
  73.9459467  77.5322676  61.7882156  72.2832489  74.2448664  53.8843489
  73.1751871  74.2043161  53.5393381  71.7707682  73.6988640  53.2881308
  59.7356510  72.9926729  60.2375746  58.9715099  73.2945156  59.7464466
  59.8472309  72.0804024  59.9701023  50.9112167  87.2083759  67.3114157
  50.0194263  86.8608189  67.2990799  51.2822342  86.9459248  66.4689779
  40.0340939  68.5438776  14.5106542  39.7975516  68.9653921  13.6844563
  39.3194485  67.9298687  14.6794915  90.7042122  61.6282797  55.1011181
  91.1388206  61.0557175  55.7331896  89.7862530  61.3580465  55.1248026
  41.4395428  43.8687706  62.9880667  41.0503197  44.3742180  63.7016869
  41.5191984  44.4938374  62.2675228  78.3146954  72.5872421  36.5536475
  78.0754089  73.4943342  36.3635087  78.5671043  72.5946140  37.4769378
  82.1323395  97.7142811  48.5015440  82.8641987  98.0420685  49.0241957
  81.5539742  97.2927189  49.1371632  51.8305397   4.0400222  96.2844753
  51.9926357   3.5007221  97.0585060  51.5797043   3.4143543  95.6048775
  34.5845294  45.5224228  12.4276769  35.1386595  46.2978697  12.5162840
  34.4129276  45.2465153  13.3280444   1.8656479  62.0004177  32.3817062
   1.9347222  62.6906443  33.0412865   0.9247674  61.8504477  32.2895885
  58.4280300  63.9057684  27.8496313  57.6994896  63.6796665  27.2714138
  58.0098534  64.1794395  28.6660051  60.4816628  56.9320154  64.6998405
  59.9564457  57.4770021  64.1138649  60.5855370  56.1051512  64.2289591
  75.8940744  92.8447628  18.2221544  76.4422846  92.0804977  18.0443835
  75.6301737  93.1567764  17.3565722  39.3383574  49.7398758  47.3092222
  38.8813400  50.5483150  47.0772791  38.7051868  49.2484999  47.8325558
  72.0223570  66.6862011  56.4443874  71.8396902  67.1439838  57.2649384
  71.8629980  67.3407221  55.7643604  68.0561352  58.7211704   7.5281471
  68.6402416  59.4768333   7.5915897  68.6441708  57.9688787   7.4610513
  18.8154626  58.6379766  28.0195093  19.6915758  59.0072393  27.9085994
  18.5549021  58.3705950  27.1381187  79.5051670  49.0242100  12.5038946
  80.1929665  48.5492802  12.9703796  78.8855505  48.3458376  12.2353566
  40.5499363  94.7822666  49.1947746  40.1585579  93.9809036  48.8471174
  40.4883289  94.6861553  50.1451397  71.2848234  57.8498888  43.8598967
  71.0557795  57.0756197  43.3458138  71.8060207  58.3876324  43.2637262
  54.5528269  60.9683609  47.8305292  53.7597752  60.4912615  47.5862408
  54.4947433  61.7927408  47.3475599  82.3728275  65.4198265  20.0182748
  82.4751568  66.3714170  20.0338006  82.5014305  65.1800489  19.1005599
 103.1320667  70.1499987  50.6447649 102.4562931  69.5677567  50.9919596
 103.9574623  69.7282887  50.8837652  91.1357498  97.8536510  87.5720501
  91.2892723  97.7636528  86.6315365  92.0120811  97.8869057  87.9556751
  84.2783737 110.9274864  18.0512285  84.2827129 111.8777943  17.9366529
  84.6749687 110.7881069  18.9111793  10.2935934  75.0147390  48.3959818
   9.5522571  75.0331068  47.7907419  10.5509400  75.9321547  48.4874010
  25.0209713  95.0366020  60.2204037  24.4823074  94.2657852  60.0417328
  24.9379277  95.5745697  59.4330454  74.0089464  83.7235069  25.0387526
  73.6358452  84.6030235  24.9797392  73.9790297  83.5127640  25.9719872
  49.0396881  92.8953552  42.1577597  48.5194778  93.5856056  41.7464495
  49.8515081  92.8731441  41.6511106  46.9732904  61.5763617  25.4052615
  47.5533199  60.8861113  25.7267499  46.1601877  61.4533901  25.8951306
  51.2847471  86.4471626  20.7201123  51.0466146  85.6544018  21.2007856
  51.2429857  87.1452141  21.3737345  38.5667706 107.9315853  29.4327688
  39.4983268 107.8656769  29.2227817  38.4889483 107.5393105  30.3024220
  76.8015480  71.4312267  28.6885977  76.5837622  72.2785759  29.0769339
  76.2878752  71.3984966  27.8815675  40.2663469  64.0425682  13.6640871
  40.2868032  63.2409811  14.1868448  40.1684618  64.7451782  14.3067276
  46.2144327  80.9075737  15.3673887  45.5223465  80.4377556  14.9020684
  45.7606125  81.3595676  16.0787129  53.4202671  86.4734364  39.0360641
  53.6745310  86.8085861  38.1762600  54.2500973  86.2968826  39.4792843
  19.5281482  87.2444534  57.7194691  20.1135635  87.5819969  58.3973980
  19.8523533  87.6339245  56.9074154  93.2115269  79.0937424  34.1444468
  92.9173660  79.0665102  35.0549173  92.5053787  79.5408201  33.6778641
  65.1783276  79.6638298  22.5366688  64.9935007  78.8506889  22.0666981
  65.8712101  79.4310760  23.1547070  59.5111990  69.8863697  39.7923088
  59.0028763  69.6081209  40.5541563  58.8562346  70.0467396  39.1129446
  91.9016838  73.6938858  53.1345701  91.5439320  73.6220598  54.0194893
  91.2912464  73.1985140  52.5884962  58.5546970  87.6045322  36.4851618
  58.3335829  86.6761780  36.4109683  58.6663055  87.8971863  35.5806565
  52.1952724  71.4438009  32.6954436  51.4675665  71.1072588  33.2183290
  52.8520679  71.7066526  33.3402395  26.4097214  78.0058050  33.3721399
  26.1307406  78.6248922  32.6975060  27.3660421  78.0343199  33.3426690
  52.1522045  83.1938171  48.8199472  52.6550579  82.3861122  48.9247465
  52.8037024  83.8919067  48.8866329  64.9049091  92.5164890  44.8005295
  65.3443480  93.1574154  44.2416525  63.9727068  92.6453400  44.6255398
  39.6806216  94.2003059  15.8431435  39.7559738  95.1373100  16.0235906
  38.8606429  94.1152477  15.3566921  59.4064188  57.4958706  51.6652822
  59.6313715  57.4047041  52.5911951  60.1988649  57.2297955  51.1989546
  53.6916113  48.2825661  37.7702284  54.5665598  48.0262995  37.4786401
  53.7253714  49.2379713  37.8181005  84.8406219  96.6265011  57.6196718
  84.8746872  97.0665741  56.7703152  85.0988007  95.7240105  57.4323463
  73.8566542  64.4851589  30.7345223  73.9984131  64.3327188  31.6688132
  74.6030235  64.0648556  30.3073120 102.0086754   0.2967213  33.6833215
 102.7443683   0.3511665  34.2932606 101.9459617  -0.6333878  33.4661078
   1.8946660  24.7938967  25.2558446   1.3025549  24.8748469  26.0035634
   2.7571785  24.6555877  25.6472206  38.4606028  81.4217472  43.6392975
  37.6600552  81.1115170  43.2160854  38.3751512  82.3751163  43.6437941
  56.5869427  63.4103823  26.0796714  55.7683277  63.9038134  26.1309123
  56.7090702  63.2454586  25.1447296  48.6652040  86.4374065  46.1427402
  49.5712471  86.4203072  46.4510107  48.5175323  87.3469353  45.8835363
  54.1593552  59.9087906  27.8338313  55.0167131  60.2421379  28.0985045
  54.0554905  60.2059221  26.9298625  28.7015009  76.5917540  43.7794781
  27.9917336  77.1925116  43.5524368  28.3062148  75.9765673  44.3971634
  74.2313862  84.9839020   4.3228266  74.7942972  84.8232460   3.5654950
  74.2595863  84.1663933   4.8199317  40.4035807  58.8604927  43.4615231
  40.4503155  57.9821491  43.8391018  41.2971687  59.1972733  43.5271645
  65.6925058  54.1197634  45.9281683  64.9109602  54.5733023  46.2439537
  65.3956747  53.2275820  45.7489061  68.5237122  60.9287643  31.8763280
  69.2781973  61.0765266  31.3061118  68.6707687  61.5089417  32.6233172
  71.7303658  82.9027748  18.0173683  72.0951557  82.0787621  18.3401012
  71.4236975  83.3534145  18.8042068  50.7774973  60.3649473  38.1966496
  49.8925972  60.5992460  38.4764433  50.9100914  60.8557463  37.3856211
  59.8055994  40.7432368   0.1592607  60.3459417  41.1346820   0.8455820
  59.5951140  41.4719012  -0.4246646  11.1219466  75.5368567  36.4210296
  10.4776895  75.3290129  37.0977592  11.4906991  76.3777304  36.6915703
  64.9683285  67.8192425   7.7323669  64.2635965  67.2296000   8.0005229
  64.5176840  68.5789251   7.3635423  55.2730274  70.5818653  29.2688966
  55.8998966  71.2316704  29.5867324  55.7009029  69.7399569  29.4249296
  73.1714106  77.3488951  55.4908848  72.9428148  78.2136965  55.1501560
  73.6253786  76.9183683  54.7664547  66.8816185  69.6770763  41.6236401
  66.6042328  69.6620274  40.7076406  67.4133873  68.8877726  41.7258644
  81.2438011  57.7466774   8.2450759  80.2879810  57.7825737   8.2816541
  81.4421082  57.5790596   7.3237658  12.8379297  61.3020897  58.7653255
  11.9099331  61.0819626  58.6841106  12.9273593  61.6374445  59.6573830
  78.2598257  83.5552788  30.9235191  78.3095407  84.5001316  31.0684443
  78.5783100  83.1706238  31.7401242  53.3924723  83.6768150  23.1486917
  54.1083670  83.6181736  23.7813783  53.1523752  82.7668953  22.9736733
  46.0297728  37.0668125  45.4082155  46.5669203  36.3058662  45.6288195
  46.6370773  37.8060031  45.4399967  40.4446888  97.2479153  48.1354952
  40.3120518  96.3553715  48.4548759  39.5699644  97.5451183  47.8849745
  64.2268229  64.9192190  30.3269315  64.3532848  65.6883764  30.8824778
  63.6909246  64.3276691  30.8552456  38.8042665  52.1218443  37.4366665
  37.9764986  52.5194025  37.7068114  38.8510561  51.3050079  37.9334736
  79.8632812 105.3240013  46.2160254  79.6114063 104.4935513  45.8121061
  79.5163155 105.2721310  47.1066189  61.3961315  81.5987587  51.8449402
  60.7477236  80.9914780  52.2013235  61.9936657  81.0440063  51.3434982
  80.8344460  82.7627277  47.8125143  81.1884689  81.8740082  47.7795267
  80.3764820  82.8071022  48.6518812  40.4315042  74.2556047  22.9303765
  40.4269552  74.2024231  23.8860893  40.3673363  73.3459091  22.6395679
  35.4974914  78.6809778  56.8988419  36.0662270  79.0839005  57.5549126
  35.1739311  77.8842163  57.3192120  67.5005007  64.6391821  66.5366554
  67.7816820  65.2580357  67.2105932  67.5814962  65.1254559  65.7161617
  33.3992124  48.8891935  39.2259026  34.0865302  49.1044521  38.5954332
  33.4703851  49.5666075  39.8984146  61.9955349  91.6045380  54.0571213
  61.7582798  91.4680862  54.9743557  62.6476574  92.3048496  54.0800333
  54.0925789  78.3055639  42.1098423  53.6178255  78.5810661  41.3256598
  53.4337473  77.8643894  42.6460695 100.6816769  86.7988014  37.8022265
 100.3176594  86.2516308  38.4981608 101.5767670  86.4789104  37.6894689
  64.9874592  57.6836205  45.5015898  65.5929184  57.0955706  45.0500965
  65.3602886  58.5558462  45.3733063  95.4560184  89.0671635  52.5170565
  94.9621487  89.8809910  52.4169493  94.9480057  88.5545158  53.1458187
  73.9770126  75.7166958  43.6840391  73.6727381  75.3880358  42.8380919
  73.3904028  75.3122139  44.3231916  73.9798832  88.9729500  39.8802328
  73.3082247  89.4438648  40.3735304  74.4147491  88.4233665  40.5322218
  59.9798775  72.1849823  36.5216064  60.5631065  72.7394915  36.0033488
  60.5478525  71.4954805  36.8654275  36.7965555  85.3553963  43.1485462
  37.4217463  85.8764744  43.6523771  37.3386073  84.7296906  42.6680183
  37.7623153  45.7434654   5.2591985  37.0962071  45.4542637   5.8828145
  38.3314419  46.3213730   5.7674754  61.2412500  66.2413216  31.9278169
  61.3710928  65.3167057  31.7169619  61.6658831  66.3549995  32.7781081
  57.5213480  75.7008362  50.2663231  57.5808287  76.3313293  50.9840775
  58.0509233  74.9578381  50.5556917  38.9335322  58.8678312  22.6650071
  38.6805582  58.5577488  23.5345411  39.8542094  59.1131449  22.7566814
  55.9824705  67.5251722  30.7172656  56.8186331  67.9908371  30.7025337
  55.5701208  67.7991915  31.5364814  84.0259743  94.4026089   8.8335848
  83.6462688  93.7473106   8.2482243  84.8769760  94.0398121   9.0793544
  32.2052693  34.5073700   9.9475741  32.6072192  34.0951824   9.1828716
  32.4338317  35.4334950   9.8683208  41.5706205  51.2976456  17.0103681
  41.7267847  51.1531782  17.9436278  40.9827757  52.0524597  16.9799197
 103.9622021  75.6579781  69.3659210 103.2590199  75.3599072  69.9429131
 103.5915852  76.4112186  68.9060307  48.5286140  11.9010901  92.7147388
  47.8949118  11.3181269  93.1328392  48.7147903  11.4874601  91.8718433
  44.8088741  69.2916393  17.5399077  44.2122984  70.0388002  17.4942851
  44.4244623  68.6419249  16.9514048  53.8666153  58.7584496  31.9974089
  52.9543543  58.5842323  31.7657733  53.8160801  59.2455244  32.8198647
  41.1057758  83.7020016  33.8823938  41.4824915  83.9174175  34.7355723
  41.4655161  84.3608665  33.2884908  42.7862024  82.6600933  54.7282171
  42.1943521  82.6935482  53.9766693  43.5917234  83.0732536  54.4173050
  98.5107899  58.9152670  60.0773335  99.0902233  59.2926693  59.4154692
  98.8509655  58.0316257  60.2176571  51.9877148  96.2874508  55.7834291
  52.1751070  96.7262650  54.9536371  51.0492992  96.1017895  55.7496166
  90.2956295  64.3989944  39.1798949  90.6121063  64.2190504  40.0651598
  90.3428268  65.3514862  39.0976548  44.5331383  45.8490419  36.0332274
  44.1711569  46.1119366  36.8794465  44.1655064  44.9794960  35.8751917
  68.6370611  82.1766472  22.7447653  68.3434439  82.0709229  21.8398643
  69.5266867  81.8234253  22.7507234  49.3203402  49.1132212  44.5266533
  50.2274323  49.2064810  44.2355776  48.8026857  49.1876554  43.7249517
  67.2554827  73.3256292  52.0780134  68.0928659  73.7010145  51.8057919
  66.9138145  72.9049063  51.2890339 112.3640823  81.1991501  83.0499077
 112.2897434  80.4222775  83.6041355 111.9524956  81.8971539  83.5594463
  66.9802189  67.6872540  27.8683686  66.2488699  68.2341242  27.5815058
  66.6334105  66.7952538  27.8512454  71.0867786  64.2150545  48.4548521
  70.2445650  64.3405437  48.0176306  70.8947086  64.3380308  49.3844843
  68.9068604  81.8389416  58.3468294  68.3044434  81.4545727  58.9836884
  68.6185551  81.4898682  57.5034618  40.9527159  59.8574781  29.4069505
  41.3860893  60.0382328  30.2410650  40.5763817  60.6978607  29.1455102
  75.8101702  80.3867817  23.0079079  75.7047272  81.0383606  23.7011290
  75.8293152  79.5479345  23.4685636  57.7004719  60.8421373  37.3935080
  57.6438665  60.3901100  36.5516639  57.7077150  61.7719078  37.1661186
  34.1525006  60.4214573   5.9443730  33.5876250  60.2436924   6.6964006
  35.0228167  60.5463505   6.3227671  54.5712233  53.3681059  34.3976212
  53.6916924  53.4874582  34.7559762  55.1494980  53.7788820  35.0403404
  77.9859209  93.1137943  14.5110774  77.3921251  93.1602859  13.7617612
  77.7693939  92.2844601  14.9371624  83.5488319  70.8969784  13.7720573
  83.4532547  70.7942104  14.7189128  82.9009247  71.5610647  13.5366070
  69.2388868  55.9200668  50.5808353  69.4933844  56.4398384  51.3432646
  70.0417662  55.8416510  50.0655985  68.5515308  74.4313526  37.2948074
  68.9505291  74.9251127  38.0112100  69.2852545  73.9806461  36.8767810
   7.5850171   2.8288981  40.3782749   7.9017609   2.1159907  40.9329510
   7.1549505   3.4314933  40.9850311  68.9338160  70.6530237   6.1351776
  68.9774990  71.1697912   6.9397116  68.6665869  71.2793207   5.4624432
  53.3768892  80.7443810  23.0689168  54.2963886  80.7526493  23.3347964
  53.4033442  80.7968521  22.1135235  76.0522461  77.1256638  39.3834019
  77.0018721  77.1326685  39.5033622  75.8210087  76.1971855  39.3570375
  81.3117123  63.6383533  22.1188331  81.9181728  64.2261791  21.6683841
  81.1307812  62.9470158  21.4820099  18.5731328  83.3922768  26.9842219
  18.5613894  82.7609634  26.2648225  18.5385156  82.8545570  27.7753520
  25.2469134  72.8052998  31.1888146  24.9569941  73.6767721  30.9191680
  25.3779006  72.3316431  30.3673983  23.4375787  85.8962727  31.1096096
  23.0735755  85.8003712  30.2295327  23.2069588  85.0806522  31.5543723
  48.4563446  66.1086035  29.4880915  48.3257484  65.4452181  28.8105226
  49.4003296  66.2671137  29.4893122  62.2614956  64.9889612  28.2426310
  62.9764462  64.9158859  28.8748741  61.9359446  65.8825016  28.3514261
  43.2461166  91.9504452  52.8588820  43.8502121  91.2239933  53.0123806
  42.4753284  91.5418339  52.4649811 112.3750496  55.1373625  81.7529488
 112.4411964  55.2352142  80.8030605 111.8041420  54.3790483  81.8764305
  55.3617382  62.6084900   6.2845367  55.6014204  62.0606136   7.0319420
  54.5224142  62.9967499   6.5315634  69.8307276  56.9725132   6.5320778
  70.5525637  57.3043585   5.9981650  70.2204514  56.2689781   7.0510995
  72.1697521  65.6703949  63.1807661  71.3868093  65.6591415  63.7313175
  72.5473690  64.7968483  63.2835054  42.1745539  43.2785511  12.1544027
  42.2419214  43.2206345  11.2013340  43.0249786  43.6169958  12.4345016
  23.0589843  83.1200790  25.2695107  23.1619883  82.2081947  24.9973249
  23.6512733  83.2157707  26.0153437  57.1714258  95.1919937   7.5607896
  57.8281736  94.4999218   7.6378995  56.3602638  94.7878265   7.8688508
  34.5137429  81.5063000  44.5684052  34.7143388  82.4382973  44.6542835
  33.8500476  81.3414478  45.2381563  83.4308434  65.4166079  33.6512113
  82.5605297  65.0734186  33.8537145  83.6100388  65.1064444  32.7635622
  65.1111460  77.3852015  41.1003017  65.4947853  77.8750992  40.3729439
  65.7777214  76.7382574  41.3313389  79.5617151  66.8692780  50.8610582
  78.7953758  67.1856356  50.3826475  79.3406725  65.9688377  51.0989141
  46.5197086  75.0285101  20.0695252  46.1675692  75.1538897  20.9507227
  47.4693012  75.0685215  20.1831341  58.8526058  58.8182688  32.6721406
  58.3584690  59.5560884  32.3148155  59.1299486  58.3207321  31.9028759
  57.2436714  67.5314808  54.5869589  57.3137569  66.8917036  53.8784361
  57.6009512  67.0812750  55.3524017  90.8066177  97.6315403  33.0320215
  91.4057541  97.8366756  33.7497926  89.9455547  97.8961277  33.3557391
  66.8516684  89.5653248  38.1802130  66.1869335  90.0440979  37.6851010
  67.6393700  90.1041889  38.1067729  62.2542906  64.6353722  39.5608163
  63.0497885  64.8582029  39.0773320  62.4704695  64.8185492  40.4751158
  55.3542185  93.7521267  42.9058170  55.7917929  92.9030609  42.9678631
  55.4999971  94.0312195  42.0018911  35.3146625  54.0169668  44.1256237
  35.4104924  54.0239096  45.0779915  35.1283932  53.1030893  43.9102983
  71.0932446  77.0990467  43.3741999  71.7082310  77.4551249  42.7329302
  71.0562849  77.7615261  44.0641212  37.9462600  71.4931440  49.7651052
  37.9922533  71.1151552  50.6433105  37.5325823  70.8133602  49.2331266
  44.0435266  58.8408232   6.9431877  44.4450092  58.9820147   6.0858035
  44.6687269  58.2883501   7.4123639  95.9150410  89.6307468  89.1251755
  95.5315113  90.5064774  89.1723919  95.2156544  89.0468407  89.4186687
  37.0728064 102.7582073  42.4099255  36.7887712 101.8690968  42.6221371
  36.5129137 103.3222580  42.9434109 115.9271145  84.5799732  24.6122861
 115.4574871  84.8543358  23.8246298 115.4545403  84.9994946  25.3312492
   2.2085021   1.3855726  33.6197448   1.7741087   1.4396434  32.7685046
   2.9449114   1.9932957  33.5518789  48.7164116 104.3600082  21.4922595
  49.6047306 104.0077019  21.5471196  48.2351160 103.9047527  22.1831512
  36.0652804  52.8793335  26.9158983  36.1956215  52.4360752  26.0775852
  36.1847782  52.1920633  27.5713491  90.4478836  88.0073166  61.4080048
  90.3017330  88.4495640  62.2442389  90.6040192  88.7175179  60.7855368
  84.0094852  86.2734604  20.8119845  83.1845093  86.1027622  21.2664104
  83.8667107  85.9442329  19.9245977  84.1819477 110.2084160  29.0710092
  84.5654583 109.3317032  29.0939784  83.2989502 110.0746346  28.7265515
  80.7015419  86.2319374   7.4192083  80.3231812  87.0541954   7.7305818
  81.6428185  86.3325405   7.5610167  65.2542210  78.4822083  30.6844759
  65.4417324  78.4807587  29.7458243  65.8843231  77.8645420  31.0555482
  50.4216003  77.9102993  40.0583649  51.2593746  77.6168251  39.7002649
  49.9852943  78.3421373  39.3239331  89.0797520  95.3722763  81.1371326
  88.5548878  96.0410023  81.5770626  88.4423828  94.8486423  80.6515408
  82.6350594  79.0147400  35.4429722  82.7451611  78.1734753  35.8861279
  81.7691135  79.3177557  35.7160139  94.1804314   6.4762580  34.3912888
  93.2947922   6.1173868  34.4468355  94.7406101   5.7118368  34.2567897
  21.9348836 100.5932331  39.7177768  20.9994149 100.5137348  39.9043560
  22.3402405 100.7203293  40.5755472  66.0829639  83.3566666  53.7424231
  66.5451097  82.7808380  54.3515730  66.5197945  83.2166672  52.9022980
  88.2733440  86.4466000  17.8753901  88.2186413  85.7541466  18.5339844
  87.5154972  86.2993526  17.3095131  67.0138264 107.3241043  29.0399027
  67.8312063 107.3531628  29.5371723  67.2670174 106.9816113  28.1826878
  69.0796900  78.3709431  41.8903923  68.4479046  77.6720715  41.7211246
  69.8909664  77.9125547  42.1093464  68.6192513  83.5307503  48.4821081
  67.9293299  82.9426956  48.1748056  69.4263077  83.0258083  48.3824968
  40.8995104  68.6893129  24.0504599  41.0751438  68.6795521  24.9913597
  41.7664671  68.6787415  23.6448598  66.0454130 103.4138012  37.3626018
  66.5722418 102.8846550  36.7636991  65.2301931 103.5736084  36.8870926
 111.5072918   2.9158410  36.1524153 112.3066521   2.7946901  35.6399941
 111.8155766   3.1927714  37.0152617  40.7064056  89.4677734  38.8090801
  39.9081683  89.1581154  38.3811021  40.9197950  88.7825966  39.4425106
  72.2164154  93.9871311  52.9019451  72.7405119  94.6434212  53.3611250
  71.7403460  93.5320091  53.5965252  76.6026878  95.0543118  37.6551867
  76.1995316  95.7769489  37.1740508  77.5152445  95.0538063  37.3662686
  38.4711099 105.5039501  21.7627382  37.9177499 105.5299377  22.5433469
  38.2967544 104.6467972  21.3739872  75.6069136  84.9957371  51.9893932
  75.6247187  85.9351063  51.8063450  76.4640808  84.8101521  52.3728609
  98.8869858   2.0690398  55.7271481  99.2911625   2.8350669  56.1346722
  99.2153549   1.3266572  56.2343645  43.2319784  49.6794319  29.8748827
  42.8152466  49.3520403  29.0777731  43.9976835  50.1623249  29.5638537
  59.6107912  70.4500198  47.1210766  59.8324347  70.4207659  48.0518007
  59.3381786  71.3547373  46.9681072  71.2633801  78.7523699  49.2984152
  70.3182077  78.6691856  49.1720772  71.5594149  79.2757988  48.5536909
  48.2295752  77.2657681  41.9264698  49.0619707  77.4132776  41.4774799
  48.4758186  77.0802116  42.8326511  79.6846962  78.5805845  43.9621401
  80.0013256  77.9338741  43.3314705  79.2300606  78.0638027  44.6273279
  74.9617243 104.6541405  64.7237635  75.0607872 103.9417934  64.0921116
  74.3656635 105.2704430  64.2981958  53.2469273  90.7462692  37.5440216
  53.5565853  91.1719131  36.7445374  53.9560699  90.1518440  37.7889824
  52.4727821  98.3967972  44.2934847  52.3589182  97.6011467  43.7736702
  51.7987633  98.9937115  43.9685011  57.2955513  70.3153419  13.5055804
  56.3706779  70.3965616  13.7384903  57.2892809  69.9167013  12.6353633
  96.3847828 104.4039536  60.4048586  96.3229847 105.0356770  61.1213303
  96.0626698 104.8785973  59.6385813   9.9008399  35.1989436  95.8420086
   9.8231733  36.0394788  96.2933445  10.3194249  34.6218801  96.4807796
  88.7162113  79.7510958  14.9253523  88.7811947  78.9769506  15.4845524
  89.2141438  80.4241753  15.3893197  88.8102150  80.9838009  36.3546753
  88.6566067  81.8718624  36.6771388  89.2088223  80.5258751  37.0947075
  73.7333059  92.5313663  76.6063690  74.2334127  92.3589134  77.4041033
  73.2323790  93.3227062  76.8040800  69.6782827  70.6720304  30.5818272
  69.5940304  70.3941631  31.4939237  68.8432312  71.0952139  30.3822565
  19.5121622   5.2559328  27.8729677  19.9126875   5.3195721  27.0059252
  19.9923074   4.5510054  28.3074427 106.3806915  12.8017223  30.7226181
 105.5515957  13.2654595  30.8400249 106.9621372  13.4482145  30.3223658
  85.8243370 104.7414207  39.1683722  85.5344772 105.3713894  39.8281789
  86.2326050 104.0374756  39.6723723  39.8774385  56.0663033  14.5891726
  39.8276114  55.1904154  14.9720204  39.7457457  55.9257126  13.6515570
  79.5156050  64.4211292  39.1808009  80.3820801  64.4131899  39.5874763
  79.1509962  65.2758169  39.4105959  74.6582890  80.3374481  40.3798199
  75.1705217  79.7457838  40.9309816  74.7211075  81.1866283  40.8170652
  59.6114063  80.2297115  71.0976839  59.2565060  79.7459173  70.3518820
  59.8849154  79.5512533  71.7150354  53.9096165  77.2722435  58.2821274
  53.7306166  77.5718498  57.3908234  53.7602854  78.0437517  58.8286734
  79.3593025  72.5183105  29.1327882  78.5398149  72.1226215  28.8359761
  79.6403265  71.9675732  29.8635030  55.5506849  75.5344009  48.4750605
  56.3068628  75.4694939  49.0583420  55.1804972  76.3979530  48.6580229
 107.5856209  20.7600808  32.2677302 108.2522583  21.4268565  32.4327564
 107.1199131  20.6759357  33.0997539  91.7725086  82.3048496  31.2035513
  91.6502285  81.5438175  31.7711043  90.9203815  82.4319935  30.7864952
  91.3652515  49.0238142   6.4346153  91.6795540  49.7855759   6.9216079
  91.9379330  48.9759350   5.6691265  11.8136048   6.7155480  94.6763802
  11.1553693   6.0236049  94.6117783  12.5336671   6.3163102  95.1645947
  90.9902000 101.4371300  16.2039959  91.4933872 101.2762356  17.0022070
  91.3721657 100.8445740  15.5565369  81.7348862  67.1511078  39.1429877
  81.7371273  68.0302143  38.7643051  81.0018253  67.1573019  39.7584629
  88.6680222  64.8133850  37.1407819  89.2693806  64.4840431  36.4728498
  89.1396046  64.6976233  37.9656744  72.0542097  71.1059713  29.6975756
  72.2483110  71.9736814  30.0520277  71.1422300  70.9464693  29.9406552
  48.6242723  83.9575100  45.0742388  48.8496447  84.1821289  44.1714764
  48.4937954  84.8019218  45.5057192 109.7240925   5.1294822  43.2393980
 109.6530247   6.0581350  43.4602737 110.5961323   4.8771584  43.5428905
  57.1609831  93.1447315  12.9459453  57.9977274  93.4045696  12.5604939
  56.5226603  93.7439251  12.5589824  60.9887886  57.7062321  48.0413103
  61.7093134  57.4103546  48.5976648  61.3455057  57.6802540  47.1534443
  69.3211317 101.6521263  34.1864157  69.7040462 102.4418736  34.5683861
  68.8859081 101.9577694  33.3905554  46.1643553  76.8068409  24.9845767
  45.7653189  77.5096321  24.4716620  46.4930487  77.2415495  25.7714820
  87.4746704  33.2165956  18.4321928  86.9417763  34.0117407  18.4311903
  88.0608463  33.3201694  17.6825905  83.5287476  91.9099617   3.1011552
  84.1401386  91.2908459   3.5000744  82.6896381  91.7227840   3.5219759
  74.3851757 107.3389530  49.2940426  75.1969862 107.1810150  49.7759676
  74.6680260 107.4949455  48.3929873  75.0909042 103.7433624   5.9569019
  75.9953833 103.4696007   5.8045745  75.0522804 104.6393681   5.6223577
  78.9664888  76.8348980  27.5768876  78.7765646  77.2166061  26.7198825
  78.3998251  77.3124981  28.1827092  73.3059978  68.0142784  39.2595959
  73.3595610  68.7200880  38.6152387  72.5579023  68.2479239  39.8091364
  73.3204412  85.0806332  53.6171150  74.0620041  85.0765610  53.0118847
  72.9025984  85.9305477  53.4782314 108.7384308   0.5096863  33.4658098
 108.0527342  -0.1535751  33.5440636 108.9103544   0.5667160  32.5259042
  84.7132206 107.3067665   8.2084292  85.0409508 108.1075573   8.6177695
  85.2177334 107.2278404   7.3988211  56.1914635  78.2800245  21.5519452
  55.9036112  77.8926516  22.3785734  56.3007498  77.5335407  20.9628367
  21.4903307  59.4928074  30.5718327  21.7452288  59.9442291  31.3764930
  22.2422266  59.5991182  29.9890947  58.2853508  63.4334993  22.5658631
  57.4587059  62.9580021  22.4834394  58.0537462  64.2377806  23.0303192
  63.0467558  62.5347567  24.5217586  63.6245251  63.2118940  24.8737526
  62.5017309  62.9935408  23.8824701  57.5723028  76.9634676  32.4796247
  57.3934078  77.1493292  31.5578413  58.4281397  77.3601246  32.6422215
  78.6649752  99.4777203  10.8616912  78.4580231  98.5431576  10.8606493
  79.4282293  99.5533752  11.4343584  64.4252729  96.5165234  64.1595459
  63.5036612  96.7140388  64.3264198  64.7219944  97.2239494  63.5870695
  63.1219435  75.3708267  36.5965676  63.8243484  75.3326941  37.2457242
  62.7571774  74.4859171  36.5861106  60.7267714  87.7567196  51.2034369
  61.2375164  87.8403664  52.0086527  61.3633585  87.4820995  50.5434561
  69.2306185  96.9572353   7.3131859  68.6462212  97.6977825   7.4753821
  68.6462402  96.2027836   7.2387755  90.7583618  59.8282909  31.5238643
  90.9233570  59.1746521  30.8443308  89.8804092  59.6231937  31.8453574
 109.7636986  17.8999376  46.8506002 109.0729809  18.4987998  46.5668631
 109.2950439  17.1384585  47.1922827  54.6034622 105.3484249  73.7982607
  54.8490381 105.1201153  72.9017115  54.3631840 106.2738514  73.7524891
  35.6573129  78.3917284  37.0528579  35.9861207  77.8246117  36.3553667
  36.4322114  78.6067438  37.5720239  63.0028534  74.0482569  30.8942080
  62.1179867  74.2391396  31.2053514  63.0832100  73.0973911  30.9692526
  86.1218739 105.4841518   9.9968827  85.5964661 106.2563419   9.7873437
  85.7641315 104.7927189   9.4399452  64.8407459  70.1074743  43.7710142
  65.3249788  70.1780128  42.9483509  64.0010881  70.5306387  43.5917425
  46.7376471 108.8855171  54.2049980  47.1042633 109.6364880  54.6717691
  47.4109650 108.2086658  54.2739391  69.2569017  73.7923002  31.6302061
  68.7275934  74.4199276  32.1222949  68.6853170  73.0326891  31.5183353
   9.3699694   9.9325526  25.5810285   9.3302953  10.6677032  24.9693012
   9.3436450  10.3397679  26.4468884  79.7039890  98.2079601  36.6365576
  79.2180824  97.3947334  36.7736554  80.5454826  98.0598164  37.0680380
  55.4059458  57.2311735  30.2412415  55.0358963  58.0363321  30.6031990
  55.9283447  57.5224781  29.4939280  45.7236004  96.7406845  61.8163252
  45.1542044  96.2918186  62.4412584  45.2332878  96.7289829  60.9943247
  34.8890591  89.9485779  10.4783845  35.1525354  90.0928497  11.3872290
  35.2071595  89.0693378  10.2734816  43.1518984  99.2071342  25.6736016
  42.6567793  98.9764881  26.4596629  43.4261751 100.1123810  25.8203197
  50.6954670  83.9210796  58.2644320  50.4653835  84.6782875  57.7259827
  50.2273655  84.0613461  59.0874958  57.1537733  85.4605198  66.1016369
  57.9866791  85.5413151  65.6369066  56.8529654  86.3624191  66.2126303
  97.7014065  92.0798779  31.1421680  97.0758152  92.3974228  30.4909873
  98.3344841  92.7920151  31.2333035  62.7333784  69.8235655  12.9368663
  62.0549107  70.3422499  12.5045753  62.5457478  69.9147177  13.8710594
  98.1906414  97.4932003  10.7023597  98.8066578  96.8007469  10.4630339
  97.3271751  97.1034908  10.5653179  63.4389353  86.6051960  14.8052227
  62.7616739  85.9873581  14.5298529  63.0632210  87.4674129  14.6273196
  66.0800838  73.0434656  45.8038092  66.9931269  73.2523251  46.0011911
  65.5826569  73.7752008  46.1689997  50.3393316 104.1843319  41.2233019
  49.4290400 104.4760513  41.2732697  50.5353928 103.8597107  42.1021748
 111.2230968   3.3016002  32.2994447 110.7446575   3.8450998  32.9254961
 112.1279621   3.3171874  32.6112199  69.3811035  65.4639626  23.9549589
  69.2411423  65.4942513  24.9013877  70.2351999  65.8763647  23.8258314
  67.3456478  75.0526905  19.7511673  68.1581831  75.1121283  20.2536511
  67.3239422  74.1487980  19.4369388  66.1800957  85.4510689  22.9077697
  67.0641327  85.6005859  22.5725794  66.2920284  84.7922707  23.5931015
  43.4203529  97.8872776  42.5657654  43.8204336  97.3056412  43.2121849
  44.1566133  98.2112503  42.0469236  82.9965591  78.9150667  45.5507326
  82.5145054  78.8020802  46.3699389  83.3271217  79.8125505  45.5891705
  73.4554911  89.2924786  53.5634804  72.9524326  89.9190998  53.0433702
  73.1893826  89.4629288  54.4670105  50.3102779 104.3833447  46.7876339
  50.8884859 104.9527454  47.2952604  49.4274664 104.6374321  47.0565510
  61.5252638  73.7414217  34.4929719  60.7860565  74.1896343  34.0819860
  61.6067648  72.9199886  34.0083742  84.2984104  63.7425232  13.6915970
  83.7953949  62.9960155  14.0170717  85.2109337  63.4588575  13.7468839
 105.1931000  67.9733038  50.4827452 105.8579826  68.3965015  51.0259485
 105.0178432  67.1416759  50.9230995  90.1782036   3.2922614  43.0372190
  90.8007717   3.5812289  43.7044048  89.9414062   4.0922880  42.5680542
  40.1309013  85.9966850   5.6497133  39.8298264  85.0976181   5.7811391
  41.0837364  85.9434414   5.7238787  35.3051877 102.5324249  33.2477188
  34.9983311 102.4577236  34.1513181  35.8802533 101.7768383  33.1268215
  32.8277063  89.8619175  60.9274530  33.6029148  90.4224110  60.8938026
  32.5970745  89.8276043  61.8558216 102.5715065  23.4415650  60.6898403
 103.3177185  22.8466868  60.7641363 102.6911163  24.0663195  61.4051056
  59.1994953  57.6400661  42.9778576  58.2864428  57.5750971  43.2577705
  59.5170212  58.4475899  43.3819771  59.8899364  87.4955368  17.7792478
  60.7253075  87.5276852  18.2454562  59.8378611  86.6010571  17.4424756
  73.7376976  66.0255909  18.1184685  74.0170240  65.6004858  18.9293277
  74.2426205  66.8382120  18.0878222  39.5387006  92.2421074  10.5219007
  40.3963280  92.5874329  10.2740026  39.0038991  92.3409557   9.7342139
  86.0496616  76.7424154  43.1643438  85.0998116  76.7704010  43.2794142
  86.2638283  77.5722218  42.7379799  11.9488978  31.9056606  93.1324387
  11.0813010  32.1158743  93.4778595  11.8560624  31.9910598  92.1835804
  40.4257393  79.8460913  22.0848560  40.1573324  78.9994431  21.7279601
  39.6071744  80.2629375  22.3539686  48.2983065  11.8147969  35.8867002
  48.1465006  11.9585347  36.8207932  49.2370129  11.9621181  35.7711458
  58.1818151  69.4199991  30.9274626  57.9277182  70.3358316  31.0410976
  59.0304756  69.4598341  30.4865289  64.8443365  74.3913841  21.9184327
  64.4218302  74.5476913  21.0738683  65.6744051  74.8647356  21.8622375
  10.9424007  14.7245336  89.2109871  11.0291314  13.8162172  89.5002365
  11.4300036  14.7614491  88.3881187  40.0487471  13.3841920  36.6044497
  39.2377019  12.9056346  36.7759705  39.8461795  13.9357269  35.8487988
  93.2304573  89.5413303  28.5643649  93.1248569  89.5949841  27.6145244
  94.0831852  89.1242313  28.6873651  92.8927898  85.3654957  16.3237405
  93.4222317  84.9436665  15.6470001  93.5287094  85.6642342  16.9738126
  73.4557390  80.8957672  30.8975339  72.9169130  80.8551598  30.1074433
  74.3497944  81.0019016  30.5725193 115.2665234   3.2049307  46.8215990
 114.5457458   2.6139742  47.0395041 115.8381367   2.6867759  46.2550354
  41.4951515  82.5364399  22.2331667  40.9532785  81.7658424  22.4028635
  40.9305716  83.2785606  22.4493337  85.8120537  85.8891106  45.0097466
  86.3608360  85.6345844  45.7515574  86.4333248  86.1633682  44.3351841
 107.9675007   9.4038630  35.8195829 108.6203384   9.7637391  35.2191520
 107.1289921   9.5679390  35.3880477  65.1972437  82.3534966  28.4330630
  64.9710369  83.0101395  27.7743721  66.0848808  82.0791054  28.2027483
  32.4953818  74.2335749  32.8345799  31.5683198  74.3863916  32.6517320
  32.6492906  74.6697426  33.6726141  10.6012380   8.5411203  32.0484328
  11.0172951   8.8749170  32.8432345  11.1405706   7.7931303  31.7917943
  67.8505421  59.8040724  50.4314947  67.2961044  59.0237951  50.4333401
  67.3461151  60.4574680  50.9161139  62.7113485  87.4462891  55.5498028
  62.9726934  86.5336418  55.6723404  62.8188086  87.6022816  54.6115303
  74.4063091  63.6614799  56.5443039  73.9971495  63.9674568  57.3537493
  74.3673706  62.7068329  56.6022491  52.5752258  65.6565189  45.0920868
  52.6253033  66.3695908  45.7286787  53.1468773  65.9339523  44.3762112
  66.2435532  73.4538078  36.5570641  67.0779228  73.8744259  36.7647505
  65.5808783  74.0580082  36.8917871  70.4292154  98.7962055  33.1549573
  71.2848377  99.2245197  33.1287980  69.8428631  99.4549942  33.5270047
  21.5438795  38.6719537  94.6594429  21.8695498  38.8822246  95.5346298
  20.9278822  37.9528117  94.7994804  92.5158215  97.8829193  58.8639593
  93.2921124  97.3292828  58.9481640  92.8548622  98.7774467  58.8969707
 100.5049610  10.3063834  44.9325180 100.6798458   9.3661392  44.9723482
  99.5575523  10.3688478  44.8110819  17.9432583  85.4542446  10.9835148
  17.6402903  86.2824821  10.6114149  18.8808417  85.5843353  11.1258042
  67.4960089  86.2085342  48.5559034  67.8356457  85.3389359  48.3445549
  66.6355085  86.2377357  48.1376696  49.9431181 101.6629219  32.8289104
  50.5339003 102.2232246  32.3256540  50.1554060 100.7740784  32.5440836
  68.0970240  80.6941891  62.6951790  68.9279079  81.1694145  62.6901007
  67.5185347  81.2290096  63.2388306  71.9106054  77.8603506  22.5104713
  72.3175859  77.3555756  23.2146049  71.0119581  77.5332212  22.4697804
  80.2346706  90.0302792  44.9783039  80.3306389  90.1366329  44.0318823
  80.4945183  89.1242409  45.1450682  60.7885981  14.6077323  92.6391888
  60.2753162  13.8007891  92.6793957  60.9597254  14.8286057  93.5547066
  81.2954140  75.3089046  47.9319239  82.0610905  75.0498915  47.4192095
  80.8102608  74.4947052  48.0658817  82.6287842 107.3697567  41.6629887
  81.8913269 107.5102234  42.2568321  82.9158878 108.2513046  41.4249325
 116.3290405   3.0242851  55.1930189 117.0099735   2.5163156  54.7519684
 116.3798714   3.8919422  54.7919941  84.7684288  13.3880746  48.6845684
  84.0396023  13.8737869  48.2983828  84.9387836  13.8321531  49.5152330
  59.5750284  99.7925949  48.3146334  59.5244598  99.1182709  48.9921045
  60.2789021 100.3722858  48.6057615 117.6336889   2.0845038  36.3814330
 118.2468919   1.3548404  36.4697790 118.0116435   2.7812964  36.9179606
  68.4197044  64.6364737  57.2697830  68.7009811  63.8193703  57.6814365
  68.0664682  65.1584101  57.9902267  43.7887907  84.9939728  16.1109400
  43.0396891  85.2253246  16.6600800  44.5518732  85.1599312  16.6644740
  29.9427009 108.2284164  63.4404516  29.9370885 107.4476147  62.8867722
  29.0175009 108.4191990  63.5948467  46.4426136  65.4534721  14.7046125
  45.6007814  65.2185392  14.3142843  46.2540245  66.2302780  15.2311516
  13.9197183  69.0735817  81.5219593  13.7957621  68.8849354  80.5917549
  14.8689842  69.1323090  81.6300106  76.0047960  68.6756706  11.2153184
  75.3809929  68.9687872  11.8795383  76.0539007  69.4032049  10.5952251
  89.3096447  68.0501842  35.4668736  90.1590538  68.3585787  35.1512218
  89.0174294  67.4289322  34.7998762  67.7543592  64.1945076  31.6361380
  68.6450100  63.9641476  31.9005394  67.6534319  65.1077127  31.9046497
  23.4936213  14.7283304  62.8138399  23.8775969  14.1576290  62.1481895
  22.6656556  14.3060446  63.0427027  83.0326176  53.9361525   7.1894139
  83.8233376  54.2343187   7.6389617  82.3335266  54.0506315   7.8331518
  53.5523748  82.8488636   0.8231050  52.9183435  83.5166836   0.5618507
  54.3071032  82.9994583   0.2539483  81.6490364  74.3709660  51.4208984
  81.2645912  74.5051384  52.2871733  81.3502026  75.1214552  50.9073877
  80.6303406  89.6457672  48.8617754  81.5859604  89.6050739  48.8989496
  80.4445839  90.3483963  48.2388544  61.9671965  71.2820768  32.9439116
  61.1530399  70.8609009  33.2195663  62.5825214  71.1021662  33.6547160
  36.0306621  69.3329716  25.9020925  36.8473196  69.3737745  25.4044652
  35.6239319  70.1886225  25.7654786  38.3289337  94.6052551   6.1604500
  37.9413438  93.7914562   5.8383548  39.1425848  94.3317986   6.5840369
  91.1667252  89.7276211  50.2960348  91.1882687  90.6616879  50.5040932
  91.4838028  89.6757126  49.3943691  78.8221598  61.9063520  40.6636477
  78.6307287  62.7423954  40.2386618  79.7351170  61.7269039  40.4388475
 107.5787544  97.4820137  22.8468943 107.9325485  96.9386673  22.1427345
 107.8834820  98.3662701  22.6432633  13.8256240  31.2031364  86.9731998
  13.2638502  30.4387069  87.1008205  13.4346390  31.6667414  86.2326431
  85.3346825   9.1557103  43.9645290  85.1759434   9.8526651  43.3279037
  84.5165634   9.0903777  44.4571114  79.4922638  88.5841179   8.0449378
  79.5250797  88.8882065   7.1379161  78.5581827  88.5418415   8.2497311
  39.4817162 103.6950874  45.1178312  39.1407943 102.8053665  45.2094936
  40.2600002 103.7119293  45.6748104  95.0201607  95.1697922  14.1030824
  95.7021046  95.8367252  14.1829991  95.3808498  94.5309067  13.4883034
  48.2825434  70.1947873   0.6564397  48.3836896  70.0792914   1.6012544
  48.7102753  69.4284575   0.2743215  51.5721989  88.1105137  53.9531994
  52.2736740  88.6342907  53.5661316  51.8231440  87.2043324  53.7740517
  66.2331486  74.2772484   5.9771091  66.6068935  74.2534876   5.0962108
  65.4512787  74.8226690   5.8909243  54.5414352 102.8031445  17.6544642
  54.2962837 103.6462784  17.2733319  53.9269447 102.6795864  18.3779025
  95.2368641  74.4641018  67.4516678  94.7961044  74.9142408  66.7310190
  95.5064869  75.1663828  68.0435610  68.9616728  78.5570002  38.5259175
  69.0027714  79.3386555  37.9749584  69.7068119  78.6436033  39.1204786
  61.3045931  95.0250721  32.9771256  60.8057213  95.2555656  32.1933961
  60.8276939  94.2866993  33.3560610  75.5620098  70.0636911  33.0043387
  76.2495375  69.7843790  32.3997569  75.4206276  70.9872055  32.7961040
  65.4180622  85.9561443  46.5829134  64.6218872  86.3436317  46.2193346
  65.5255365  85.1349640  46.1029577  82.8491974  77.5264406  25.4399872
  83.1890678  78.3915091  25.6688547  83.6252594  77.0198917  25.2004647
  75.5127239  87.6484203  47.7207327  75.5347538  88.5832310  47.5160885
  76.1773920  87.2625923  47.1501398 102.4804306  60.3991365  36.8176723
 101.5321541  60.3574944  36.6940546 102.8061295  60.8314228  36.0281920
  79.2049742  83.0274296  18.8147914  78.8607836  83.5675240  19.5261729
  78.5351038  83.0744934  18.1326723  53.5586262  58.9275932  16.9392014
  53.3443546  59.8560238  16.8478942  52.7473307  58.4714413  16.7156839
  76.8215799  81.5750313  67.8871870  76.7666245  80.6194305  67.8923559
  77.6524401  81.7648029  67.4514294  62.2012043  90.7760239   9.0883249
  62.2779655  90.4310608   9.9778992  62.8040791  90.2416706   8.5713714
  43.6782885  95.7531261   9.0194446  44.0013075  96.3601971   9.6853012
  44.4694614  95.4110241   8.6032206  75.0994873  65.9892273  38.7356615
  74.5488930  66.6956568  39.0733528  75.5926037  66.3909674  38.0203485
  10.6164753  26.3732982  94.8766518  11.5272868  26.6554713  94.9605179
  10.1297617  26.9597101  95.4558372  76.8492031   4.9469116  49.5245838
  76.0448313   5.4444712  49.3774366  77.2334051   4.8495856  48.6532927
  84.2209721   5.0800508  34.2828727  85.0657654   4.6805415  34.0756488
  84.3140697   5.3821266  35.1863742  79.8580408  67.4185514  25.8474588
  79.9727392  67.1088648  24.9490333  80.6149101  67.0708370  26.3191247
  43.5730886  51.6828346  92.5819492  43.3338261  50.7772779  92.3845673
  44.4995975  51.6396475  92.8184795  74.2895842  98.7656021  74.7580051
  73.9476871  99.0284729  75.6125450  74.7246218  97.9287434  74.9212027
  56.8714428 107.6985741  63.4902287  56.0846519 107.6512337  64.0333271
  57.4740601 108.2500553  63.9891768 103.9107513  78.2208061   8.3283657
 103.5258675  78.0005693   7.4800783 103.2982445  77.8610229   8.9699441
  20.7570362  19.8713744  56.1654568  21.1712098  20.7091665  55.9585905
  20.5159283  19.5066655  55.3139353  69.3860579  91.7047119  45.8386517
  68.8812113  90.9821129  45.4655361  69.8642159  92.0718384  45.0951385
  54.4284916 100.6139088  15.9702182  54.5385504 101.0300446  15.1152611
  54.2937565 101.3428307  16.5758181  68.5302782 105.7280254   7.3125809
  67.6663780 105.8294487   7.7121127  69.0083790 106.5154362   7.5726527
 103.4100723  34.4677973  63.5056210 103.3648968  34.4238949  62.5504971
 104.0437126  35.1627779  63.6837387   4.0964466 108.9370632  57.6192570
   3.8127643 108.5200691  58.4328079   4.0858057 109.8741722  57.8140688
  89.8892975  85.6756878  33.9623237  89.0498161  86.0811138  34.1794395
  90.2606773  86.2416172  33.2855535  12.0539784  11.7644405   2.8891790
  11.5870762  12.3676133   2.3108903  12.9640079  11.8072176   2.5954986
  25.3281283 103.3517742   8.6991805  24.9481392 102.6100159   8.2284081
  25.4266644 104.0327168   8.0337191  53.4321022   4.8854247  89.8701096
  53.2081318   4.6275139  88.9759350  52.6910686   4.5879135  90.3979206
 104.8103428   5.4610050  12.1975446 105.3999043   5.6705302  12.9219401
 104.2388058   4.7759581  12.5443625  90.4951954  67.8007030  24.7179770
  90.9430218  67.7471304  23.8736963  89.8434639  68.4917498  24.5999742
   2.2744223   2.6184669  56.0821867   2.3124096   3.5749125  56.0830259
   1.3612778   2.4152115  55.8794880  60.4674244  90.8890057  21.5031075
  59.6864462  90.8512115  22.0552635  61.1986828  90.8451080  22.1191931
 112.2553444  94.6274090  25.5224037 112.0705795  93.8581276  24.9836183
 111.4766979  94.7290707  26.0697770 103.1778717 110.0052929  50.3503847
 102.5127697 110.1601791  51.0211229 103.8019276 109.4095516  50.7649565
 115.6025219   7.8857934  59.2590618 114.7930336   7.6156437  58.8254833
 116.2644005   7.8601855  58.5680532   7.0382035  65.7219553  85.3811264
   7.2745073  66.1529255  84.5597553   6.0971767  65.5634880  85.3063774
  20.2467847   7.6194787  10.8846879  19.6109724   8.0854917  10.3417277
  21.0693002   8.0893159  10.7470107   7.0202249  82.9975319  93.3628273
   7.3193532  83.1806374  92.4721909   7.7274424  82.4831390  93.7520123
   9.2919296  25.5830336  35.6249261   9.4575304  24.6406341  35.6512070
  10.1618612  25.9774327  35.5624652  70.1098585  49.8236942   7.9507399
  69.6221066  50.4638433   8.4689456  70.9446526  49.7301292   8.4096456
  56.1351585  90.9985447  17.8165400  56.9077635  90.4344177  17.8493607
  56.3665152  91.6854191  17.1913195  82.2137833  67.8220224  69.9090719
  81.3521862  68.2265234  69.8077679  82.8113842  68.5593271  70.0335455
  94.3684769 110.3569412  65.9965706  94.4198990 110.0980091  65.0764942
  93.4349632 110.3179359  66.2045574  57.3759937  90.9243870   3.7718049
  56.4875317  90.7182598   3.4813344  57.3267317  90.9022331   4.7274798
  73.9518499  97.1746063  46.6581392  74.2777443  97.4936104  45.8165550
  74.6996117  97.2543812  47.2503567  68.4987164  81.0471058   6.6801453
  68.6875439  80.6765938   7.5422907  68.6733150  80.3317642   6.0685623
 111.7988205   1.9298303  55.4368973 110.8805180   1.8849173  55.1705551
 111.9811058   2.8665689  55.5112362  94.7483253  82.2620201  19.7355843
  94.4437122  83.1554890  19.5769823  94.6571922  81.8241310  18.8893116
  60.8221912  95.2950954  19.7732925  61.7569208  95.1423550  19.9117708
  60.7853842  95.8964825  19.0295148   8.8403386   4.6521568  28.0469465
   8.5212964   5.5544233  28.0658841   8.2352382   4.1722301  28.6124158
 105.2380466  15.8181405  23.1963944 105.1210690  16.6369414  22.7146149
 104.8239803  15.9779942  24.0444708  95.0015259  16.3146329  28.0305195
  94.8369408  17.1507800  28.4664083  95.9466934  16.1854172  28.1093121
 100.1786232   5.3132141  54.4267559  99.7913837   5.9578073  55.0190210
  99.7156811   5.4403222  53.5986471  60.3269339 102.3385620  15.7124519
  61.1835814 102.5357056  16.0912931  59.7809410 103.0873013  15.9522879
   2.9983258   4.3511486  40.1909876   3.4342313   4.0462533  40.9867620
   3.6250412   4.1705331  39.4903874  65.2617168  97.2630405  22.0123386
  66.1623335  97.1103859  22.2983789  65.3442574  97.5446129  21.1012220
  11.4491200   3.8475600  72.3859167  11.4573431   4.5447198  71.7300701
  10.9756327   4.2227650  73.1283855  63.0714321  84.2095947  22.4466133
  63.0436277  84.9316597  23.0743742  63.8302755  83.6902237  22.7124023
   9.4909108  11.3850486  18.6926520  10.1115572  11.4851153  19.4144666
   9.6075690  10.4811692  18.4000349   1.0367194   6.3724214   5.0706446
   0.7949296   7.0558774   5.6956708   1.6784658   5.8371466   5.5374151
  95.1991844  87.6802921  28.9576697  95.5192375  86.7783165  28.9425373
  95.3689003  87.9796982  29.8508596  39.9105906  12.8078723  93.2009411
  40.5982208  12.2007322  93.4743977  39.9021268  12.7456999  92.2457981
  57.0328474  83.1756496  46.2762356  56.3642836  83.0567551  45.6016111
  57.6383829  82.4461079  46.1445475  85.4785252 111.0869217  40.8240461
  85.2694225 110.2775764  40.3577042  84.9050140 111.7448235  40.4310036
 104.6399784  16.2695980  25.6984305 104.1694546  15.4399598  25.7792878
 104.6831608  16.6085863  26.5925527  65.1064920  92.0625973   6.6395694
  65.5946016  91.2452793   6.5397698  64.4031191  92.0019722   5.9931731
 117.4315834   7.7430475  38.0294466 118.1199932   7.2285420  37.6080036
 117.0022488   7.1275091  38.6235929  95.8230782  90.3196239  60.4283476
  95.5231094  90.3304482  59.5194292  95.1753330  90.8427334  60.9005928
  58.0242538  98.0580616  32.9194069  58.7513208  98.5256481  33.3304715
  57.9305267  97.2583961  33.4370708  84.9261665  80.4880810  56.1724854
  84.3014812  80.0965500  55.5619907  84.5097351  80.4010582  57.0299482
  20.0940132  46.3239908   4.4352260  20.5350304  45.8804226   5.1597852
  19.5326853  46.9737530   4.8582509 102.5672531  92.3866081  16.4016664
 103.5214043  92.4618912  16.3889766 102.2742176  92.9323101  15.6718957
  49.4934320  41.3470602  79.8053455  49.3537807  41.3338137  80.7522106
  49.2603064  42.2370958  79.5412922  85.4376793 109.4746208   9.8262602
  86.0174179 110.2339840   9.8853022  85.4664993 109.0828323  10.6991351
  99.5469189  76.4212656  35.0382829  99.5365715  75.4643297  35.0182962
  99.1680336  76.6472006  35.8877707  72.4740219  68.6948586   9.0554088
  72.5718498  68.8459682   8.1152880  71.5299749  68.7370300   9.2078143
  70.7280540  86.2669849  24.4154978  70.5454254  87.2004128  24.5231509
  71.6730022  86.1909866  24.5478702  89.7597694  16.1378598  56.1378098
  90.3736305  16.5849602  56.7204905  89.4134903  16.8317592  55.5767155
  84.5680904 109.4617558   1.4265244  85.2180386 110.1388550   1.6145220
  83.7251663 109.9018288   1.5362628  57.2025108  62.7523279  33.3514977
  57.5585127  62.7083731  32.4640512  57.9661608  62.6579714  33.9208531
  13.6839485   5.3560156  62.4097633  12.9888415   4.9573210  62.9333115
  14.1673279   5.9022450  63.0296135  85.8004665  59.9473000  39.7006822
  86.1339188  59.5923948  38.8766146  86.5644169  60.3480816  40.1154041
 115.3842163 105.4128551  50.8564663 115.6221390 104.6335983  51.3588381
 114.5799351 105.7275677  51.2691736 114.1154861  18.0604565   3.6826292
 113.5608768  17.3055708   3.4856737 113.5042667  18.7374437   3.9730343
 100.5573750 101.0942078  44.8137474 100.0723076 100.3320694  45.1301241
  99.9675846 101.8329144  44.9643564  83.8613892  81.4976883  17.5647104
  83.0762196  81.0922718  17.9326582  84.4162655  80.7596302  17.3124754
 116.5501404  96.3349533   9.2540663 116.4509583  96.8024445   8.4247029
 117.3322010  95.7963848   9.1333896 116.6590849  78.9772272  28.1641746
 117.1982163  79.1387081  27.3899055 116.9178603  78.1038761  28.4583163
 107.8412724  81.6235161  24.6964979 107.2023678  81.1342239  25.2147937
 107.3227024  82.0400906  24.0081882  75.9168100  97.6814938  28.8873482
  76.2194109  97.9794407  29.7451878  76.2144136  98.3587360  28.2798910
  91.4990234  76.2485552   0.7912844  92.1499634  76.9299459   0.6232976
  90.7621098  76.7137003   1.1872968  76.2426567  81.2819386  30.5321002
  76.4197063  80.9811687  31.4234042  76.6252518  82.1585560  30.4946923
  27.3807025   4.9468330  61.9778824  27.7530670   4.5425481  62.7615452
  26.5729380   5.3603244  62.2824621   6.9178897  70.8563471   2.1292196
   6.3559508  71.3078260   2.7590013   6.7854220  71.3295364   1.3077709
  63.7471914  78.6765242  44.3903923  64.2606211  77.9840040  43.9744139
  64.3853521  79.1728783  44.9028540  11.1864114  22.1489096  27.4678898
  11.6594338  21.7896557  28.2185006  11.8569136  22.2624683  26.7942691
 114.0452385  99.9254704  28.7525010 114.2179203 100.8145523  28.4427404
 114.1649532  99.9747849  29.7009039  57.2272396  81.4525223  82.1113968
  57.2491693  82.4094105  82.1006203  57.0069361  81.2281704  83.0154800
  99.5599651  98.2133865  52.0572424  99.5592976  98.6673260  51.2145281
 100.1343441  98.7404156  52.6127291  83.0640030 101.0654926  33.2039309
  82.1813488 100.7689381  33.4257460  83.5741138 100.2596188  33.1228065
  53.1657219  83.1103134  36.8604636  53.0193663  83.9027119  36.3438249
  53.9959240  82.7622223  36.5351462  12.5933778  26.0582161  72.6373148
  12.4018300  26.9321632  72.2970867  11.7726469  25.5763078  72.5353479
  67.4776697  95.3548336  16.0313547  67.6259089  94.8351479  15.2413011
  66.6341972  95.0487137  16.3646364  13.1728828   2.2819327  39.3944478
  12.2986901   1.9242291  39.5495820  13.6641908   2.0658855  40.1870203
  47.0800543  95.6373119  35.5925941  46.4234400  96.2503719  35.2620602
  47.0850945  94.9243927  34.9538922 112.5008965  76.2602997  75.0419807
 112.7350616  76.2738800  74.1139650 111.7581177  75.6586838  75.0927925
 113.4970594 111.3536931  38.2942700 112.7171732 111.5185812  38.8241959
 113.1787658 111.3590124  37.3915553 103.5065079  91.4276695  39.0609813
 103.9238644  90.8572769  38.4154534 103.2538700  92.2062778  38.5648203
  80.0125599  92.6740646  79.5174694  79.6401453  93.5488987  79.6279573
  79.8323774  92.2306156  80.3463936 110.1212883  71.0712862  12.2897065
 110.6668854  71.8332529  12.0948648 109.2981052  71.4413691  12.6085114
  72.6079416   2.9245251  39.9387527  71.9225121   3.3631101  39.4347048
  72.7095127   3.4627253  40.7237720  77.6069736 110.3067398  31.9345331
  78.3265448 109.7308636  32.1930075  77.7613354 111.1162663  32.4214387
  78.7702036  73.9927053  52.4605513  79.5650148  74.1124439  52.9803324
  78.3397007  73.2330561  52.8527641  14.8642933   1.1745892  30.0805926
  14.9515188   2.1267024  30.0347209  14.0610063   1.0315017  30.5810809
  95.4687500  16.9147825  74.6230602  94.9997616  17.1614528  75.4202032
  96.3695240  16.7669916  74.9111414  81.1731815  84.2503357  67.9613972
  81.9966507  83.7684059  67.8848314  80.6383228  83.7185097  68.5507345
   8.1069601  14.3999648  22.0943522   7.6743889  14.1924465  21.2660718
   7.5322592  14.0293634  22.7641320 107.7722073   8.9457989  61.1974478
 106.9444466   8.5277694  61.4347219 108.4205818   8.2441694  61.2570381
  25.1633739 106.5433311   0.7120386  24.8216915 107.2585106   0.1753767
  25.8586431 106.1559296   0.1802962   9.4671100  10.7543719  52.2298956
   9.2870033  10.1898825  51.4781332  10.1054406  11.3894045  51.9050884
  41.6513491 109.1931915  44.0987921  41.1181259 108.7411022  43.4449434
  41.3280058 108.8670540  44.9386215  75.6799126  76.6014910  65.3820229
  75.7294416  77.4707317  64.9842691  75.1174307  76.0998011  64.7919846
  95.3095520   0.5318973  33.0224442  94.3600738   0.4208229  33.0712557
  95.5514610   0.9012745  33.8717175 104.5940876  25.2105355  17.6822269
 104.8605824  24.3442631  17.9901063 105.3044891  25.4881811  17.1038902
  59.5001507  91.4320278  24.6318579  59.3116951  92.3001003  24.9884534
  58.8832188  91.3318062  23.9068866 118.2837391  20.5268812  55.5715179
 117.5748825  19.9836552  55.9159803 117.9450989  20.8651948  54.7426033
  84.0459633  13.6984384  35.3248215  84.5552826  13.3916175  34.5746946
  83.8165379  14.6014428  35.1053262  63.7274933 106.3517284   6.7949885
  63.0644703 106.5776730   7.4473548  63.8447380 107.1532822   6.2850976
  36.1604333  47.3804617  82.6849747  36.1664033  48.2049847  82.1988010
  36.8435311  46.8532038  82.2707176  72.7553797  91.7606163  16.9149709
  72.8493261  91.0191631  17.5130188  73.5739803  91.7735100  16.4190269
 109.0750122  11.4276922  41.7676735 109.0454674  12.1359551  41.1244631
 108.1945229  11.4077806  42.1426153  70.6654930 102.8720951   1.6763145
  70.8741713 102.1746540   2.2978215  69.7136831 102.8327084   1.5828235
  12.6026940 101.4095211   5.2618974  12.6784480 101.1809731   4.3354768
  13.3540058 100.9845829   5.6756401  10.3868723   3.7674314  14.3570709
   9.7620213   4.2815441  13.8457191  10.5599165   4.3023479  15.1317656
 104.0476322  93.4996414  51.1136580 104.3164444  93.5117340  50.1950598
 103.8811874  94.4178867  51.3266230  80.1832104  89.0535641   2.3312624
  79.5325661  88.3790588   2.5260305  80.9957695  88.7193203   2.7110672
  17.0205617   8.1094122  54.9551964  16.1628747   7.6844352  54.9545956
  17.6185107   7.4416268  55.2909803  13.2139158  93.3274364  67.3800230
  12.9262602  92.6452255  66.7733288  13.5317492  94.0318108  66.8151617
  65.4510927 104.7897816  60.0841570  64.6583652 105.3257179  60.1083899
  65.2041674 104.0199471  59.5717096  80.6192303  11.8928337  41.8050718
  80.1206303  11.3890874  41.1617470  81.3374329  11.3131225  42.0587444
  17.1423209  37.9408431  22.7360582  17.4687088  37.4624300  21.9739389
  17.9277182  38.3042240  23.1451273  68.8858032 106.9312286  69.3397665
  69.7875214 107.2440720  69.4123316  68.9387512 105.9979916  69.5458984
  82.1541691 108.9774418  19.3337011  82.9017830 109.3405819  19.8084998
  82.5438213 108.5097790  18.5949850  76.9874191  83.4566402  17.3785305
  76.3385868  82.8122330  17.6613462  76.8554592  83.5304642  16.4333498
  73.1926870  79.6898556  65.6822634  73.4133816  79.3512201  66.5499353
  74.0386343  79.8838520  65.2785778  20.6536126  25.8430696  36.1790371
  19.9711084  26.5085149  36.0918427  20.7996607  25.5313110  35.2858925
   1.0431633  21.4339948  29.7943377   1.1894869  22.1835327  29.2172623
   0.4934004  20.8410525  29.2820764  66.8580675  97.4103165  49.9916315
  67.6734018  97.1719742  49.5504332  66.6939354  98.3133984  49.7200727
  12.1721411  23.8881135  57.6477528  12.3330057  22.9581666  57.8076124
  11.7434120  24.1976404  58.4456348  90.6535149  55.1717615  30.5854869
  91.3306999  55.4988623  31.1776495  91.0640049  55.1862431  29.7208953
   7.1000427  10.1997817  27.6055717   7.9190856  10.6001437  27.8973103
   6.4401883  10.8803904  27.7382183  39.5051646   1.0324974  86.1735535
  39.8526359   1.9110632  86.0198689  40.1267147   0.4494803  85.7376575
 111.1918867  -0.3084519  34.7115803 111.8331802   0.3333424  34.4065070
 110.3567732   0.0027988  34.3623829 101.9788361   8.1879252  28.3404422
 102.6253605   8.8003385  28.6914277 101.8616295   7.5394297  29.0346670
  97.4364567   2.3438211  38.2400441  98.0605984   2.2432324  37.5213170
  97.1139908   3.2408962  38.1534457  60.6723881  88.2138443  30.3099298
  61.3983536  88.6578655  30.7481718  60.5999756  87.3720074  30.7596922
  67.4758816  94.8176670   8.0045593  66.6963387  94.6476460   8.5333651
  68.1947231  94.4351387   8.5077196  72.4386692  66.0448980  15.7661223
  72.9682446  66.1650658  16.5543735  71.5454960  66.2473726  16.0444725
  77.6954937  79.4729137  15.4104912  78.6258793  79.2597723  15.4824376
  77.2559023  78.8090229  15.9417570  99.2809010   4.6871516  31.6057301
  98.8545132   3.9257705  31.2123823  98.9397621   4.7175348  32.4995613
 106.9972134   9.1347504  22.9862595 107.2090721  10.0313342  22.7264857
 107.8442192   8.7376440  23.1890225  56.2268591  97.2414589  19.6614838
  56.7977428  96.5195847  19.3983853  56.3470268  97.9025459  18.9797580
  41.1583710  81.1453724  43.9748859  41.5791607  81.7418289  43.3556890
  40.2213287  81.3048744  43.8620043  32.6694465  29.2710996  29.3812990
  31.9059706  28.7453389  29.1427326  33.4114623  28.6745763  29.2822862
  80.4924107  99.6833420  15.6978881  80.3651333  99.2129612  16.5217626
  81.3559246 100.0873375  15.7836747   4.8320091  34.5895648  84.5136261
   4.2582950  33.8714957  84.7809505   4.7191578  34.6457648  83.5647678
   4.8295617  14.6038842  28.7572980   5.5646473  15.1504898  28.4796214
   4.4337335  15.0856996  29.4835258  61.5668392  81.5953159  37.3841810
  62.4429893  81.6677761  37.0055747  61.2341404  80.7585144  37.0596600
 114.3277931  39.2546415  69.0751076 114.9422169  39.9833488  68.9873457
 114.3334484  39.0478182  70.0096798  96.2696171  15.7411098  19.9652064
  96.7882633  15.0182581  19.6120477  96.6167068  16.5198720  19.5301354
 100.1544094  27.6890874  31.3951182  99.5400906  28.1925011  31.9293642
  99.6325970  27.3850083  30.6524992  71.1902094 100.4906082   5.1784521
  70.5976534 100.0809193   4.5481601  71.3506699 101.3648033   4.8231167
  15.6664276  96.8939400  75.5169249  15.3363931  96.1277199  75.9861946
  16.5384674  96.6350651  75.2189922  77.1656609  91.9504356  40.0223827
  77.5386906  91.0731983  40.1092100  77.1153545  92.0968914  39.0777946
   3.7287122   0.5610139  65.0401211   3.7832177  -0.0227534  64.2834949
   2.9744387   1.1210633  64.8566866  88.4195995  91.1796474  24.1972589
  88.6572552  91.3456821  25.1095033  87.9553318  90.3428650  24.2191911
  30.2709842  20.9013534  71.8577528  30.7952929  21.6986394  71.7824697
  29.8976111  20.7769442  70.9852028  32.2804236   1.5711424  32.2111058
  32.9366994   1.0989261  31.6987157  32.7684760   1.9316080  32.9514432
  79.3776751 104.8489666  29.5011830  78.5426283 104.5398045  29.8523831
  79.7888422 105.3103256  30.2321577  51.4760685 111.3085079  72.0187426
  52.2244692 110.7204437  71.9172001  51.2989330 111.6258430  71.1332178
  38.4688258 101.1595154  83.6552143  37.5872445 100.9248924  83.3653831
  38.3667946 101.3748550  84.5822811 111.3498020  10.4053664  61.1823702
 110.5770683  10.6510246  61.6910553 111.9662857  11.1243832  61.3209295
   6.0316098   0.7053795  45.8287430   6.8117940   0.3531392  46.2570763
   6.1602736   0.5120236  44.9001455 112.5536537 105.6289864  51.3452673
 111.9780540 105.7363892  50.5880499 112.6411152 104.6812439  51.4471245
 115.4848385   1.3706137  50.6917572 115.2962780   0.7790139  51.4202404
 115.3774929   2.2471422  51.0610914  64.9461889  69.6784687  68.6690807
  64.0810013  69.3885088  68.3799410  65.3537416  70.0385427  67.8813744
  45.8807182  99.6501255  28.9366293  46.5597868  99.4592476  29.5836687
  45.0621557  99.6173573  29.4317198   5.3604966   7.5819474  43.9840412
   4.6472636   8.1421834  44.2900896   5.1489526   7.4040395  43.0676174
  69.7260523  65.2087450  14.3982613  69.1322136  64.6310949  13.9187706
  69.4237900  65.1634121  15.3053510  87.6451778  65.4368496  59.5709944
  88.3109665  65.3999758  58.8842630  87.5638390  64.5326996  59.8745251
  84.4947720  88.7661552  40.6047392  84.2012978  89.0688229  39.7453809
  83.6900139  88.5140705  41.0575676  60.0544548  85.3813839  27.3080754
  60.1727867  85.0315762  26.4249778  60.8618069  85.8643627  27.4845529
  18.1609464   7.3621023  21.5345693  17.5719118   7.4422038  20.7843351
  19.0388334   7.4037707  21.1553478  33.6614680  12.9899907  38.0981827
  33.6042118  13.8509429  37.6837969  32.7511549  12.7371848  38.2519722
  61.8943357  88.2050514  19.6494031  61.5094614  88.9662361  20.0838161
  61.9688129  87.5470543  20.3405786  88.9151669  99.5137405  72.4065256
  89.7584915  99.6122646  72.8484774  88.7419701  98.5725880  72.4280787
  81.5266705 101.7244530  46.9747734  81.7928028 101.7531013  47.8937817
  81.5003586 100.7915688  46.7620087  49.5687151  34.7195959  87.0840549
  50.0306320  34.5755911  87.9099655  50.2636337  34.7828126  86.4288330
  87.7780056   1.2868857  27.3756218  87.1826553   1.7376530  27.9744458
  87.5780964   1.6566718  26.5156627  86.9200230  93.8039494  44.6924353
  86.3137150  93.0651760  44.7457695  87.0164871  94.1004372  45.5974340
  60.1599026 110.3418350  22.5778484  60.0721169 109.3988705  22.7168703
  60.0957489 110.4510593  21.6290641   7.4805361  28.7615657  22.5021935
   6.6007870  28.4631586  22.7329040   7.7555233  28.1745934  21.7978644
 103.3078384  17.6917791  49.2747736 102.9908943  16.8773270  48.8843298
 103.8643360  17.4088609  50.0003767  88.7214088  89.7611904  38.1950831
  88.4856606  89.2224121  37.4398470  88.8101673  89.1375732  38.9158177
 110.8410740  92.5520420  32.2584534 110.9896278  91.6108990  32.1666646
 109.8909760  92.6380253  32.3368502  75.3299904  78.7812757  37.4627662
  74.3732643  78.7555504  37.4784541  75.5962944  78.2445478  38.2092524
  69.6266365  86.8706799  34.6746826  68.8130665  87.1831131  34.2788005
  70.1962900  86.6769695  33.9302349  27.5164938   9.1028225  26.5676570
  28.0217457   9.4772714  27.2892809  26.6866541   9.5796281  26.5835643
  67.1697903   0.3661168  41.5746021  66.7356396   1.2079387  41.4364815
  66.6189003  -0.2660733  41.1129904 113.5699654   3.3133852  81.8834019
 113.3640385   3.2962900  80.9487724 112.7772331   2.9871881  82.3093224
  52.3421574 108.1102467  56.2710476  51.5669537 107.8916264  56.7882538
  52.4821424 109.0433693  56.4320230  18.5653865  12.0803118  37.7687979
  18.0393398  12.7464068  37.3262787  19.2640328  12.5735235  38.1987596
  94.4473553  74.3493271  24.2946911  94.7695446  73.9458084  25.1006675
  93.5259438  74.0938234  24.2506552   8.9917147  15.1701021  15.4772317
   8.6740988  15.1395929  14.5747781   8.8129342  14.2959189  15.8237481
   0.7603572  44.3606043  54.5367241   0.9766286  44.9008417  55.2967262
   1.6020739  44.1986084  54.1106939 109.1788101 105.6878948   2.5262418
 108.7110710 105.0699997   3.0880782 109.3047619 106.4622402   3.0746514
  21.3113332   1.3920851  34.0168023  20.5066442   1.4731786  34.5287919
  21.9898176   1.2037917  34.6652126  92.7089024  92.4600220  14.0270376
  92.8530312  92.0954514  13.1537950  93.2057381  91.8868446  14.6108675
  51.5299749  33.4611773  95.6531906  50.6538725  33.2017636  95.9384727
  52.0541382  32.6644158  95.7347775   4.7567222   3.2513154  20.2392364
   4.0029681   2.8699341  20.6893849   4.8808435   2.6974273  19.4684994
  47.5420952  39.3240476  88.3395100  47.0621300  38.8898277  87.6343060
  47.0116663  40.0917292  88.5529327  64.9900675  76.1147356  43.9581680
  65.1019335  75.3230047  43.4319782  64.4903088  75.8261538  44.7218370
  67.2156239  92.2418690  62.1399450  67.0486403  91.6017532  61.4481401
  66.9493818  93.0794144  61.7606354   4.0716410  64.0805864  62.3222828
   4.4250771  63.8878441  63.1907082   4.0065542  63.2264185  61.8951988
  86.2128723  -0.0980141  34.3773103  86.1815489   0.6952427  33.8425303
  87.0333708  -0.0258686  34.8649716  64.1578770  89.6791267  59.0934229
  64.3353367  90.5727005  59.3871307  63.2200432  89.5596027  59.2431545
  82.4841213  82.2709084  10.8724809  81.8786335  81.6938686  11.3379228
  82.7498913  81.7682457  10.1024604 107.5441742  95.3556061  59.1764784
 107.3277092  94.9129868  59.9971294 108.4917641  95.4847527  59.2167187
  86.4067650 100.1631641   6.7444003  86.2729549  99.6221352   7.5226092
  87.1464062  99.7556973   6.2936968 102.3131561  14.8822296  22.8738379
 102.1423435  15.7167017  23.3105421 103.0173397  15.0755119  22.2549629
  16.6592144   0.2492092  67.9337406  16.1242890  -0.0767185  67.2099590
  17.4540924   0.5788944  67.5145578  12.2697508  14.6237624  18.2540596
  12.1526802  14.2861521  19.1420615  12.6274514  15.5030167  18.3773255
 112.1775055  17.6939368  33.1532812 112.0831108  17.7436113  32.2020435
 111.4778709  18.2519901  33.4928656  84.6363258 102.2315121  31.0040164
  85.2939224 101.5703678  30.7879496  84.1625595 101.8633270  31.7498136
  58.8835382 109.1629028  49.6251917  58.8102007 108.5886955  50.3875160
  59.0347815 108.5678768  48.8908148  93.4287739  86.4427567  46.0903025
  94.0430260  87.0432854  45.6680489  93.9347172  86.0395241  46.7957497
  43.4218931   4.1685820  55.5923796  43.8279486   4.7049159  54.9114275
  43.3424282   3.3001715  55.1976919  90.3164291  97.7445507  28.1016898
  91.0942650  97.6927567  27.5462461  90.3638268  96.9639301  28.6536074
  27.2611547   1.5315184   9.1042608  27.0204353   2.3579586   9.5229280
  27.5337481   1.7808501   8.2212210 115.9197903  76.9736385  44.1176319
 116.8381023  77.0543623  44.3753338 115.6493092  76.1212158  44.4588757
  68.8668728 111.0771561  56.0329819  68.1327534 110.5984783  56.4179134
  69.3538523 111.4140320  56.7850447  39.1998601  17.1561384  27.8245687
  39.8797083  16.8386590  28.4189129  39.4987702  18.0267262  27.5619626
 109.6953487   5.0341159  24.2719126 109.7862625   5.9111816  23.8994598
 109.0758228   5.1433116  24.9933672   5.4175085  18.4884691  73.1355381
   5.0571382  19.3578124  73.3104897   5.1304740  17.9564178  73.8776731
  91.7367268 104.9924469  32.1999812  92.6565552 104.8148155  32.3964167
  91.5942574 104.5952415  31.3408136  98.1464005  30.4287481  60.0342989
  98.4622288  29.9994421  59.2392015  98.6194134  29.9952197  60.7446098
 115.7666874  99.2855453  24.8571134 115.7716846  98.5052299  24.3027520
 115.7323551  98.9442730  25.7507467  79.2135811  73.5964203  18.6693454
  79.4020271  73.0206776  19.4104517  79.0400553  73.0001736  17.9409146
 106.2407589  13.5083270  42.8929901 107.1508312  13.7993705  42.9503918
 106.2445927  12.6324773  43.2791281  99.3785858  77.9885530  56.7239094
  99.3976116  78.5257483  55.9318924  99.9010181  77.2175264  56.5029621
 106.1027908  95.6559277  47.1687365 106.8632793  96.2308121  47.0827579
 105.3506756  96.2470627  47.1351910 105.3095627   0.2795210  82.1393681
 105.4172802   0.8860804  81.4067650 105.5030918   0.8048949  82.9157448
 105.5281353  16.9435501  59.9862576 105.6090641  16.1780441  59.4173241
 106.4312458  17.1907997  60.1849985  82.2010136  95.8564091  15.3720486
  82.2926617  95.5507183  16.2744844  81.2928581  95.6585884  15.1432216
  97.6436138  20.7440066  43.1049061  97.8441238  21.6462612  43.3538342
  97.3042202  20.8115602  42.2124434 106.6436768  15.4785681  40.5451202
 106.2053394  14.7491121  40.9832811 106.0566425  15.7140720  39.8266792
  25.9199190  13.2299781  30.6816101  25.6527138  13.3901083  29.7765183
  25.7585287  12.2962999  30.8173704  86.6913223 110.8903885  30.2440524
  85.8337975 110.6573391  29.8882723  87.2985268 110.7485676  29.5178151
  85.2504539 103.4227657  35.1797986  85.6465816 103.4240532  34.3084121
  85.5329418 104.2487240  35.5725336 110.7507038  16.3311899  59.9826145
 109.8411560  16.6124189  60.0819159 111.2045479  16.7197299  60.7304764
  91.6922569  87.3710060  43.4763956  91.7807007  88.3197212  43.3849573
  92.5928688  87.0475101  43.4983492  93.8732815  73.7309933  42.6340342
  93.2341290  73.9357471  43.3165169  93.9491081  72.7770376  42.6553202
 110.3860760  41.7654228  26.5609550 109.9546719  42.0851517  27.3533511
 110.0757217  42.3478603  25.8676481  77.1173811 109.3210793   8.7957007
  77.7837515 108.6492825   8.9401501  76.5571213 109.2731667   9.5703268
  77.0799112 103.6461163  25.3463507  78.0319548 103.7293339  25.2923346
  76.7981100 104.4257164  25.8249331  34.8541737  19.0024400  18.1650066
  35.0101280  19.7733235  18.7105787  35.6921005  18.8429284  17.7306485
  76.2052107  78.9793062  42.0304918  76.0760641  78.0595112  42.2618628
  76.4189529  79.4071198  42.8596592 102.1089935 102.0146942  74.7061968
 101.4961624 101.4998722  75.2311945 102.2012997 102.8383923  75.1849842
  98.2738781   8.9332283  44.4508600  98.0108261   8.9784497  43.5316229
  98.7709522   8.1179655  44.5179176  19.8192191  22.9366422  23.2309031
  19.2023826  22.8343225  23.9556623  20.0637197  23.8618183  23.2532811
 105.8422565  31.6705418  33.5822892 106.1682415  31.0327005  32.9473639
 105.0038719  31.3118410  33.8732815  49.6220160  30.9865141  16.8324566
  49.5784712  31.6511750  16.1450243  49.9852228  30.2152300  16.3972187
 114.1212082  25.5556679  30.8258986 114.0255833  26.5038991  30.7367373
 115.0268078  25.3811169  30.5696726  61.6229820 100.9820557  49.8399591
  62.4211264 101.1795330  50.3300619  60.9573269 100.8407688  50.5131435
 106.0683441  13.7843168  18.0691361 105.1537323  13.8570416  17.7963221
 106.3380051  12.9147315  17.7736151  41.8798542 105.9493542  19.7493148
  42.5399017 105.5893803  20.3417611  41.5646029 106.7371655  20.1922512
  40.9740448  17.0211518  57.0969629  40.8821440  16.4944327  57.8909111
  41.2950277  16.4062035  56.4373875 106.5460777  29.4195986  32.1248937
 106.5292454  29.7640610  31.2319803 105.8569145  28.7554407  32.1384287
  62.7588511  67.9718971  49.7353506  63.2317448  67.2777271  50.1944065
  62.8312826  68.7326670  50.3117323 104.7319794 101.1789036  18.5895300
 105.3285694 101.3322544  19.3221927 104.3823910 102.0449924  18.3799982
  11.1435914 103.1847286  21.4820814  10.5454564 102.5427914  21.8646765
  11.9387746 103.1158543  22.0104480  94.8824978 104.4392395  49.0240812
  95.7312584 104.0001965  49.0796661  95.0384045 105.1903534  48.4515858
 104.2421055 105.8384609  20.2539587 103.9090157 106.7334938  20.1891899
 104.9851418 105.9022617  20.8540082  74.4030619  96.1369991  62.1855688
  73.5852671  96.6078186  62.3461151  74.6505642  95.7879925  63.0418205
  82.6376152 104.9976349  50.4177856  82.8474712 105.7184887  49.8240232
  82.2629642 105.4236794  51.1887264   5.9124345   6.1794615  29.6839523
   6.2070441   5.2706635  29.6246004   6.2029207   6.5794295  28.8642740
   4.9327108  12.0640624  27.5057340   4.8696074  12.9932332  27.7268457
   4.4303191  11.6205597  28.1892109   8.6569208   1.4324887  28.3647203
   8.3563447   1.9869693  29.0847468   9.6094096   1.5271284  28.3710527
  71.2952280 105.2072906  52.2431946  71.3739395 105.8403015  52.9568720
  70.6268120 105.5779266  51.6669321 116.6711521  17.4691367  34.4816661
 117.1903324  16.9436359  35.0903749 115.7641792  17.2288656  34.6711802
 100.1378918  97.9265308  57.5693464 100.5365086  97.6572895  56.7417908
  99.6865082  98.7449265  57.3626995  86.4467621  73.6484051  47.5234413
  86.3753700  72.7832317  47.9266977  85.8381462  74.1951895  48.0202723
 111.7084599   2.0921771  27.3331761 111.5400124   2.3536882  28.2384205
 110.8997250   2.3056361  26.8677640  55.8452415 109.8283100  45.4675770
  55.6507158 110.0649166  44.5607138  56.6419649 110.3158855  45.6766987
  97.3740482   8.4503758  27.7878737  96.8642712   8.9186078  28.4490275
  98.0282021   7.9641926  28.2898092  63.2064486 102.6876259  24.4434857
  62.8868580 102.8076172  23.5492277  63.9353943 103.3030319  24.5219183
  26.5020847   8.7336278  23.5952926  25.7220340   8.1792223  23.6149836
  27.2341347   8.1169438  23.5893226  32.6994276   3.4126225   8.4510607
  32.8547359   2.5959533   7.9765475  31.9478583   3.2239193   9.0129930
  62.0042038  92.1028519  80.0849724  61.7095232  91.4226055  79.4794512
  61.3245821  92.1349621  80.7582569 100.5621433   2.8627914  23.6775708
 100.5984116   3.6785862  24.1769648  99.6486855   2.7920428  23.4004116
  62.7915382  91.5088654  40.1306057  63.4262276  91.4477825  40.8445168
  61.9426775  91.5670204  40.5691051   1.7298757   7.2003555  45.5382586
   2.0988555   7.9758924  45.1156139   1.7792310   7.3916686  46.4748430
  19.8021579  11.3381016  35.3046632  19.0506530  11.3025320  35.8964467
  20.5615664  11.2151504  35.8742380  69.1766071  97.4909019  75.4121113
  70.0521803  97.3035812  75.0737047  68.9826632  98.3743191  75.0987720
  28.5170627  34.2535877  83.5685062  28.8917446  34.6069336  84.3753433
  27.6802039  33.8754797  83.8385677  89.1831779 103.7581825   2.1988061
  88.6991405 104.5000172   2.5616109  90.1038265 103.9937401   2.3135304
  14.6856678   8.4480995  49.3896866  14.2394531   9.0693367  48.8141966
  14.0769196   8.3148873  50.1162624  94.5368099  85.2719688  48.6025190
  94.9929142  86.1029911  48.4698629  95.2141666  84.6057415  48.4861231
  28.8453913  34.8231840  52.5806379  28.4570932  34.1577888  52.0125675
  29.2092848  34.3285251  53.3148861 110.4279518  -0.0905940  28.3990932
 110.9010792   0.6420788  28.7935281 109.5588684   0.2613446  28.2065821
 104.9667645  91.2870502  56.7411518 104.4469261  90.8693790  56.0544634
 105.4475594  90.5668736  57.1490908   6.1313289   8.4117335  86.6593933
   6.8211436   8.0166715  87.1926022   6.5917748   9.0296018  86.0915375
 112.2495079  99.7216415  51.3775492 112.9684353 100.0253391  50.8233452
 111.6709900  99.2470074  50.7806587  70.6424665  91.1496830  32.8833652
  70.8708477  91.5153790  33.7379670  71.4503765  90.7395077  32.5747108
 114.6980095  10.7475412  21.5994358 115.1474762  10.1818383  22.2272801
 115.3973579  11.2641227  21.1990738  88.0199432  87.6655769  11.8677616
  88.6668491  86.9627953  11.9296491  87.5246239  87.6078129  12.6848054
  83.2720757  26.6531515  27.0523572  83.2743740  26.2680674  26.1760378
  83.7746239  26.0374713  27.5858450 116.3905334  40.6448221  34.4920325
 116.0590553  40.4732704  35.3734660 116.2307549  39.8313570  34.0135193
  16.9284427   6.3477051  58.3477497  16.1857593   6.6872293  57.8483725
  16.6853452   6.4869285  59.2630386  25.9611034   0.2986554  16.5575659
  26.3341069   0.4578430  15.6905246  25.8575749   1.1710519  16.9376159
 112.0431042   7.5629205  31.1860633 111.3655090   7.4093509  31.8444777
 112.0038319   8.5042548  31.0170054  14.2803562  12.3186183  10.7094121
  14.7094536  12.7723622  11.4348245  13.3944809  12.6807165  10.6908929
  99.6488762 101.2001133  12.5866306  99.0087223 101.0867119  13.2891750
 100.1637077 100.3932476  12.5991714  85.6343365  18.3895516  83.0849648
  86.3708973  18.5794353  83.6660576  84.9085331  18.9003098  83.4435272
 112.7840996  21.6174316  49.5711613 112.0164204  21.4769340  49.0169382
 112.4247169  21.7563295  50.4473972 111.9355106  60.9902716  85.7128716
 112.1407413  60.8384132  86.6353989 112.7798176  61.1926174  85.3098392
  82.1435547 103.9840412  31.8746090  82.3338795 103.1052685  32.2029018
  82.1729374 104.5417213  32.6520157  47.9282236  42.8834915  46.8684769
  47.0632696  42.6837397  46.5104532  48.4837580  43.0055523  46.0985947
 103.7957859  27.5934911  18.6906672 104.0783978  26.8155169  18.2099175
 104.3392944  28.3005190  18.3428991   0.9924780 103.8581753  13.9046705
   0.6686675 102.9778385  14.0954340   1.1641871 103.8513851  12.9630220
 100.3474331 106.4381027  23.7144613  99.4943333 106.0591888  23.5026383
 100.6317997 105.9655666  24.4968128  42.5176001  13.7853897  35.5513072
  42.5045919  14.7420549  35.5220747  41.6551781  13.5443521  35.8894897
  10.4169643   1.9305626  89.0430927  10.0100136   2.2420497  88.2346344
   9.8425680   1.2267323  89.3446255  28.5661650  37.9564691  23.2691979
  28.5492063  36.9994307  23.2645607  29.4862843  38.1803918  23.1296706
  54.6216488  14.3959522  58.0025721  54.5483208  15.2991259  57.6941347
  53.7567282  14.0177631  57.8440666  25.7337737  47.6528978  11.2795711
  25.8459616  47.5737572  12.2268736  25.4383278  46.7863655  11.0001552
  11.7179489  31.8482089  90.0090027  10.7876956  31.8284488  89.7843456
  12.1162975  32.3951125  89.3319130   8.3926380  18.2598710  30.4041982
   8.0121028  18.7018216  31.1632133   8.4586632  18.9433265  29.7372937
  19.7689760  99.6265507  41.3827467  19.7558522  98.7947559  40.9092665
  19.0751326 100.1450348  40.9753323 111.6659809 111.5047591  48.4439850
 111.2631322 111.0553144  49.1869164 112.4994803 111.0524908  48.3137512
  35.1880074  31.4450121  19.9895585  35.6267834  31.5459538  20.8342600
  35.6061316  30.6811118  19.5922422  82.7068806 103.8045883  41.0087156
  83.1192207 102.9412556  40.9793139  83.4376240 104.4160366  41.1002684
  32.2594786  31.8043852  41.3008881  32.3117018  32.6244545  41.7917967
  32.9015231  31.9046593  40.5980682  27.3090315  39.4235802  29.5259190
  27.4517894  38.4832311  29.6335983  26.7417431  39.4933367  28.7580967
   7.6107866 104.3730068  17.9584944   8.2330066 104.9534512  18.3968532
   8.1249303 103.5980988  17.7317941  17.7351463  94.0469742  94.2564774
  16.8661714  94.0744209  94.6569347  17.5655544  93.8991356  93.3261013
  51.1332273   3.1251311  26.5295148  51.7344904   3.8692993  26.4990568
  51.2835169   2.6619011  25.7054615  41.3711691  34.8994589  49.1751719
  41.3026571  33.9848185  49.4489813  41.9140863  34.8735785  48.3872604
  18.3889973 108.6368179   9.9673653  17.7728736 108.0361557  10.3866875
  18.2711661 109.4646168  10.4332876  26.5365219  43.2133532  46.2376785
  26.7199874  44.1414309  46.0919189  27.3973131  42.7947950  46.2289858
 114.7401428 105.8929825  46.1069155 114.5868015 105.8033085  47.0474911
 114.9493408 105.0064468  45.8127594  58.1780577   8.9367712  28.6442494
  57.6076221   8.6766595  29.3675590  58.3710146   8.1191576  28.1854391
  35.8994269  31.1159635  33.6079097  35.0171399  30.7912207  33.7877560
  36.4584470  30.6457019  34.2264438   5.0428408  22.2134376  48.7798405
   5.9008306  22.0813489  49.1831255   5.2227235  22.7403736  48.0012417
  43.0282354  34.4824553  28.6795878  43.7677622  34.0078926  29.0592289
  43.2766819  35.4045749  28.7444091  37.6398325  48.1342554  48.5699368
  38.3360291  48.1181431  49.2266607  37.7522755  47.3186970  48.0816221
   0.2190768  75.3640747  95.3516293  -0.4467500  74.8621941  95.8217525
   0.3689753  76.1348200  95.8990860  29.9761224  22.0458055  44.5819569
  30.3843212  21.3129187  45.0429153  30.7118201  22.5791240  44.2810440
   8.4606409  19.3248308  27.8367901   9.0886426  18.9826345  27.2005916
   8.4672260  20.2713776  27.6945257  74.9682045  57.4100542  85.3505325
  75.0998592  58.1179285  84.7198105  75.4942036  56.6859341  85.0111198
  49.9403000  26.1853313  30.9013939  49.8886156  27.0723486  30.5453563
  49.0299225  25.9402251  31.0668254  10.7997477  37.5565767  22.7224350
  11.1733568  37.7343702  23.5855913  11.5561581  37.3591018  22.1700978
 116.0672569  29.6806979  28.8999295 115.6734467  29.0279651  28.3210635
 115.4861832  29.7083831  29.6600723  28.8806295  34.7340059  27.1127868
  29.0933728  35.6508064  26.9382858  28.0248237  34.7639370  27.5404906
 103.9354229 100.0609207  27.5340915 103.5038757 100.8943653  27.3460484
 103.6711597  99.4868183  26.8152070 109.4069672  93.2398510  94.9073982
 109.7871208  93.9749622  95.3883457 108.7259769  93.6358833  94.3636703
  26.7364073  18.7528884  17.3982573  27.0976758  18.3823097  18.2034838
  26.4396501  17.9932797  16.8970966  40.6531811  93.8856220   7.4141890
  41.5072727  93.9894676   6.9946963  40.8406878  93.9242935   8.3520472
  72.1128941  74.9470282  82.4209499  71.5394115  75.4327583  83.0137539
  72.7619123  75.5899811  82.1352482  44.0221691  38.3800840   9.1870862
  44.1591883  37.6081014   9.7361761  43.8278151  39.0832973   9.8067248
  41.1493301  35.5072546  26.4649940  41.8991804  35.6016350  27.0524049
  41.5099525  35.6546974  25.5906677  15.0734627  32.1426296  40.2728033
  15.2818108  31.8301511  39.3923593  14.1603756  32.4244142  40.2171135
  26.1218047  79.8431683  31.1317253  26.5977597  80.5792904  30.7472587
  25.1991510  80.0823593  31.0438132  66.8622255  19.5148253  15.6163478
  66.2132120  19.9582410  15.0700951  66.8930674  18.6214042  15.2741790
  39.3937707  65.6275940  15.6652355  39.4016647  65.2278757  16.5349472
  38.6459374  66.2248039  15.6828952  39.4722533  31.4926052  46.7385483
  40.0125217  32.2248507  46.4416409  38.8816094  31.3181853  46.0057783
  48.1150055  24.3205285   6.5262914  47.7846956  23.5167098   6.9275439
  48.9851952  24.4383264   6.9072443  32.8950906   7.9341966  50.2223253
  32.4198675   7.2188938  49.7995567  33.6743903   8.0573064  49.6803188
  31.8646049   0.3743583   5.7934570  31.5033913   0.9121044   5.0887680
  32.4806142  -0.2126614   5.3550822  18.8486743  56.5387821  42.2943258
  18.8540363  56.8261385  43.2073593  18.8831091  55.5834723  42.3436880
  14.4833457 104.2190742  14.7120905  13.7607229 104.4960213  14.1487551
  14.5071769 103.2665920  14.6202266  65.2366924  59.6389771  76.2272596
  65.0806856  58.7048626  76.3662672  64.8544359  59.8204803  75.3686762
  57.9776716   5.5720967  52.8458023  57.2212934   4.9856952  52.8617191
  58.4797668   5.2946270  52.0795488  31.3428020  50.6559467  36.0822392
  31.1493707  49.7185135  36.0881829  31.2359405  50.9283352  36.9936204
  30.2003789  57.1239185  35.4693079  30.9815383  56.6404581  35.2004504
  29.9172473  57.5810385  34.6774054  32.0522285  27.0705891  12.3160505
  31.3384533  27.2390485  11.7009258  32.5124860  26.3162613  11.9481039
 115.8790874 108.3939838  52.7206230 115.1815128 108.1016541  52.1339655
 116.2471294 109.1652679  52.2894621 103.2062531  14.3233418  88.7501431
 103.3675671  15.0887203  89.3018723 104.0793419  13.9995325  88.5285473
  28.1212258  26.4822221  40.8467484  27.2371554  26.2655210  40.5506229
  28.0086684  26.7551041  41.7572927  28.4402728  27.8444839  15.0797379
  29.3838644  27.9042387  14.9304163  28.1795120  28.7328362  15.3227746
  19.8346627  33.7903118  41.9523430  19.0942097  33.2011628  42.0968008
  20.6005192  33.2827234  42.2207642  36.8272519  19.0553331  28.3488178
  37.2404552  18.7663281  29.1624331  37.3204327  19.8349607  28.0935025
  39.7293663  24.1443658  12.9441214  38.9549375  23.9791632  13.4818947
  40.1937914  24.8450851  13.4018695   9.7834444  27.8012800  33.6604571
  10.4503274  27.3494577  34.1775179   8.9671272  27.3501325  33.8756871
  11.8121839  99.8050594  45.1336432  10.9429121 100.0498867  44.8163795
  12.3345280 100.6016636  45.0398254   8.4473991   2.8463095  22.3116875
   8.1201041   2.0675546  22.7618551   9.2558432   3.0680245  22.7737403
  64.0551805  97.5267220  79.0467262  63.9359140  98.4631920  78.8884830
  63.1698036  97.1940136  79.1938400  39.1326976   1.1501004  79.3924618
  39.9471974   0.6855696  79.2000246  38.6111498   1.0595356  78.5949516
  57.4933720  33.4231043  45.4188395  56.5922308  33.1931782  45.1923180
  57.4869156  34.3778110  45.4875755  19.9205935  30.9315991   4.1540089
  19.4692349  30.3732252   3.5209808  20.3625655  30.3187394   4.7416276
  15.1152849  41.8582010  33.1579804  14.6190131  41.0821247  32.8978705
  14.9124932  42.5086308  32.4856353  27.5196433  47.9740238  36.0203052
  27.8863120  47.1094704  36.2056136  26.7642283  47.7985620  35.4592443
 104.0089893 106.8093491  33.8667536 103.9263153 106.7788315  32.9136205
 104.6272755 106.1092567  34.0760756  45.0292826  28.3303428  37.1796417
  45.8736229  28.5144639  37.5912499  44.3962383  28.3883643  37.8952694
  49.4513416  30.9601355  13.9135969  48.5469341  31.2625623  13.8310182
  49.6033049  30.4408979  13.1239557  22.9206085  29.6583343  12.7883482
  21.9798064  29.4821239  12.7969205  23.2856035  28.9828491  12.2167444
  15.0786126  15.8810687  40.0769520  15.1077712  15.4206371  40.9156322
  15.1627266  16.8060315  40.3084707  75.5080843  65.7965136  94.5541191
  75.6697989  65.1177597  93.8988590  74.8877525  66.3921833  94.1338730
  36.3866520  29.2389512  71.0523462  36.3903809  29.7502851  70.2431774
  37.0379305  28.5530710  70.9052563 109.6279812  10.3122985  50.2569389
 110.2833748   9.9600613  49.6547604 108.7981606   9.9501306  49.9463558
  25.1229215  12.6867104  19.4862878  25.1990008  11.8976629  18.9497721
  25.9612370  12.7465916  19.9444103  15.5999315  41.4451599   0.2104516
  15.8713651  40.5343342   0.3242661  16.0542285  41.9192791   0.9069116
  73.5073328  73.4633160  87.6188850  73.9687586  73.4703302  88.4574986
  73.8557911  72.6988602  87.1601677  44.6703100  37.4846983  54.6730947
  45.2793694  36.8183804  54.3548250  44.4007444  37.9582644  53.8861418
 118.2890797  36.4272404  24.8462749 117.7763081  36.1221576  24.0977931
 117.6516628  36.8640018  25.4112315  23.4908700  26.5836024  48.3021402
  24.3456411  26.3058591  48.6314678  23.6931252  27.1371794  47.5478983
  94.2868900  14.6868396  45.6006384  94.1269207  14.5319963  44.6696901
  94.9296761  15.3958869  45.6185150  35.4451132  41.5372133   8.5638285
  36.3696289  41.3251019   8.6923265  35.0144815  41.2226343   9.3587047
  35.6660557  99.9549484  87.8038692  35.2951646  99.0833855  87.6658440
  35.8091903 100.0074291  88.7488461  31.8466949  10.7346988  64.1579914
  31.7807651   9.8078787  64.3879700  32.1258235  11.1630070  64.9672318
 114.4264126  94.3166828  39.2673945 115.1616478  94.9286175  39.2327070
 114.7515106  93.5269356  38.8351393  43.8496637  47.2337437  47.6221800
  44.1605139  46.3287115  47.5992393  43.0994558  47.2444534  47.0277882
  26.2345147  20.5390143  20.3397393  25.4417682  20.9935308  20.6246901
  26.4232945  20.9054685  19.4758511   0.4232879 110.1331615  52.4966669
  -0.0282213 110.8447647  52.9505301   0.3668711 109.3911743  53.0987549
  39.8584270   2.0067328   7.5551671  40.6767893   2.4476369   7.3268676
  39.5463085   2.4688998   8.3331233 118.1750774  92.0990753   8.1268162
 117.3209095  91.9048405   8.5126966 118.1815815  91.6128445   7.3023361
  32.5966263  29.4398856  21.5320921  33.3892202  29.1318846  21.9715929
  32.0217943  29.7208738  22.2440219  52.1281385  10.9247673  42.2034454
  52.8140640  10.4455268  41.7386150  51.8438959  10.3262675  42.8942680
 109.1758633  94.1260815  11.5006983 110.0145721  94.5870113  11.4819384
 108.9098072  94.0754414  10.5826139 108.5082436  42.7406883  65.8411694
 108.2893562  42.0293856  65.2392054 109.4373512  42.9095221  65.6846666
  12.0739377 109.8586750   6.2609553  12.4492073 109.0606785   6.6332698
  12.8101850 110.2896976   5.8269179  74.2084742  76.9556189  82.6956367
  75.1590919  76.8716431  82.6214409  74.0115547  77.8051901  82.3010731
  44.5019722   1.7309307  16.4536202  43.5914993   1.8042703  16.7397892
  44.4550133   1.7515571  15.4977953  28.8021803  36.9402003  35.4329610
  28.2544589  36.2073302  35.7142687  29.4944549  36.5351248  34.9105597
  95.9627628  97.6355648   3.8508871  95.3961468  96.8694973   3.7596199
  95.3700829  98.3828449   3.7700030   1.7817859  17.8896773  45.5488920
   2.2525847  17.6393509  46.3438225   0.8994033  17.5400567  45.6729841
  39.2657566  20.2819872  54.2168093  38.4215760  20.1162148  53.7971544
  39.9103093  19.9161768  53.6110353  48.7131214  22.1359110  59.5709801
  49.6210241  22.0720339  59.8674154  48.2435989  21.4876676  60.0959206
  36.5330291  34.9768162  31.2219167  36.7281556  34.8802829  32.1540308
  35.6155896  34.7160673  31.1410093  35.5836749  17.4587238  13.8743103
  35.3263354  18.1194568  14.5173037  36.0943747  17.9424167  13.2251120
  69.7918367  79.9797058  94.1860676  69.7444677  80.9344959  94.2346287
  69.8710585  79.7910738  93.2509899   4.9267587  94.9582291  51.2376928
   5.4710776  95.6567764  51.6009951   5.2395755  94.1624832  51.6679955
 107.9039764  58.0776739  93.4547710 108.1377316  57.1995926  93.7557125
 107.0269775  57.9783297  93.0843163  63.5364437   8.4455293  11.0190666
  63.2341099   8.5533303  10.1172876  63.5057974   9.3278050  11.3890409
  31.8872952  60.5109310  28.5212922  32.2823715  61.3489389  28.2807016
  31.9918942  60.4608250  29.4714403  46.9315004 106.2308884  93.1688118
  46.2310553 106.5161514  93.7555313  46.9365406 105.2769756  93.2478809
  27.4820065  26.3229132  67.0970631  28.2156467  26.7134333  67.5719309
  27.7798295  26.2813687  66.1883211  32.7349257  60.8501482  39.2276502
  32.4678016  61.3876104  38.4819889  33.4001327  60.2608442  38.8720441
  45.3840399  45.3409243   6.6404366  45.7446766  46.2270451   6.6715151
  44.4377565  45.4696083   6.5754259   2.2173546  17.2355282  34.4771671
   2.0284165  16.6457224  33.7473297   2.0141199  16.7219555  35.2589417
  35.1191735  24.5878887  40.6027603  36.0177946  24.8885989  40.4675484
  35.1892233  23.9250731  41.2897825  41.1607456   2.7547827  28.5185289
  41.1545563   2.1059738  27.8147960  41.2866640   3.5917807  28.0715275
  14.2112720 107.9120445  41.0878420  13.3957267 107.4114323  41.1103821
  14.2603481 108.2497883  40.1935577  44.5021677  33.2735777  20.2290106
  44.1167927  33.3333492  21.1031651  45.1582575  33.9702463  20.2083516
  45.8630085   9.8056334  38.1702304  45.1606131   9.9681127  37.5405717
  46.6416359   9.6690017  37.6305032  58.1970739  58.4123278  16.7770803
  58.8717365  58.4265280  16.0982108  58.3941984  57.6314354  17.2943568
  95.5457497  94.7849083  82.0557022  96.2615108  95.1569271  81.5404129
  95.5790806  95.2569771  82.8877354  42.1974373  23.3422112  25.6841421
  42.8906393  24.0020084  25.6647563  41.7140007  23.5263157  26.4895177
  35.7464981  46.8475151  25.8738089  35.1125336  46.1591053  26.0748339
  35.2636170  47.6635218  26.0049295  14.0545833  37.6646471  60.8167982
  13.7936938  38.5631204  60.6145334  13.2321835  37.1752906  60.8372736
  82.2434902  69.8954868  94.5960999  82.8708935  69.1957045  94.7775269
  82.7725983  70.6929636  94.5786858  50.0805521  44.4290257  19.3786776
  50.0129175  43.9585733  18.5478139  49.4274282  44.0145302  19.9424672
  37.7193236  50.1063251  38.8737011  37.6905942  49.3688536  39.4832444
  37.3506474  49.7599268  38.0611038 108.7583733  25.0864148  36.3887239
 108.8922977  24.4405723  37.0823956 109.2576694  24.7470975  35.6458974
  63.2618237  33.4729004   9.0855068  62.8360271  34.3263578   9.0046406
  63.5758448  33.4465837   9.9893486  34.7574425  26.2738776  14.4897532
  34.4705915  26.9956684  15.0491893  35.1071668  26.7012286  13.7078989
  48.7003040  55.5477715   4.2493081  49.0621901  54.6621752   4.2807454
  49.2399168  56.0488605   4.8608312  17.9437578  20.3588176   1.6604309
  18.8939703  20.2435088   1.6548416  17.7627969  20.8933020   0.8872484
 116.7181683  30.5746627  47.5325632 117.5150585  30.0626612  47.3945236
 116.4033031  30.7702899  46.6500568  31.6867590  15.0998902  17.4634600
  30.7653284  15.2001214  17.2244036  32.1099329  14.7916305  16.6621292
 103.4568596   6.0198832  71.0351706 102.5973988   5.7473695  70.7137775
 103.3620358   6.9565946  71.2078333  21.7629051  21.5349078  29.7153258
  20.8135176  21.4149046  29.7375727  21.9081688  22.1653509  29.0098667
 110.6790638  49.3188334  28.5320759 111.4546871  48.7580061  28.5425758
 109.9475479  48.7136555  28.4100938  97.4937248  93.8918686  13.0059266
  98.0219460  93.5568142  13.7304580  97.2767830  94.7882462  13.2621896
  65.7339907  28.8598490  46.1229324  66.3247728  29.5664167  45.8622122
  65.8969307  28.1641245  45.4860306  29.4109988  96.6046524  19.1467106
  29.7749519  96.8458176  19.9985373  29.8490453  95.7835197  18.9228845
 108.6880493  40.2313423  51.1659908 108.1329250  39.4814777  50.9520388
 108.1243515  40.9930134  51.0305738  47.6368809  29.8617697  31.1637926
  47.0840168  30.2396417  31.8477440  47.9754686  30.6179833  30.6844902
  36.3297415  12.9033887  21.2403202  35.5273938  13.0093348  21.7514420
  36.2426066  12.0412421  20.8336973  85.2510452  43.2139635  24.4937491
  84.4982147  43.4699631  23.9608908  85.6539536  44.0426636  24.7528982
  38.8438559 100.7077694   2.0434879  38.3765435  99.8794365   2.1516712
  38.7344360 101.1558151   2.8822467  35.8856201  40.8869743  43.5712099
  35.4545140  40.2671051  42.9828691  35.9536910  41.6938972  43.0608463
  51.9119310  26.7612338   2.2932607  51.7821980  27.4179769   1.6090885
  51.0291386  26.5637040   2.6061326 103.1175041  37.5096679  68.6737013
 103.9465046  37.8132200  69.0436316 102.4991417  37.5544167  69.4029856
  43.2439709   8.5262531   8.0710685  42.9481506   8.6767662   8.9688802
  43.9722872   9.1361314   7.9534459  78.8978767  91.7423820  93.6477375
  79.0544748  90.8508110  93.3366108  78.0671883  91.9943714  93.2443905
  18.1584692 110.0559425   7.1298468  18.5158968 109.1689587   7.0882058
  17.2559595 109.9368382   7.4256879  85.8039665  71.2499428  88.1288242
  86.4634228  71.0142136  87.4763107  86.2376881  71.1071634  88.9700890
  18.3676851  41.3793850  21.6960311  18.6344874  40.4922962  21.4549446
  18.5341370  41.9012260  20.9110427  54.2464399  36.4171457  13.5886717
  55.1935387  36.2806487  13.5641158  54.1437197  37.3519087  13.7672710
  19.8497629  41.3864851  10.9496272  19.4765913  40.6246805  10.5062008
  19.1741312  41.6563129  11.5716791  39.7404504  29.6292734  40.1187277
  38.9349508  30.1446414  40.1611137  39.9809909  29.6365809  39.1922712
  68.8379669  82.4388313  94.7419643  68.8003540  83.1855106  94.1442204
  67.9792118  82.4268818  95.1646137  33.4809136  62.8709507  28.1858444
  33.3937144  63.7866211  27.9209399  34.3750596  62.6344061  27.9393077
  25.0637269  44.3132448  37.5074291  24.3403816  44.9361849  37.5777650
  24.7509098  43.5307264  37.9613471  77.2395563  76.6319513  80.1243687
  77.8981733  76.1354685  79.6386051  76.9275856  76.0240269  80.7946873
 106.7075348  11.5824413  93.7248230 106.1874008  10.9524155  94.2235851
 106.5264606  12.4252343  94.1409302  19.8496687  16.6214907  16.5867174
  19.5230830  16.3325930  17.4388397  20.7936478  16.4682877  16.6275203
  61.7098999  47.9026318   5.8268416  60.7874918  47.6653290   5.7315552
  62.1614218  47.3796701   5.1643640  56.9393778  30.4731679  40.7074690
  56.7460728  30.8568120  39.8520827  57.4493885  29.6880722  40.5081129
  79.1992903   1.7835127  31.4032149  79.7111607   1.4696233  32.1486640
  78.7589025   2.5686151  31.7286468  53.1386375  26.6695786  23.9136076
  52.3605680  26.9849968  23.4538746  53.1293440  27.1371293  24.7487974
 108.1151962   3.3404732  88.4814644 107.6410866   3.3496568  87.6499748
 108.1149387   4.2539597  88.7674236  31.8873000  29.0010786  39.5118356
  32.4172616  28.4482527  40.0860786  31.2395740  28.4047270  39.1362691
   7.7369726  38.6193991  34.0987062   8.4795195  38.7698722  33.5137153
   7.1043062  38.1396103  33.5641360  59.4880915  23.9493895   2.8359544
  58.8533688  24.5168352   3.2734057  59.8280764  24.4806981   2.1159869
  53.9584017  25.6363583   0.5542910  53.2325792  25.8669543   1.1341531
  54.7424698  25.9026647   1.0344473  64.9524260  51.1117887  19.3172634
  64.1773272  50.5667353  19.1817296  65.6370831  50.4946232  19.5752859
 116.1401653  30.6938648  34.4710922 115.8129883  30.4399800  35.3340697
 117.0153904  31.0427451  34.6398854  55.3378534  32.5951385  26.3138151
  56.2209320  32.9618144  26.2696266  54.8534584  33.2037115  26.8716931
  77.0205021  52.8920650   5.5432981  76.8297052  53.1212521   4.6337372
  76.5793467  52.0530987   5.6764984  52.6917887  86.5589619  84.1477966
  52.3489809  85.6900501  84.3568230  51.9824076  87.1584129  84.3794823
  10.9944379  11.3858855  79.6523285  10.5111849  11.3400722  80.4773140
  10.8439827  10.5356944  79.2390823  68.6934900  17.8361666   5.9397709
  67.8834820  17.4403524   5.6181324  69.2738390  17.0931911   6.1053431
  74.4617128  29.3806720  15.5241883  75.1766300  29.0485191  16.0671473
  73.6830091  28.9308572  15.8520901  33.2609296  38.8541818  23.4729314
  33.3012462  39.6045852  24.0658045  34.0578914  38.3580875  23.6599469
  79.8445940  85.5558968  90.8331871  79.5265293  85.1388359  91.6338921
  79.3525553  85.1314735  90.1303387   7.2198385  36.7112637  29.1398454
   7.9487509  37.3225594  29.0338516   7.5900108  35.9807491  29.6353769
  93.2166767  27.8357196  90.2428818  93.1827927  27.1752858  89.5508480
  94.0248775  27.6432514  90.7182693  48.8368320  20.2248406  31.8946576
  48.5339355  20.0411725  32.7838993  49.3409014  19.4492888  31.6483521
   1.9071843  27.2917438  17.7419245   1.5772429  26.7372870  18.4489942
   2.4957503  26.7226076  17.2460341 116.2727737  32.2344542  13.4118688
 116.3713551  32.0290709  14.3415630 117.0369530  31.8352509  12.9960501
  46.7278194  44.7087145  26.8015385  46.1235142  45.1769924  27.3775268
  47.5024509  44.5538807  27.3420978  65.7537937  19.7384012  31.4453101
  65.5577230  20.4501295  30.8360219  64.9151421  19.5431268  31.8633580
  26.4498138  82.0720673   5.1658577  25.6761098  81.5088654   5.1454794
  26.6074872  82.2957134   4.2486051  48.9295959  42.8422928  10.7204127
  49.8325157  42.5325775  10.6493819  48.9612007  43.7463903  10.4076087
  22.9711604  37.8131938  26.0459781  22.2064066  37.2715545  26.2409401
  22.8788805  38.0330729  25.1189566  46.1072493  41.4542246  28.0051064
  45.6690645  41.7105913  27.1936250  47.0201445  41.7114592  27.8759527
  53.8501072  40.3062630   6.8504018  54.3356276  40.7833385   7.5233769
  53.3447933  40.9805536   6.3962817  95.4532337  99.5516682  95.6098175
  95.6195927 100.3522396  95.1121807  94.5465755  99.3250370  95.4028320
  73.8322210  31.9286704  16.3387871  74.1251564  31.0250950  16.2205720
  73.4084272  32.1533751  15.5104530  49.1814566  38.7741280  50.9646368
  49.8581123  39.3145728  50.5568504  49.2786407  37.9163003  50.5512142
  66.9852829   2.1485904   2.1833830  66.1477089   1.9969977   1.7455196
  67.6262808   2.1715739   1.4728734  54.1337824  46.1402893   0.1676737
  54.9196815  46.2003517  -0.3754488  54.4645309  46.1146116   1.0655473
  83.7947559  40.6343889  13.4960473  84.5246506  40.7869434  14.0962315
  83.1189156  40.2287054  14.0390801  64.1555071  19.6647537  45.8453226
  64.7629213  19.9807131  45.1764059  63.3106136  20.0408840  45.5985069
 114.0246868   9.8477775  84.6735668 114.2761040   9.7200590  85.5882835
 114.5710945  10.5744505  84.3742085  81.0056114  80.6676960  75.9039021
  80.7777405  81.2133121  76.6566372  81.8494987  80.2800083  76.1358070
  10.9449887   3.9529312  52.8674984  10.5573070   4.2895308  52.0596409
  11.0208714   4.7203070  53.4346008  17.2928631  31.8353319  16.3858628
  16.6296279  31.3510942  15.8940661  18.0433488  31.2424016  16.4237487
  51.1274815  38.4036899  15.1177454  51.7629862  38.6625123  14.4503808
  51.2730789  37.4650335  15.2358866  98.1278992  83.5693932  95.8030033
  97.6928043  84.0395164  96.5142727  98.7478161  82.9884052  96.2438965
  13.8656211  39.6656013  15.7388711  14.0825045  39.1467190  14.9643040
  13.9164484  40.5737591  15.4407132 112.0249081 100.1728821  90.0931454
 111.5205765  99.3594265  90.0804424 112.3495674 100.2674198  89.1976643
  40.7398224  69.9886131  33.2867360  41.1293030  69.1173887  33.2125568
  40.6475306  70.1302862  34.2288828  22.7190208  72.6477814  55.0023556
  23.6593080  72.7847862  54.8869419  22.5939965  71.7099857  54.8569775
  55.2434349  30.1600957  19.1461205  55.8670378  29.5511413  18.7504911
  54.9439478  30.7034492  18.4172130  36.1721492  61.2770176  28.0341291
  35.8398318  60.6092310  27.4342489  37.0864654  61.3962078  27.7771211
  15.9761703  20.6098866   5.7871258  16.7255783  20.2050543   6.2238550
  15.3001785  20.6543446   6.4633584  45.6931734  68.9163351   0.9993674
  46.6225529  68.8116407   1.2031398  45.6399202  69.7602081   0.5507306
  36.2100720  50.9998655  18.1990969  36.0370803  51.9364262  18.1033993
  35.8383441  50.7735252  19.0516353  13.6939406  17.4771631  54.7086477
  13.0761111  17.2785532  55.4122591  14.5563841  17.3627627  55.1078176
  32.3614478  31.3520694   4.9211296  32.4087262  31.9498587   5.6672150
  31.8306756  31.8174148   4.2746267  39.7353888  58.7304974   6.3372719
  40.2458525  58.1040001   6.8502641  40.3858709  59.3378544   5.9848237
  71.1533594  58.8037109   0.3404156  70.4539013  59.1566706   0.8903332
  71.9593811  59.1366243   0.7350427   2.9850116  42.6834202  26.8920779
   2.9563695  41.7626238  27.1519637   2.7453783  42.6783037  25.9653735
  59.2327690  61.1639357  27.3192549  59.8895931  60.9265184  26.6646934
  59.5076370  62.0255423  27.6328039  28.6568046  43.1377888  34.3727660
  27.8357315  42.9077244  34.8076725  29.3143129  43.1008959  35.0674272
  70.2991199  23.4172821   4.7221658  70.8898973  23.3322024   5.4704815
  70.3849602  22.5870204   4.2536300  61.8581676  49.8654366  11.7636526
  61.1549044  49.9400997  12.4086928  62.6455069  50.1375198  12.2351432
  23.1487656  45.6603193  28.9333797  22.3449922  45.2548552  29.2586184
  22.8476334  46.3310575  28.3204699  58.8285065  37.3289847   4.8207003
  58.3425713  37.8151536   5.4868364  58.1576967  37.0240164   4.2097652
  53.7199688   6.4445508  15.4117966  53.9403296   7.2227228  14.8998177
  54.0959311   6.6120493  16.2759900  43.9109802  48.2411814  32.1465015
  44.0301943  48.6045361  31.2690067  43.1863642  47.6227379  32.0532370
  74.7763491  97.0652008  88.2300186  74.3039274  96.9144726  89.0487576
  74.1982889  97.6335907  87.7210903  42.3215151  17.6005864   9.0088439
  42.4212265  17.5775754   9.9605578  42.5910807  18.4850001   8.7610930
  19.6961808  35.8044100  39.8510218  19.3835557  34.9885750  40.2420616
  20.3701210  35.5292535  39.2294717  37.2712016  57.5141144  17.9307604
  37.5517535  56.9062138  18.6148489  37.9789114  57.4929810  17.2866082
  38.9336348  35.1210976  51.7982721  39.0157270  35.3287888  50.8674908
  38.0846262  35.4840112  52.0506811  90.2496338  86.8145466  95.9848022
  91.1143684  86.4617538  96.1945438  90.2425957  87.6844978  96.3840103
  87.8153229  58.1884575  91.0365772  88.0659771  58.9588451  91.5463924
  88.3247662  58.2593441  90.2293015  34.6516132  32.5635195  36.2969255
  34.2865705  33.1028008  35.5953908  34.4038463  31.6685820  36.0646963
  31.9372630  35.6627965  15.9342670  31.3026643  35.2656794  16.5307677
  32.5911331  34.9787498  15.7901573  31.2271595  30.7326150  47.8269958
  31.8732309  30.3455186  47.2362518  31.7044783  31.4258790  48.2828331
  43.8438892  28.9243937  41.9856405  43.3286619  28.3394957  42.5412178
  43.7937880  29.7749090  42.4219275  13.2610416  66.1130476  57.9334688
  13.4360707  65.3480101  57.3854542  12.4728012  65.8807611  58.4243393
  32.1532869  33.9722919  18.1176603  32.8219795  34.6117520  18.3629644
  31.9815660  33.4843779  18.9230692  45.2064991  36.0018206   7.7680200
  45.6879616  35.4289079   8.3648437  44.9121714  36.7277360   8.3181560
  40.0405884  53.4126520  16.9945443  39.2511225  53.6645317  16.5154481
  39.7209001  53.1305361  17.8515387  38.4552526  32.0328283  24.0587401
  38.9376926  31.2735462  24.3858051  38.2298040  32.5301695  24.8449063
  46.6820097  18.3996844  39.9090290  47.3751640  19.0598106  39.9099660
  47.1464491  17.5646257  39.9656105  54.4765234 103.5196018  55.3754759
  53.5223866 103.5956383  55.3669643  54.7807026 104.2632294  54.8551559
  41.9312525  56.2356615  26.7659569  42.7698088  55.8183193  26.9631386
  42.1491623  56.9279814  26.1419010  58.5693932  17.3875117   2.2669627
  57.8056335  17.5368941   1.7096560  58.4777260  16.4812279   2.5610355
   9.8604536 103.8499451  48.3943176   9.0249813 103.4065342  48.5412979
  10.4459333 103.1602097  48.0817270  47.7662420  21.7354298  22.8125978
  46.8715000  22.0731831  22.8525424  47.9856396  21.5303588  23.7214661
  30.2465892  35.5112815  33.6405110  30.6868601  35.8556247  32.8634524
  30.8582783  35.6804204  34.3570733 116.2075329   9.3671829  25.1277232
 115.3803921   8.8854897  25.1207614 116.4516640   9.4105506  26.0522485
  35.9649467  68.2654285  18.9342499  36.3324761  68.8745165  18.2938075
  35.2598953  67.8202295  18.4642148  36.6823626  11.0071218   6.3586283
  36.1096430  10.6135249   7.0168889  36.0936332  11.2526953   5.6449592
  10.4331601  32.5488853  21.7872190  10.1728404  33.4131122  22.1059275
   9.6217048  32.0412016  21.7817473  22.7850389  29.4070888  35.9835625
  23.4897447  29.6742344  35.3934312  22.9806995  28.4936190  36.1921859
 100.8332729  76.7039728  84.2341805 101.6417313  77.1778917  84.0391827
 100.2775955  77.3484659  84.6724510  52.4182415  27.5957704   8.0707800
  53.2048941  27.7901840   8.5803074  52.6245022  27.8991055   7.1866548
  85.2564430  27.0474601   9.3362832  85.4453659  26.1109757   9.3957305
  84.3297005  27.0903492   9.1006172  33.5826135   8.4179145  92.6279926
  32.6938605   8.2681543  92.9503632  34.0432525   7.5979036  92.8058243
 114.8018169  57.4046946  47.6225996 115.1931095  56.8533945  46.9449663
 114.8751068  58.2950449  47.2788858  37.3449183  41.8174934  28.9365625
  38.0280995  42.4690485  28.7785220  37.7253437  41.2237406  29.5838380
  26.2126613  56.0580349   3.4082428  25.3693032  56.3460875   3.7575388
  26.2447381  56.4265823   2.5254196  46.8797493  15.1033664  38.7659383
  47.5088406  14.9392891  39.4684720  46.0239029  14.9946165  39.1805840
  42.5252581  23.5828924  15.9336305  43.2412863  24.2125750  16.0174942
  42.0097733  23.6986709  16.7318177  29.8451853  47.6678896  26.3393259
  29.7864366  47.2584343  27.2025347  29.2168140  47.1854115  25.8021116
  43.4711599  67.3984337  15.8739722  43.0487299  67.1692419  15.0461698
  42.8459072  67.9776669  16.3096154  27.0758510  40.9891224  23.3510661
  26.8397045  41.1322308  22.4345589  26.3054109  40.5698109  23.7342501
  94.2421246 109.7714424  91.3933849  95.1766205 109.5727921  91.3344479
  94.1191101 110.5200386  90.8096886  28.2836699  26.1242890  34.1368079
  28.2873106  26.5359044  33.2726359  27.3956871  26.2649179  34.4653463
  30.9697437  36.3688874  24.7056389  31.2839317  37.0303679  25.3220487
  30.0522518  36.2360263  24.9439406 109.3070889  39.2997503  25.9532094
 109.1621399  38.8541722  26.7878842 109.6874237  40.1441097  26.1953378
  72.6902819  15.3711188  37.9474068  73.0804396  15.3056371  37.0757866
  73.0053091  16.2081373  38.2885671  71.0010481  61.7239332  14.3611217
  71.3546228  62.6112175  14.2983377  70.8639002  61.4559078  13.4525061
  33.8624907  45.7308483  48.6286354  34.6567607  45.4601765  49.0891838
  33.1467009  45.3893280  49.1645813  74.6027708  29.0607333  61.2154722
  73.8992453  29.3627906  61.7899656  74.1863441  28.4128380  60.6470966
  75.7374096 103.0743694  86.3640404  75.1211119 103.7918091  86.2167740
  76.3595200 103.4205532  87.0038605 103.1996822  95.5112553  70.1971197
 102.3033142  95.7672215  70.4144526 103.2488728  95.5962944  69.2449713
  53.5544014  19.5741105  29.2009783  53.7829733  20.4565382  29.4930577
  54.0236568  19.4665968  28.3736491  84.2867851  44.8602676   7.8952944
  83.5243225  45.3988314   7.6835567  84.7984028  45.3969049   8.5006857
  35.0978565  32.8571486  17.5874591  34.5272589  32.5219178  16.8958879
  35.0626230  32.1889544  18.2719350  98.1880188  68.8788033  91.1952782
  97.7602482  68.0863523  91.5197372  98.8480759  68.5598087  90.5798149
  74.1002560  18.0069125  21.1081529  74.2905235  17.0692444  21.0797501
  74.3172932  18.3220327  20.2307558  39.1637111  31.1673856  31.9509268
  38.8281584  30.2709341  31.9475293  39.1706586  31.4170241  32.8749752
  41.8071938  64.8664999  26.9657493  41.2350941  64.6400595  26.2324977
  41.5888882  64.2290211  27.6455998  54.4547558  55.1843309  10.4061437
  54.4731522  56.1264133  10.2376747  53.9596701  55.0962973  11.2206209
  25.9026337  20.6502342  37.0149374  26.2977362  20.4246092  36.1727858
  24.9610519  20.6593609  36.8429732   2.8510010  38.9721227  32.9058194
   3.4532973  39.4529390  33.4735227   3.2101047  39.0846419  32.0256972
  40.0983143  47.7891588  49.8024607  40.7783604  48.2132626  49.2790985
  40.1524448  46.8643761  49.5614529 102.2462082  99.1106510  10.0992036
 102.0568848  98.1733894  10.0552166 101.3867569  99.5253468  10.1740241
  25.6409144  43.2781982   7.5946885  25.1029086  42.8603172   8.2671136
  25.0819445  43.9666224   7.2343373  47.4496651  33.5659122  44.7843933
  47.8243494  34.3714523  45.1406860  47.5183201  33.6691809  43.8352585
  16.1199737  65.0958586  32.2590327  16.6057765  64.3206739  32.5406647
  16.0828209  65.0218678  31.3054204  92.8586483  89.2931080  85.6937790
  93.3052254  88.9129353  86.4502621  93.5020828  89.2450714  84.9867344
  48.2003736  17.1593809  22.4196529  47.5134325  17.7146387  22.7884769
  47.7452755  16.6037989  21.7868447  97.8063774  62.0518541  91.0363293
  98.7349319  61.9079399  91.2188339  97.6041698  62.8835726  91.4648056
  66.4952421  28.5047221  22.3041153  65.6586456  28.9682961  22.3420334
  66.9312429  28.8603544  21.5297365  41.6212702  51.7254686  12.3008442
  41.5512800  50.7955980  12.0847940  41.9216585  51.7382669  13.2095981
  51.8710470  68.0952215  35.7331443  51.4381599  67.4369669  36.2767863
  51.3322067  68.8800621  35.8326793  92.0894241  58.3839655  17.9583609
  91.2718105  57.8979301  18.0656075  92.6537800  58.0613327  18.6609602
  35.6127357   6.9658399  15.7833648  35.8142161   7.8533322  15.4867256
  34.6569014   6.9182640  15.7646728  27.1262097  38.3068848  10.0989318
  27.0057917  37.4394894  10.4854000  26.5150166  38.3279562   9.3625689
  54.6102047  53.5102034  15.2659988  54.6055937  52.7152061  15.7990921
  55.4413414  53.9354229  15.4772544  71.2283611  43.1222391  15.6114078
  70.8046484  42.7412558  14.8422837  70.8504677  42.6484871  16.3523436
 117.2516060 105.6145000  63.2199621 116.4978123 105.0251389  63.1940889
 116.8721485 106.4829350  63.3543348  17.9065073  23.9953828  31.4001775
  17.6592505  24.8934984  31.6203666  17.7257824  23.4952378  32.1960568
  43.4316874  25.6853724  25.3768897  43.2064056  26.6125059  25.3000522
  44.2464828  25.5951238  24.8827267   6.3822544  30.2428055  77.9502821
   5.6341732  29.8510098  77.4996138   6.5160757  31.0811138  77.5080633
  44.4430780  26.9987464  34.7348022  43.5338545  26.8291044  34.9813032
  44.8286057  27.4088693  35.5090117  39.6141148  32.2799349  15.7979929
  40.1612997  31.9388509  16.5054393  39.9461651  33.1642962  15.6434727
  82.1214104 105.0135899   3.5906783  82.9899120 105.3205013   3.8509366
  81.7026520 104.7553349   4.4117615  60.5669975  53.6662579   5.4450494
  59.9325848  54.3759203   5.3444213  61.3062382  54.0686941   5.9008998
  79.9828768  94.2729950  88.4042835  80.4946327  94.8195934  87.8079891
  79.1575384  94.7453594  88.5134411  46.3923693  52.3988295  10.0258589
  45.8337164  51.7624092  10.4720700  45.8145571  53.1406164   9.8466402
  55.6723785  71.7234278  11.1608517  55.4964304  71.9065332  12.0837522
  54.8122883  71.7559385  10.7420146  64.5644093  59.3414211   1.9159722
  64.1752243  59.6203184   1.0871270  63.8544512  59.4217062   2.5529516
  60.7872725  19.4164371  10.2750671  60.6681490  18.8426089   9.5182550
  61.4327288  20.0619078   9.9869949  75.2901888  60.6381130   5.7991695
  74.7102404  59.8997068   5.9853148  75.0070763  61.3235188   6.4043957
  73.1682158  18.6408246   4.1801009  73.6276436  18.1951249   4.8917952
  72.9127359  17.9379237   3.5826975  30.3672099   5.2532804  82.0050716
  29.7652531   5.7648659  81.4645576  30.0563288   4.3517727  81.9221878
 111.3747978  40.1940250  89.6279335 111.5521336  40.7700729  90.3715420
 111.1603165  40.7892656  88.9096642  81.2612247  75.2658939  26.5043902
  81.8358421  75.9834385  26.2375975  80.5191612  75.6979227  26.9273901
  32.5694370  54.9560785   8.9712495  33.1225109  54.2855406   8.5703552
  33.1501698  55.7082558   9.0862042  40.1057005  73.1120062  11.2476814
  40.6861353  72.4233484  11.5718412  39.3857002  73.1347704  11.8780088
  54.3056107  29.9745297  24.0547943  54.6375561  29.5221972  23.2792687
  53.7875462  29.3136024  24.5141602  38.6190987  37.4416232  27.5821447
  39.2233777  36.6995430  27.5622416  38.9210916  38.0153680  26.8779802
  64.4589520  88.9105034  33.7576008  64.3307829  88.7687874  32.8196645
  65.3845596  88.7161350  33.9049149  89.3472767  32.8211546   8.7650645
  88.6318398  33.4552526   8.7171030  88.9129829  31.9683146   8.7481511
  66.6017008  47.8807163  10.3434265  66.9152308  46.9765186  10.3622699
  66.6971970  48.1483316   9.4293731  52.7651691  34.7570777  15.2129424
  53.2596016  35.3385305  14.6352899  52.3000813  34.1680455  14.6188343
  39.3433642  61.5106392  37.8833556  39.4484210  60.5720711  37.7275324
  38.4364390  61.6940832  37.6382637  96.6577339  75.0989771  91.5622711
  96.4947796  75.8213425  90.9557438  96.4582443  74.3115044  91.0559940
  41.9358253  42.9592085  20.5409479  42.2642469  42.2809601  19.9507308
  41.6596079  43.6685133  19.9605870  57.5346947  63.3293867  11.3157749
  57.3054266  63.6789083  10.4546702  57.2714138  62.4098444  11.2788689
  53.3275652  66.4167500  14.4773483  53.5961199  66.2586069  13.5723066
  53.8847637  67.1379519  14.7699797  36.5250492  54.7788906  21.1071992
  35.7379985  55.2629232  21.3571906  37.1587324  55.4568338  20.8725238
  14.2976701  23.6260319  92.0944691  14.3939543  24.1435528  91.2950134
  15.1469254  23.1990600  92.2071266  37.5981545  46.3810349  28.7489700
  38.3464599  46.9746017  28.8117981  36.8332577  46.9498682  28.8360858
  24.3466091  58.3635855  36.7481709  25.0131750  57.9121828  36.2303305
  24.6990299  58.3709574  37.6381040  69.4311142  31.1193299  30.5223465
  69.9139786  31.6667509  29.9031544  69.5564175  30.2264547  30.2009392
  40.9147501   3.1555131  84.0549278  41.2904882   2.3886776  83.6224747
  41.5228605   3.3503094  84.7680092  24.2976069  73.8948250   6.6082072
  24.8720717  74.6370220   6.7962748  23.4307241  74.2851305   6.4968055
  57.5336075  65.1791382   6.4290607  58.0969000  64.8879433   5.7120281
  56.6895914  65.3563547   6.0137737  18.9057302 106.4556313  67.8030252
  18.6112142 105.7698154  67.2037315  18.1283402 106.9939995  67.9515266
 107.7318668  94.7582817  82.2300816 108.4119320  95.0319958  82.8455639
 107.0070171  94.4719696  82.7858257  45.4026461  56.7336845  11.5486670
  44.4718885  56.7668533  11.7696345  45.4527473  57.1025133  10.6668019
  37.0606589  44.2625380  30.5461788  37.2445440  44.9367809  29.8921037
  37.8806043  44.1694021  31.0312009   4.8126376  34.8754048  28.1865335
   4.3729514  34.0608191  27.9429007   5.7305050  34.7300196  27.9571557
  50.6209421  42.2694540  44.6472406  51.0091019  42.9469061  44.0935040
  50.9398413  42.4679613  45.5276585  58.3872890  25.4535365  12.9017389
  57.4725771  25.4404569  13.1834543  58.5415792  24.5774865  12.5482345
  54.9811792  45.1435089  15.3981411  55.2236080  46.0309172  15.6626630
  54.0241289  45.1416016  15.4149628  59.6610880  69.9649715  15.0356174
  58.8743258  70.2719450  14.5850539  59.7146893  69.0346146  14.8169947
  59.1029453  36.7531490  12.4575257  59.2322731  37.6794267  12.6612830
  59.9278688  36.4785433  12.0571232  42.6195955  69.2071342   8.7544918
  42.7748871  68.3364630   9.1206098  41.8060255  69.1167116   8.2583445
  39.8766112  46.9396830  22.1545672  38.9756441  47.0468330  22.4595380
  40.2501726  46.2794924  22.7383780   5.5344254 109.6614265  93.2183647
   5.0795847 108.9753342  92.7298641   6.1385578 109.1878986  93.7902355
  26.6698003  47.3455715  59.5756292  27.4723887  47.4491119  60.0868654
  26.9729066  47.1060991  58.6998367   7.9185247  65.6771755  46.2019300
   7.6068902  65.4491758  47.0777893   7.1747553  65.4941177  45.6278849
  98.6772156  37.1295190  13.9243603  98.0892849  36.5008974  13.5055459
  99.2147255  37.4684358  13.2085085  97.1198368  47.5206518  81.0794163
  96.4914131  47.0804214  80.5071259  97.4068737  46.8401432  81.6883087
  52.0431566  20.2708626  10.8652413  51.9208097  20.5318928  11.7779982
  51.2044907  20.4642558  10.4463458  47.3652315  75.0324106  13.7176359
  46.5531158  74.5699835  13.9246726  47.1950769  75.9399557  13.9699173
  57.4037933  52.7164555   3.8257998  57.9573154  52.1174955   4.3268931
  57.9606199  53.4778929   3.6633441  48.5135174  43.3428526   3.9257360
  48.1804466  43.4484243   4.8168868  47.7846718  42.9541111   3.4421146
  48.1372547  66.2320709  45.0992727  49.0854692  66.1164474  45.1605368
  47.7970266  65.3489065  44.9561167  20.5217171  48.0926323  36.4759159
  20.1612020  48.0118370  37.3589396  20.6413841  49.0341091  36.3512826
  63.7031221  59.6076155  16.6165280  63.4540367  58.7997389  17.0654440
  63.8139582  59.3488550  15.7016563  71.4786100  48.4809160  15.0918126
  71.2327147  47.5563717  15.0603545  72.1873808  48.5185289  15.7340419
  34.0662050  51.5482187  21.4046884  34.7501326  51.9001293  21.9744563
  33.4731531  52.2852945  21.2589431  42.9575348  80.7641983  25.1770210
  42.9536629  80.0350666  24.5568728  42.0480537  81.0615349  25.2028060
  86.4457607  80.3721046  81.3928986  86.8271732  81.2486553  81.3436127
  85.7895565  80.4351234  82.0869160  75.5377769  78.4516191  95.0358772
  75.4725218  79.3192148  95.4349422  74.6345425  78.2177925  94.8220444
  11.1424768  31.5894890  26.3186193  11.6894472  32.0499372  26.9550490
  10.6589901  32.2840810  25.8713889  41.3034725  32.4674249   9.0071112
  40.3591347  32.3295712   9.0809894  41.4298153  33.3880615   9.2366761
  51.8445969  54.0170193   8.0366749  51.2519884  53.3276367   7.7370125
  52.3161697  53.6247778   8.7715214  62.0184231  48.9690018  16.6250908
  62.7176571  49.3176556  16.0721481  62.2362518  48.0429840  16.7312706
  70.5771780  20.4397154   1.6532271  70.4330635  19.5152748   1.8553935
  69.7218704  20.7578754   1.3643408  56.1595821  41.7360067  18.2268918
  57.0843744  41.6657305  17.9901326  56.1583328  42.2397804  19.0407968
  50.0071383  40.0881910   6.5707308  50.0270224  40.6767941   7.3253047
  50.2727365  39.2385769   6.9226456  29.9280167  56.1821032  28.4941030
  30.6205893  56.6251945  28.9842534  30.3287745  55.3643274  28.1993723
  44.1732883  39.9945831  68.4847593  43.9685631  39.1260266  68.8310719
  45.1109791  39.9619603  68.2952642  25.7268214   9.2385733  79.9862957
  25.4860711   8.8926411  79.1268778  26.6825104   9.1883653  80.0055504
  56.6980076  60.5493927  28.2029796  56.4051294  61.2892580  28.7350130
  57.4091005  60.9045362  27.6696420  45.2939558  57.1150684  40.3829145
  45.5688667  57.6709175  41.1120844  44.6902323  57.6613951  39.8796463
  72.1656561  90.0686264  78.9527369  71.2385273  89.9553490  78.7433624
  72.5785971  90.2664471  78.1121540  51.6585684  29.3996453  12.2219837
  50.9174013  28.8059211  12.1020067  52.4038744  28.8220835  12.3868251
  19.0145528   1.4592978  81.2710762  19.7605073   1.7622358  80.7533741
  19.1325939   1.8730575  82.1261215  44.1160583  34.5722103  37.4068022
  43.3141327  34.4907260  36.8905592  44.6368313  33.8070655  37.1627045
  64.2905235  76.1815453   5.5529529  63.8530874  76.5124416   6.3374209
  64.3452263  76.9398212   4.9713558  78.2086563  57.6441097   1.5826002
  77.7558184  58.4792662   1.6996019  78.9165640  57.8394508   0.9686421
  63.7143183  77.5401783  85.2085114  64.1281128  77.4339151  84.3519402
  62.9984188  78.1564617  85.0538635  49.3652678  59.8712587  20.6384730
  49.9475479  59.1117096  20.6549048  48.5855293  59.5653152  20.1751804
  44.1809940  89.3078995   2.6282158  43.9986706  88.8931847   1.7850053
  45.1353502  89.2939186   2.7006254  19.3778825   5.2373308  17.0933962
  19.0041542   4.3564558  17.0685387  20.2473998   5.1396388  16.7052877
  69.7701883  65.6797123  17.1771169  69.2777967  65.4695034  17.9705882
  69.7424889  66.6350365  17.1240819  98.0312443  86.3987350  63.1023741
  97.8641224  87.1632671  62.5512123  97.9705429  85.6541538  62.5039148
  56.8867111  51.0067415   8.3633083  57.8252888  51.1365461   8.4991306
  56.4795637  51.7837954   8.7462521  36.0261130  72.4178123   8.6462557
  36.9304347  72.1534824   8.8152760  35.9536386  73.2879686   9.0384305
  36.5264201  50.8827305  49.8992538  36.7168379  49.9481964  49.9806213
  35.8405066  50.9303093  49.2333031  34.8182631  27.6747632  73.6229897
  35.6451726  27.2464848  73.8444090  34.6347547  28.2426596  74.3713570
  48.3720303  56.8598604  10.9752572  48.0680799  57.4640942  11.6525626
  47.9628754  56.0239172  11.1989141  51.4373970  80.6991482  33.4326315
  50.4992962  80.8871555  33.4033704  51.8415785  81.4217186  32.9522467
  73.6431408  46.7609787   6.0728180  73.7998295  47.5835705   6.5365267
  73.8763189  46.0813522   6.7052442  32.7149558  90.6335258  46.5326977
  33.1440735  91.4887714  46.5072107  33.3397150  90.0654221  46.9834328
  76.1249924  57.4657726  46.6212559  75.5329609  57.9864216  46.0784340
  76.9882441  57.8514624  46.4720297  36.9963813  43.8311815   9.8840111
  36.5677214  43.4270000  10.6384122  36.3253808  44.3968534   9.5019102
  42.8483105  69.4165564  12.6781404  42.3525238  69.8828411  12.0050824
  43.6782694  69.1966057  12.2550297   9.7021693  29.3999195  17.3812890
   9.7272176  28.5002184  17.0554972  10.4222167  29.8387980  16.9283545
  51.2657881   7.1299672  16.8309081  51.1913013   7.9457140  16.3356912
  52.0623446   6.7182750  16.4958811  73.4094763  86.0970211  92.4523067
  72.7537203  86.7934418  92.4174023  73.9507961  86.2386227  91.6756725
  39.4471145  54.8085880  35.7571816  38.5028934  54.8887873  35.8922529
  39.5509434  53.9903116  35.2715182  33.6924815  18.0406630  87.3257351
  33.7742448  18.9930344  87.3760986  32.9034615  17.8410339  87.8295517
  52.1653509  19.8733592   6.3020635  52.2090626  20.6606913   5.7594502
  52.7759790  20.0426984   7.0194817 115.6235886   4.7826234  76.0219717
 115.4972076   4.2607170  76.8143559 116.5602016   4.9798504  76.0119295
  32.2353387  50.7358456  19.3974316  32.8178644  50.6670237  20.1538444
  32.3966169  49.9357605  18.8973427  48.3141375  83.0049801  30.3125310
  47.6611710  82.9447460  29.6152186  49.1491175  83.0891895  29.8521566
  63.5727978  72.5728798  44.5987701  62.9911232  71.9525909  45.0382328
  64.4417715  72.3750544  44.9480295  36.1308908   7.7995235  65.0333118
  36.9751787   7.3488104  65.0169325  35.6109500   7.3586357  64.3613672
   2.4179789  87.7822971  70.8567429   2.5487489  87.5461388  71.7750883
   3.2726315  87.6417542  70.4492521  54.8773146  41.4198971   9.1555780
  55.2430534  41.5106678  10.0354803  55.2572632  42.1467829   8.6621118
  46.4170551  65.1597071  18.4029806  46.8288136  64.7790861  17.6272130
  46.7454338  66.0583496  18.4318984   5.7794327 110.1211834  69.8979044
   6.6571200 109.8664570  69.6132851   5.1931417 109.7128105  69.2609406
  96.0824013 104.5397568  92.5964737  95.4388809 103.8699627  92.8277397
  95.6716537 105.0310421  91.8850327  25.3201914  83.8045502  26.9363689
  25.1354289  84.7405529  27.0138240  26.2728190  83.7541771  26.8576717
  81.5705776  54.6543360   9.3352735  80.7273865  54.2030907   9.2948288
  81.3481998  55.5577898   9.5601100  29.0147662   1.7806551  84.5839214
  29.8682427   1.4814907  84.8974705  28.4322953   1.6734028  85.3358841
  64.4232368  47.3458576   6.4076245  63.5209942  47.6631641   6.4463913
  64.8172855  47.8322601   5.6834900  13.5865462 105.6950760  89.9992275
  13.3513796 104.8506737  90.3838348  14.2462599 105.4822063  89.3391609
  72.9542637  55.2385426   0.4822728  72.0864344  55.4990149   0.7909136
  72.7826691  54.7108078  -0.2976502  15.6327415  26.3986778  34.7406673
  16.3530338  26.2240100  34.1349411  16.0585475  26.7399216  35.5270982
  98.9794159 104.5907688  95.1105881  98.0282116 104.5386505  95.0171757
  99.1175652 105.2512741  95.7894707 106.3466644 109.5732689  84.0797043
 105.8587551 108.9520836  83.5390377 107.0203876 109.9214745  83.4956837
  38.8003969  45.6231213  13.1498098  38.9939046  44.7203159  12.8973651
  39.2354894  45.7339430  13.9951766  48.9913940  32.2100472   4.3370202
  48.3052063  32.4159598   3.7022099  48.9166784  31.2654376   4.4725281
  75.1259470  50.0549459  12.2809303  75.9300900  50.1010609  12.7980924
  74.7368479  49.2130566  12.5177073  26.7608452  82.7715206  20.3784537
  26.4357495  82.7724171  21.2787557  27.1564698  81.9069958  20.2675223
  63.5761833  81.6480446   3.9220393  63.3241510  82.4286461   4.4153649
  64.3331051  81.3005829   4.3938136  93.0093670  56.1959743  31.9538665
  93.3707619  56.9966125  31.5735912  93.3546829  55.4926205  31.4040613
   2.7899662  22.4427295  86.4475632   3.7388295  22.4930263  86.3319778
   2.4675749  22.0753193  85.6245804  36.3191938  78.9764357  19.8816586
  35.8360910  78.6264610  19.1330850  36.9551134  79.5789242  19.4958472
  27.4240446  11.9604874  79.5951033  27.8940153  11.6898537  80.3838444
  28.0844355  11.9362295  78.9026213  45.5491352   0.1175074  88.3779049
  45.0529432  -0.4206542  88.9946747  45.4173803   1.0150485  88.6833477
  73.2544851  91.6435051   7.4285132  73.5875893  92.1420765   6.6823912
  72.4830770  92.1311569   7.7172428  40.6471157  20.9182072  86.8927860
  41.5209103  20.9298182  87.2834015  40.4971027  21.8217182  86.6145897
  25.0360274  18.5416663  58.5696030  24.1451287  18.8882887  58.6184168
  25.1984954  18.1754172  59.4389153  75.1436901  76.4844894  20.2576685
  75.3336000  77.4224710  20.2387071  75.9119892  76.0929155  20.6731343
  72.1608019  63.7598610   9.8398668  71.7037249  64.5237446  10.1917124
  71.6833878  63.5429096   9.0390915   7.3671633 101.1562920  92.4593163
   7.8618133 101.5335941  93.1867790   6.5696448 101.6835880  92.4129677
  69.5188570  42.1817684  13.7869143  69.8508596  42.5100517  12.9513109
  68.6018038  42.4555159  13.8044584 107.5235271 109.7826099  64.3111897
 108.3331585 110.1988792  64.6068859 106.9863605 110.5060482  63.9882040
  56.0817671  47.7397156   6.8714613  55.3496027  47.2747993   6.4664710
  55.8655214  48.6660767   6.7650628  69.2661619  45.4202318   3.6244288
  69.9170828  45.5150652   4.3197978  69.6518230  44.7858429   3.0202362
  95.9076881  58.7193203   1.1698967  95.8147907  58.1343889   1.9218664
  95.9813595  58.1322527   0.4174609  18.6072898  58.2474709   6.1854279
  19.2716432  57.6303911   6.4921504  19.1076159  58.9595175   5.7868165
  53.9865875  41.7529821  14.5677197  54.7483778  42.2546816  14.2775345
  53.9269972  41.9295549  15.5066037  89.2508411  46.4295292   0.3744230
  88.5478210  47.0790863   0.3659759  88.8169670  45.6041813   0.1581216
  83.8546085  86.5864849  18.0971813  84.2549038  87.2525311  17.5382757
  84.3585968  85.7919025  17.9214394 105.4762363  72.2780228  47.4821901
 105.5589199  71.3692427  47.7711773 104.5331955  72.4418402  47.4738359
  32.9515195  88.8152218  16.3718450  32.8680849  89.5633888  16.9630361
  32.1773267  88.8654709  15.8111930 111.3051510  94.2447948  77.5702143
 110.9960556  95.1503372  77.5440264 110.7677937  93.7894630  76.9220257
 116.3039970  67.0006227  33.7378931 117.1547985  66.5952110  33.5705400
 115.7246017  66.6234922  33.0758500  53.3707714  32.8397822   4.9510536
  53.9903975  33.2888460   5.5260658  53.3733177  31.9330454   5.2577347
  64.9147797  84.2736816  19.8526812  64.8674679  83.3893681  20.2159739
  65.1797104  84.8221207  20.5910993  57.2070694  60.9841394  17.7339208
  57.9746866  60.4406929  17.9118693  57.3905516  61.8111229  18.1796372
  52.7405119  69.4042206  30.0083923  52.9145479  69.7761774  30.8730268
  53.5045004  69.6466827  29.4851589  77.8051186  74.4292164  15.2441573
  77.2403049  73.9067078  14.6747732  78.1529999  75.1141691  14.6731496
  81.1161900  79.2557859  20.9268808  80.6386089  78.4409904  21.0826254
  80.5901432  79.9282217  21.3597083  68.6424029  67.0934897   0.2169198
  67.7803767  66.6957252   0.0947351  68.5437429  67.9857319  -0.1153498
  73.9815331  62.7067995  18.3487105  73.4022665  63.3600569  17.9563642
  74.5954514  63.2173109  18.8766468  61.1400080 102.5196838  71.9024849
  61.6134834 101.7529774  71.5796518  61.4380360 102.6221752  72.8063154
  78.5851383  69.8263168  36.0279870  78.6633492  70.7307720  35.7245541
  78.1554127  69.8959875  36.8804622  70.2077436  77.4155331  19.4595563
  71.1450577  77.3848152  19.2678928  70.0813293  76.7573500  20.1429653
  50.7204390  61.1150169  24.2776847  51.3696575  61.4345694  23.6510825
  49.9005032  61.5258598  24.0035534  25.3460646  63.2612848  24.3091559
  25.4278660  64.0900993  24.7809649  25.1168132  63.5160637  23.4154201
  49.0443850  75.8156538  29.5150304  49.7001362  76.3694811  29.9387050
  49.5551014  75.1558876  29.0458775  49.9122906  48.8168049   7.0697474
  49.0506744  48.8783169   7.4821353  49.7309446  48.8472748   6.1303771
  79.9433517  81.8983269  29.2204380  79.6191883  82.0889091  30.1006818
  79.5630217  82.5840378  28.6714578  71.5082502  83.8226318  33.6677837
  71.5031862  84.7788239  33.6243010  72.4358702  83.5894680  33.7050700
   7.9477608  49.1757774   3.5700738   8.2093918  49.1726065   4.4908187
   7.8143471  50.1005507   3.3621719  63.3774948  72.7234936  23.8817811
  62.5891304  72.3141003  23.5252523  63.7681866  73.1800222  23.1366825
  35.2663040  37.1312523   3.8673639  34.9593973  37.5382566   3.0571866
  34.5453095  37.2536540   4.4849530  86.1781406  77.0167732  28.7445092
  86.1032009  76.3832331  28.0308962  86.9078064  77.5808668  28.4883523
  73.3421278  80.5483532  28.1023407  73.8967514  79.7686720  28.0755138
  72.5503397  80.2954865  27.6276088  49.4894266  76.0971594   1.7589015
  50.0581646  76.0913563   2.5287974  48.9884281  75.2842331   1.8250851
  98.5495567  51.1759281   6.9553512  98.5457134  50.2475023   7.1882612
  97.6636982  51.3462067   6.6351998  73.7720203  45.0725079   8.1652099
  74.1005182  44.3247414   7.6660424  72.8659439  44.8431683   8.3717698
  50.9119081  92.8434086  51.7571211  51.1434841  92.6061630  52.6550722
  49.9711561  93.0169392  51.7902660 103.6704731  27.1370625  77.3982000
 102.8026104  27.5383902  77.4426889 103.9826965  27.3387766  76.5161276
  73.6598063  47.0231771  12.2074723  74.3737411  46.4103508  12.3834693
  72.9169846  46.6731691  12.6993525  39.6719885   3.7765032  76.9054890
  39.0725183   3.4918615  76.2156725  39.1340232   4.3202043  77.4809980
  63.0003643  65.9399796  21.2152076  63.7892818  65.4004288  21.1629677
  62.8973627  66.1238766  22.1489120 109.6133614  84.5058823   1.5940741
 110.5379963  84.2973709   1.7275429 109.1813564  84.2002583   2.3916969
  11.6888344  25.3991365  87.2060490  11.3896573  24.5937800  86.7839909
  10.8838427  25.8430696  87.4727726  12.1625245   0.6132282  94.0361786
  12.7034032   1.0210399  94.7124672  12.6339769  -0.1862979  93.8022518
  92.2287655 100.5020046   6.5299881  91.5999508 100.9124470   5.9363872
  92.2294807 101.0645676   7.3044282  81.9143581  61.5333462   4.0613073
  81.3879013  60.8658981   3.6213255  82.5558186  61.0362577   4.5689195
  47.1609402   6.3347864  94.0270329  48.0084753   6.2783080  93.5857582
  47.2124434   5.6856263  94.7285748   4.4194821   5.4334319  85.4549694
   4.1797626   6.3055813  85.7682133   4.5099911   5.5357146  84.5075607
  73.8215303  75.0825071  11.3558328  73.0867434  75.0116062  11.9651711
  74.0936089  74.1777039  11.2023997  24.3317795  10.5146611  81.8826294
  23.7026739   9.7937346  81.9095135  25.0226998  10.2078521  81.2954903
  78.2688999  84.1281796   3.6871886  79.0095520  84.0885067   4.2922410
  77.5911665  83.5952187   4.1029549  60.5827761  86.0468578  10.5922091
  60.7307673  85.2698326  11.1312401  61.3816643  86.5643120  10.6934714
  38.4653163  11.8860328  83.1965828  39.1866708  11.3556576  83.5350800
  38.4710884  11.7240548  82.2531986  48.9225245  85.0124741   7.3074365
  49.3599558  85.8246994   7.5627244  49.2409372  84.3620110   7.9333282
  98.4253120  34.2368960  88.3955383  99.1743469  33.6462808  88.3158302
  97.8238678  33.9553356  87.7061844  69.3514299  32.6195478  13.1235588
  69.6609259  33.3237314  13.6932683  70.0995159  32.4207449  12.5604665
  74.6310854  77.5393295   8.3683538  75.5851412  77.4826765   8.4212434
  74.4030476  78.2756519   8.9358562  85.7321739  69.1235447  16.7953598
  85.7349396  68.2552099  17.1981251  86.1118412  68.9862156  15.9274709
  69.7837257  59.6464300  72.8738880  69.5647049  59.6008205  71.9432020
  69.8503971  60.5832672  73.0586195  98.8786411  66.7500210  36.9084215
  98.4088039  66.6571045  36.0796595  98.2476234  67.1654081  37.4962139
  85.0813103  87.2022438  37.6120567  85.1754951  87.8633118  38.2978773
  85.8650017  87.3040962  37.0719767  13.2049346  20.3971195  90.6398869
  12.7918291  21.2605762  90.6443310  13.2326686  20.1401281  91.5615177
  46.8593645  73.0781698  35.9584141  47.7233601  72.8564739  36.3056803
  46.9251537  74.0043449  35.7258177  68.7067652  85.3742409   1.3828820
  68.3642626  84.7106552   1.9816938  69.6024179  85.5285168   1.6832694
  57.7766991  47.3331642  16.2911594  57.7807617  47.7397394  17.1577120
  58.2368469  46.5028572  16.4140034  28.4262824  55.6877661  22.3789907
  29.1068745  55.7807589  21.7123723  28.5619664  56.4321375  22.9652762
  62.0018625  75.9681702  50.2423286  61.4458847  75.8596182  51.0139084
  62.4038982  76.8293715  50.3560543  33.2414365  79.6111727  53.4805202
  33.1978750  80.5601311  53.5980558  34.0957856  79.3648911  53.8350153
  41.6936207  62.0472527   0.5149721  42.0827436  61.8951321  -0.3462314
  42.1766233  62.7947474   0.8673830  93.0578136  73.0405998  69.8843718
  93.8531399  73.5664988  69.8000383  92.4770355  73.3732510  69.2000675
 103.0658054  91.2944317  34.3159986 103.6664104  90.5547237  34.4072700
 102.7024746  91.4175701  35.1929593  39.8258615   0.9574024  89.9790859
  38.9604807   1.1414634  90.3444195  39.7233939   1.0982629  89.0378666
  57.5164986  74.8128128  18.5422277  57.0323277  73.9871073  18.5383058
  57.8011322  74.9278736  17.6355982  94.8964405  43.5611343  22.5734520
  94.8220921  42.6586246  22.2633266  95.5731297  43.9498758  22.0191932
  91.1794281  70.7182360  17.2388041  90.3987026  70.4621935  17.7298760
  91.4141083  71.5762186  17.5923896  32.3057222  37.6463032  85.1091766
  32.7538562  37.1667814  85.8059311  32.4898386  37.1435523  84.3157196
   3.5551527  74.9368906  50.5334616   4.2948976  75.3650713  50.1025677
   3.9317161  74.5426512  51.3202333  99.2525387  79.3862438  54.2462587
  98.8633442  79.8074150  53.4798574 100.1821613  79.6086645  54.1955519
  48.0930328  79.5860577  21.6891074  48.6867571  78.8595533  21.8786287
  47.3921347  79.1931295  21.1689305  38.0022407   5.8676189  95.3641224
  38.9209604   5.9203750  95.6275749  37.7988935   6.7405707  95.0282192
  58.2627535  70.1620722   9.3750894  57.6922894  69.4007254   9.2694956
  57.8452253  70.6806564  10.0628209  59.8359060  85.1404095  41.5122509
  60.5672693  85.4518795  40.9790277  59.6508408  84.2634773  41.1761379
  86.9169521  83.3521652  33.1006312  86.0132599  83.5459518  32.8515840
  87.2695446  82.8602695  32.3590469  94.0445709  24.1462731  79.3038368
  94.1073132  24.5740151  78.4498262  94.2160797  24.8451996  79.9349594
  59.2246294  69.1837454  26.4314413  58.7038612  68.3810616  26.4043665
  60.0337362  68.9294577  26.8751931  82.0453930  58.3008385   3.0323967
  81.2561989  58.8137960   2.8583717  82.0322323  58.1545496   3.9782608
  44.5121098  82.3382854  35.7680321  44.3848944  82.2306156  36.7106104
  43.8814974  81.7374706  35.3710604  80.0791645  84.6494007   9.9414861
  80.7289410  84.3783283  10.5899847  80.5940914  85.0390244   9.2348874
  29.3415427  62.9496670   9.5328051  28.5611558  62.7781868   9.0057141
  29.0354037  62.8968668  10.4381907  71.7860174  74.6242476  16.6653466
  71.8281221  73.7071991  16.3942742  72.6126671  74.7768736  17.1231532
  84.7565556  76.8915081  46.2090063  85.6440353  77.2337008  46.3163471
  84.2425728  77.6453352  45.9195375  50.1394701  59.2917919  26.5375113
  49.2237902  59.2483282  26.8129539  50.1108646  59.7072077  25.6756282
  61.0016918  81.4508247  34.0148115  60.0838375  81.3875866  33.7506509
  60.9797287  81.4025974  34.9705434  54.1328144  29.3883896  92.7154064
  54.5108414  29.3081784  93.5911274  53.2329750  29.0771151  92.8135300
  29.8295045  83.3080769  21.9472146  30.7369232  83.4189224  22.2309971
  29.7413373  83.8913727  21.1934137  93.1808186  68.1521082  54.5965481
  93.2542515  67.9652452  55.5324554  94.0643311  68.0146933  54.2548323
  53.0054283  34.0301561  17.7140796  52.7390814  34.0504241  16.7949057
  53.4980917  34.8413301  17.8386271  63.9622927  66.3594675  14.3622446
  63.1514692  66.7138863  13.9973044  64.0697765  65.5126095  13.9292145
  61.3020611  15.2428591  82.6079369  60.4017639  15.0625336  82.8784657
  61.2128782  15.7360923  81.7924595  57.3834753  61.7725134   3.3377123
  57.3785353  62.6019049   2.8598890  57.9894114  61.2171125   2.8471977
  65.1305342  97.4923611   6.3806558  65.8740902  98.0379963   6.6368413
  65.5273724  96.6854858   6.0524720  98.9037800  74.6579361  17.1662998
  98.0216694  75.0267124  17.2122431  99.0185165  74.2065144  18.0025327
  97.4370861  65.3814459  29.8196101  97.8580761  64.6431351  30.2599406
  97.7732658  65.3494978  28.9239597  63.6403608  94.5774364  19.3246400
  64.5975304  94.5739746  19.3312025  63.4054279  94.2216873  18.4676182
 109.4161320 109.4513893  77.8197527 109.8721981 110.2473450  78.0930424
 109.8720264 109.1751099  77.0247221  61.6318941  94.6857548   0.9423354
  61.2787247  93.8114834   1.1071164  61.3206244  95.2124691   1.6784790
  72.2303772  71.7647457  26.5589285  72.3403883  71.2228870  27.3402858
  72.0368147  71.1403227  25.8597398  70.4195642  65.2850103  32.0950246
  70.6737995  64.7802448  31.3224912  71.2210274  65.7356739  32.3610878
  62.7139854  71.6919374  19.8969793  63.2838249  71.9557714  19.1745496
  61.9804478  72.3057604  19.8598969  80.7090473  59.0114260  49.4048643
  81.3547897  58.3702660  49.7017860  80.9227085  59.1574049  48.4833050
  63.0860853  94.9967098  11.9112003  63.0812120  94.0476513  11.7866850
  62.1707678  95.2566433  11.8069744  89.9214268  61.5957689  49.9996138
  90.8060551  61.4073515  50.3129101  89.4604111  61.9284821  50.7696772
  60.4319096  86.2832737  61.8211651  59.6890068  85.6815910  61.8691397
  61.1564016  85.7444382  61.5033770  41.7342091  39.3383956  90.4122639
  41.7037535  39.8411965  91.2261963  42.6497841  39.0717173  90.3295898
  87.8332520  64.0419531  34.0833116  87.5866604  63.9700079  35.0054002
  88.3599567  64.8399162  34.0377951  21.9373584  23.4729910  65.1626158
  22.8888202  23.4510422  65.0602961  21.7112327  22.6014590  65.4874706
  89.3553246 110.9605045  84.5450401  89.4061506 111.7878593  84.0663624
  88.4630389 110.9382771  84.8908138  46.0988474  86.1610603  32.2744656
  46.1454105  86.6505718  33.0957055  45.8020258  85.2883434  32.5323319
  70.5609894  87.3892403   8.1234652  69.9826336  87.6782990   7.4176431
  70.0493717  87.5213623   8.9216048  87.8761578  54.7817230   6.2893891
  88.6342525  54.3435526   5.9027028  88.2463455  55.5244112   6.7664653
  23.7055111  38.2442069  93.1760025  24.1803980  39.0745425  93.2114315
  22.9855514  38.3533549  93.7972736  49.0351200  62.2079420  22.0006156
  49.2654419  61.4359617  21.4836788  48.9937544  62.9200220  21.3622832
  12.1263444   2.0168310  77.3137856  11.9224811   2.2240660  78.2257748
  12.6340401   1.2066814  77.3599815  71.9891024  83.5539246   1.4277340
  71.8094349  84.0378952   2.2337897  71.6376019  82.6786041   1.5905173
  58.3264351  66.8444586  56.9599247  57.7581882  66.3430882  57.5446892
  58.6202621  67.5859594  57.4891472  61.1016369  66.1149216  19.3885291
  61.8629885  66.0027027  19.9577236  60.5958652  65.3104496  19.5036662
  79.6573305  74.4861126   5.9391928  80.2477264  74.2233896   6.6453373
  78.7802267  74.3388176   6.2930620  32.5934434  56.5652657   3.3158141
  31.9139647  56.1170626   2.8121746  32.5430679  56.1734390   4.1876876
  29.1948342  57.9718828  16.3874185  29.8957229  57.3523521  16.1845136
  29.4544697  58.7803650  15.9456277 117.3237610  59.6289396  28.1852078
 117.7413750  59.3059015  28.9836287 116.4122009  59.7791767  28.4356427
   4.3358412   2.7526960  75.3075504   3.7634107   2.1571526  74.8239374
   5.1383519   2.2507390  75.4498482  57.6147795  84.8452282   5.4341096
  58.5010147  85.0571823   5.7271826  57.0588160  85.0478840   6.1864853
  55.1715755 109.2354679  16.1031687  55.6532049 108.6553288  16.6928303
  54.8215055 109.9198055  16.6735852  56.4139032  41.7091131  11.3412881
  57.2046423  42.1848917  11.0871339  56.5585423  41.4768457  12.2585464
  34.8924255  76.7493105  13.3594096  35.5880380  76.0923004  13.3857167
  35.0521517  77.2349691  12.5501776  16.2067497  77.7239561  16.7397511
  16.2713289  77.7872515  15.7868314  15.2672601  77.6630878  16.9126272
  34.7757816  43.8115072  62.3761415  33.9141035  43.5384321  62.6910591
  35.1340103  44.3416834  63.0880499  43.2786179  26.6681528  31.9000793
  43.8076973  25.8779907  32.0093822  43.4886169  27.2046518  32.6644731
  65.5998230  76.5541363   9.3261886  65.2976847  77.1625996   8.6518627
  66.1078739  77.0973587   9.9287057  41.6557789   8.4014058  79.4872856
  41.7135668   8.6774200  78.5725689  40.7433271   8.5611063  79.7284651
  71.9111156  97.1951771  34.9342084  71.5963984  97.6485825  34.1521502
  71.3454723  96.4266586  35.0094366  89.3142700  91.0378551   5.9197640
  89.2627621  91.8571568   5.4275078  89.0090847  90.3699398   5.3057706
   6.7574513  45.3694963  79.2614746   6.0311919  44.9368715  79.7104931
   7.4974823  45.2804089  79.8620176  31.5845323  70.8854055  17.0122981
  31.3810563  71.8146849  17.1184206  30.8003855  70.5130625  16.6089237
  46.6216421  32.3688745  76.2954950  45.9033537  31.7643332  76.4820957
  46.7679262  32.8293514  77.1218109  89.8408604  81.2484837  91.3316441
  89.9495697  80.7675552  90.5112076  89.5472527  82.1187401  91.0620403
  54.1663265  82.6712132  20.0705409  54.5049047  82.2698593  19.2702246
  54.9476957  82.8839779  20.5808640  37.4924421  91.8638706  33.5051322
  37.7879381  91.6105556  32.6306343  36.6204023  91.4772701  33.5846186
  41.7574167  12.7445471   6.7813510  42.5788879  12.3120522   6.5481901
  41.2071323  12.0423841   7.1283174  51.3210297  40.0631428  92.6615620
  50.7978392  39.5386004  93.2676697  51.5087509  39.4712520  91.9331074
  84.7256851  35.2130628  12.4692607  85.5554390  34.7795510  12.6687443
  84.1280937  34.9133086  13.1542897  66.6548061  79.7721815  15.7991028
  66.5275049  79.8701715  16.7427254  66.4254427  78.8603115  15.6198955
  21.2039590 109.7938347  88.6695480  20.5936670 110.5277634  88.5980225
  20.8819079 109.2862606  89.4144535  31.7723775  71.4171124   7.0200700
  31.7976570  70.9971237   6.1603016  31.4681101  70.7302809   7.6132905
  85.5197716  95.2299976   4.9170440  86.0787678  95.8300877   5.4106426
  84.8798084  95.7975101   4.4873771  91.9007587   4.5474306  30.8744597
  91.0498047   4.1630197  31.0850191  91.8206024   5.4646450  31.1362314
  62.7024508  74.0569544  27.5580335  62.2624874  74.9013329  27.6564717
  63.5023832  74.1417599  28.0768299  37.3614740  88.2201958  44.7924519
  36.4635825  88.5511112  44.7696590  37.7523303  88.5317039  43.9761019
  94.3150806  58.0039120  30.6517315  95.1749706  57.5838566  30.6710792
  94.5065212  58.9417648  30.6551933  54.2011166  25.3537679  94.7604656
  54.7566748  24.9418831  95.4222393  53.7033319  24.6295047  94.3811417
  90.3030491  65.3258657  18.4672654  89.6814156  66.0036373  18.2018757
  89.7723484  64.6874094  18.9436698  56.7995977  88.1992912  19.6653366
  57.2567558  88.5696220  18.9102924  57.2600508  87.3797512  19.8458076
  58.4021044  61.9223022  14.8526430  57.4531221  61.9808626  14.9632847
  58.7468529  61.9071913  15.7454753  67.7571630 109.3751240  70.1012421
  68.0759621 109.9361420  69.3942308  68.2446098 108.5579777  69.9968910
  79.5912313  65.3432894  20.3187728  79.7237062  65.2660942  19.3739331
  80.3714848  64.9439573  20.7034445  77.6856375  83.5889912  60.4312134
  77.6496506  84.4621086  60.0405788  76.9994020  83.5966682  61.0984898
  81.1583710  72.5256300  26.9923210  81.4149570  73.4448242  26.9182897
  80.5720043  72.5008011  27.7484870  90.4914284  62.6827812  15.5476034
  91.1457348  62.2878885  16.1239517  90.6027889  62.2287607  14.7123206
  71.1425543  91.8875217  43.6506224  71.9491434  92.4029160  43.6475801
  71.3532782  91.1160183  44.1765594  25.9766150  34.6884584  95.5450821
  26.4728355  35.5001831  95.6504536  26.1258316  34.4329691  94.6347618
  75.1551580  46.1208534  90.0371647  75.2146959  46.6538811  89.2443371
  75.9730291  45.6238127  90.0535870   4.7206676  73.4547567   1.1032458
   3.9557999  73.3409786   1.6673943   5.1414275  74.2508745   1.4278877
  58.3868170  75.4291344  16.1347580  57.4614716  75.5332661  15.9131300
  58.7438869  76.3163614  16.0951936  98.3533192  69.5052385   9.0237057
  98.1878090  68.6314678   8.6696333  98.4016514  69.3747044   9.9707317
  73.7918997 111.0286999  59.1749525  73.4081650 111.0019398  58.2984495
  73.0697870 111.2939072  59.7445583  88.1749725  99.1395950   4.9809155
  87.8356171  99.8084450   4.3861741  89.0081310  98.8736343   4.5918995
  76.6918945  94.2707157  12.1619999  76.2290716  95.0539112  11.8642998
  76.7194986  93.7018681  11.3926578  76.1514997  77.8456926  17.0985842
  76.7140532  77.1060085  17.3279941  76.2709951  78.4688091  17.8153014
  40.5086517  28.6881590  91.2960148  39.7147369  28.3088660  91.6729355
  40.2390099  28.9977026  90.4313087  68.5236740  69.9811602  46.7386723
  67.7449036  70.5375099  46.7236519  69.0442514  70.2776289  45.9921217
  28.2345462  87.5617886  38.9953732  27.9056168  87.7269840  39.8789716
  29.0678954  88.0312538  38.9583659  91.6462231  82.1953011  22.9541755
  91.8312263  82.8927231  22.3252034  90.9108162  81.7166710  22.5716472
  34.9131656  44.1799593  94.4566059  33.9892173  44.1708994  94.7065353
  34.9427223  43.6963987  93.6310577  85.6661034  73.5761547  28.7494540
  85.6336880  73.9700031  27.8776383  86.5912819  73.3719683  28.8857841
  73.8768196  70.0182009  12.8289866  73.1794071  69.3847990  12.6597226
  74.0253973  69.9642801  13.7730467  71.9809866  75.5600643  34.8929453
  72.1385813  74.6334839  34.7117090  72.7370739  76.0098600  34.5157909
 106.8229294  93.7470245  90.5154991 106.0785866  94.3227959  90.3403854
 106.5015316  92.8698730  90.3067970  54.5944405  87.5049782  16.3513303
  53.6744308  87.6967812  16.5330470  54.7162294  86.6056252  16.6555798
  64.9289608  75.3857327  38.4947658  64.6454239  75.0102663  39.3283510
  65.7972717  75.7450199  38.6769128  90.6296730  57.2612619  85.6705761
  91.1407280  56.5745211  85.2422905  90.4824638  57.9130125  84.9851704
  70.8796597  85.1250553   3.1736085  71.3404942  85.6465340   3.8308078
  70.1193428  84.7735310   3.6368403 110.5557060  63.4549952  21.5639353
 109.6252537  63.2969141  21.4042497 110.9101009  62.5941944  21.7867708
  95.7514572   1.4715774  30.0845218  95.3209019   0.9338988  30.7491684
  95.4041100   1.1484274  29.2531610  94.5753479  66.6041946  46.4852476
  94.1164780  67.0672560  45.7843542  95.4929829  66.6061878  46.2129021
  20.9070683  43.0200052  34.1262245  20.7318830  43.5442734  34.9076891
  21.5740156  43.5149193  33.6503339  36.4688230  16.8977344  21.8965459
  35.5285525  16.7188299  21.8857765  36.8610930  16.0966432  22.2438335
 101.8336678  62.2331953  21.9955540 101.9750118  62.2281408  21.0488605
 101.2783432  62.9972410  22.1507359  51.4314222  98.0463123  48.2214689
  51.4224958  98.6571026  48.9584112  52.2104168  98.2872391  47.7201223
  77.1514463  77.8303671  35.6365561  76.8096924  78.3318138  34.8962975
  76.7296124  78.2178307  36.4034724  95.7404900  87.4511814  49.2101049
  95.2989483  88.2424736  49.5185232  96.3779640  87.2501087  49.8952532
 101.4466095  96.3836670  63.5850525 101.0639763  95.5102158  63.6682177
 100.8896637  96.8293476  62.9467630  94.6380138  79.7876740  28.2678127
  94.8301983  80.1750278  29.1217780  95.1725578  78.9941645  28.2389736
 107.1228695  81.7663479  67.5611925 106.4000607  81.4705086  68.1145859
 107.9074192  81.6045666  68.0851555  55.7826567  75.5655909   2.9021916
  56.1954355  75.8070135   2.0729971  56.1195469  76.2028980   3.5319358
  84.7987270  77.7952147  38.9524841  84.2803383  77.6003790  38.1717539
  85.5349731  77.1850157  38.9095569  95.9667683  68.1989384  34.3662071
  96.1683369  68.3633137  33.4450221  96.1199570  69.0390968  34.7985220
  69.5213604  60.2839231   1.8521051  68.9946985  61.0430622   2.1022429
  68.8814878  59.5891666   1.6968372  80.5103111  74.0246010  23.9158821
  81.4544582  74.1675377  23.9822102  80.2340412  73.8299417  24.8114347
  59.2225409  86.3039303   2.7489319  58.8143635  85.5719852   3.2114065
  59.0333939  86.1389828   1.8252172  67.6836348  10.2073598  21.2922692
  66.9124460  10.4126775  21.8208027  68.0135536  11.0599792  21.0086751
  46.9925404  25.5796385  26.9096279  47.0668793  25.1360488  26.0646820
  46.9729042  26.5111423  26.6902018  60.6834269  71.1355829  49.6066952
  61.2564468  71.2937546  50.3569317  60.7384491  71.9392443  49.0896511
  56.5144157  73.8361168   9.8218858  56.3817072  73.0572987  10.3623092
  56.3796711  74.5697260  10.4217982  97.8332806  56.6988230   2.8328851
  97.1922016  55.9917974   2.9061586  98.3849430  56.4461613   2.0925717
  58.0742407  76.7336702  24.8126054  58.4422302  77.0494032  23.9872956
  58.8371420  76.5585613  25.3635621 101.0131359  83.1652927  30.1336503
 101.6218281  83.4359264  29.4462776 100.3104591  83.8144398  30.1005173
  90.8362103 102.1640110   4.8642012  91.0269260 103.0481339   5.1775557
  89.9002934 102.0484161   5.0283289 112.1524525  93.7370110  45.5523729
 112.3190117  94.6194363  45.2209902 111.4097214  93.4235954  45.0362921
  87.6797104  78.2243586  54.5111847  86.8406391  77.8522921  54.2396021
  88.2831573  77.4813366  54.5089054  45.3567600  84.5801926  48.1737804
  45.2542400  84.1561699  47.3217678  44.4612265  84.7492218  48.4665012
 108.8547611  86.0548210  33.3943558 109.8105145  86.0022354  33.3957744
 108.5682964  85.2179241  33.7601018  69.8955107  75.6441593  39.3497777
  69.8060274  76.5455103  39.0402794  70.8009005  75.5843592  39.6546173
  76.3866472  79.0140629  33.0055642  77.2146988  78.5432100  32.9114151
  75.7515955  78.4794474  32.5289941  81.3989639 108.2777882  25.5953717
  81.5848923 107.9850578  26.4875436  82.1692276 108.7880898  25.3453183
  94.3137264   3.8411301  36.4828110  94.5552444   4.5433950  35.8788872
  94.0281296   4.2948306  37.2757936  56.9237566  78.9927769   7.9948735
  56.7402458  78.7881279   7.0779908  56.3839674  79.7609091   8.1815082
  73.8675404  77.6786041  15.2211273  73.2099295  76.9843769  15.2639389
  74.5820332  77.3662710  15.7762694  69.1538429  67.5728893  29.2633843
  68.9802837  67.7682209  30.1842284  68.3330917  67.7789402  28.8160133
 104.3127441   3.1454894  38.6975622 103.3949375   2.9579833  38.8943005
 104.7884464   2.3813418  39.0231681 116.7764759  70.7539463  17.7644098
 117.0896816  69.8496771  17.7436602 116.0606003  70.7449436  18.3997619
  95.1390553  78.9440393   3.0487010  94.7508717  78.9272738   3.9234969
  95.2678204  79.8739004   2.8615871  14.5592749  95.5413914  89.6469688
  14.5658886  94.8637962  90.3230190  15.1203787  95.1936245  88.9538097
  70.3551769  99.5085335  39.1532779  70.1247740  99.1729164  38.2869577
  70.5452442 100.4354000  39.0082908  31.1716104  28.2402182  53.5320997
  30.3808618  28.0307078  53.0350542  30.8575392  28.4153295  54.4191885
  62.6428032  79.5336342   6.2347430  63.2005215  80.3019142   6.3569570
  62.4487782  79.5251751   5.2974522  65.8052731  69.0439129  24.3180060
  65.6720448  68.7944937  23.4035277  66.6694403  69.4553566  24.3305874
  91.3328743  64.1606903  56.1960793  91.8787956  63.8590717  56.9221878
  90.9516239  63.3605480  55.8346128  39.1148424  26.5479088  82.8886318
  40.0079727  26.3521481  82.6053905  38.7148499  26.9832993  82.1358585
  62.7166414  70.2891207  41.5126228  62.1679926  70.9408903  41.9489861
  63.1073713  70.7593679  40.7761240  54.4247532  60.8959055  40.3842688
  54.6131372  60.1544857  39.8089027  55.2229071  61.0070705  40.9008121
 106.5591621  89.1455555  57.4921894 107.1745682  89.7285271  57.9367590
 106.0639668  88.7346268  58.2008266 104.6966076 107.9049683  29.0732670
 104.8979282 107.6393032  28.1759810 104.7874451 108.8578320  29.0670300
  56.4712286  84.7562408  21.4303970  57.0613384  85.5055141  21.3492727
  55.5990410  85.1445961  21.4989376  58.0344439  65.2100134  40.3585720
  58.5211754  64.7252941  41.0251808  58.5192537  65.0549698  39.5479202
  96.3950443  77.9457808  29.9922633  96.4492130  77.0937634  29.5594096
  97.3066425  78.1992483  30.1370788  75.7567120  88.0834770  24.1049075
  75.7967901  88.6306095  23.3205104  76.6453505  87.7419090  24.2043328
  32.5142574  93.2017708  81.5930080  32.7001476  93.4980106  80.7019901
  31.6214871  92.8591919  81.5501595  30.8528328  74.4515657   6.8795013
  29.9148583  74.4384527   6.6890651  31.2048030  73.7006712   6.4014751
 109.2874718  83.8549614  21.1205554 108.6979961  84.5826340  21.3186479
 108.7364483  83.0751801  21.1879754  62.7948523  63.3244324  12.9844320
  61.9697762  63.5263348  13.4256959  62.7194548  62.4002838  12.7467442
  84.1407204  69.5463800  22.8495455  83.6266994  70.1152039  22.2764444
  83.5257721  68.8674736  23.1273055  35.0284457  78.5150766  11.3667727
  34.6636677  79.0281153  10.6456900  35.5451632  79.1438293  11.8706644
  56.1154795  16.4180505  91.8820667  56.6065359  16.0918319  91.1279583
  55.8081913  17.2833216  91.6116714  89.0337086  88.2536697  40.4611874
  88.3278275  87.6175690  40.5767012  89.7793961  87.7325439  40.1635313
 101.1919022  37.0775986  32.3545289 102.0226479  37.4721599  32.6198936
 101.3793659  36.6707754  31.5086079  58.3654308  81.3811207  23.8606024
  58.8648844  81.4766216  23.0496430  58.9531946  81.7045116  24.5433807
  53.6066580  77.0441437  35.0254703  54.4095707  76.9372225  35.5354953
  53.8194847  77.7208042  34.3827677  91.6623497  62.1639442  30.8928895
  91.2343788  61.4181089  31.3133717  91.6483593  61.9530344  29.9593210
 105.2410793  88.9223766  14.3489420 104.2893600  89.0221786  14.3712926
 105.4291916  88.6179352  13.4611571  57.1136999  85.4221249  28.1139278
  58.0179024  85.2645874  28.3856487  57.0989227  86.3430405  27.8533053
  82.4849415 105.0924683  27.3031211  82.9295635 105.2426434  26.4688659
  83.0833721 104.5308685  27.7957773  88.1277657  66.9557476  25.4749942
  88.9334011  67.1086407  24.9812222  87.8585529  66.0715055  25.2262497
  78.8935661 108.5392857   4.2585102  79.7668028 108.2851887   3.9599723
  78.9972448 109.4411182   4.5621285   4.3503278  19.4182134  82.9240322
   4.0228525  20.2606821  83.2390594   4.8220253  19.6305907  82.1186638
  96.3448620 106.5638542  21.9683433  97.1503067 106.1006641  21.7382240
  96.6398335 107.4257851  22.2621036  89.6712112  72.0574474  51.3753939
  88.7714863  71.8067503  51.5848446  89.7052670  72.0505428  50.4188251
  29.1183615  85.9329891  30.6482959  29.2516303  86.5093136  29.8957586
  28.1970024  86.0503960  30.8796930   3.7118444 109.5481777  86.5454102
   3.1852549 110.2595043  86.1807823   4.2506838 109.2493057  85.8129120
  56.0443544  88.9515972  14.5952499  55.6214666  88.2966805  15.1506555
  55.5790043  89.7655678  14.7879553 115.2121162   1.4334914  22.4056602
 114.8246670   1.8373589  23.1821966 116.1521721   1.4216900  22.5856018
  49.8961973  90.0007915  41.5666914  50.6366158  90.5315876  41.2729645
  50.2028227  89.5878887  42.3739862  84.0728283  78.2162142  12.5157309
  84.6435452  78.9637518  12.6937687  84.5073605  77.7474737  11.8032002
  78.6054850  98.1552029  21.7779112  79.1124535  97.3444271  21.7347383
  78.9956045  98.6432934  22.5030351  91.9082928  14.7500575  34.9042201
  91.9236469  14.2167330  34.1095114  92.0775890  14.1290808  35.6127095
  83.5172844  72.3778677  48.0187559  82.6771069  71.9636297  47.8219128
  83.5657024  73.1196594  47.4157381  62.0769072  83.0455589  27.4545002
  61.2632847  83.1579208  26.9629478  62.2507286  82.1049786  27.4182010
 113.7777424  36.9635558  37.8759241 113.2340145  37.7344060  37.7134871
 113.1646729  36.2288165  37.8526974  84.4481754  73.9999628   7.7653116
  84.4307137  74.1501856   6.8201339  85.3350163  74.2439985   8.0302650
  85.5148697 101.9653511   2.2543500  85.4312420 102.7932835   1.7813042
  84.6128654 101.6993141   2.4328184  49.8844719  84.4937134   4.7988722
  49.5371437  84.7495842   5.6533468  50.7688570  84.8594475   4.7805330
  99.7604656   1.4523767  34.0024209 100.5854702   0.9700865  34.0571690
  99.5780563   1.5092339  33.0644822  57.8190994  89.4712448   6.0829365
  57.4704742  88.6610508   5.7110918  57.7542448  89.3475151   7.0298874
  46.7245102  76.5346670   4.9369362  46.7686844  77.3953485   4.5203990
  46.4786148  75.9385586   4.2295301  51.0039282  46.1320400  11.9154596
  50.9991932  47.0880270  11.9633591  51.3651180  45.8518744  12.7564597
  79.3731546  93.9811993  11.6028655  78.4982967  93.8222027  11.9572318
  79.5696211  94.8857117  11.8467772  93.9468575  69.0535402  23.0284429
  93.3556747  68.3444834  23.2813740  93.6983490  69.7854662  23.5930371
  83.6989689  74.6886873  14.4609630  84.1127586  75.5504704  14.5093668
  83.7570000  74.4467068  13.5366738  34.5084715  23.7756276  96.1972046
  34.9217272  23.4607911  95.3932571  34.9404073  23.2850766  96.8965054
  71.6279650  73.0798960  33.1719136  70.7011032  73.2322693  32.9876947
  72.0464563  73.0801296  32.3110437  32.2754359  11.3207459  95.0901127
  31.7979455  12.0067620  94.6236134  31.9446349  10.5032444  94.7179604
  83.4587574  59.2995453  48.1634331  83.2330132  60.2297449  48.1626081
  83.2147217  58.9930820  47.2900724  83.6901855  61.1701822  14.3932712
  84.4106102  60.5841064  14.6250796  83.4714794  60.9357929  13.4913516
  66.3457346  77.0185614  34.3865418  66.8010902  76.9862652  33.5452104
  67.0419168  77.1463108  35.0309348  58.0284834 103.9914799  16.1125338
  57.4930096 103.9175034  15.3225803  57.4786711 103.6325932  16.8090546
  33.6155438  64.7728300  33.2085323  34.1597295  65.5574274  33.2756281
  33.3469748  64.7454405  32.2901893  96.2820530  87.0051670  34.1710639
  96.7143726  87.1893406  33.3371496  95.9197807  86.1256695  34.0639424
 104.2986393  76.1656761  27.6776958 103.5694313  76.3548565  27.0871925
 104.3888187  76.9572926  28.2082057  13.9709580  44.9926329  91.0691643
  13.2216322  44.3971777  91.0560894  14.7163057  44.4451237  90.8223438
  71.3255167  89.2209625   2.6916251  71.7172289  88.4469891   2.2869451
  71.7961264  89.3228054   3.5188991 111.4518452  82.5497723  15.0410056
 111.4496803  83.5033989  14.9583423 111.6236687  82.3901939  15.9690380
  82.0236301  60.5508614  57.3584127  81.1487484  60.6797743  56.9920874
  81.8984318  60.6135082  58.3053160  90.6371117  87.3071289  54.3815088
  90.9738731  87.7652073  53.6114502  91.1924839  86.5315533  54.4607401
  78.0179501  86.0184574  22.5401092  78.4024763  86.3742352  21.7389870
  78.1596231  86.7001152  23.1970024  37.0605612  59.4117689  90.7752705
  37.4534893  58.5392570  90.7516384  37.7028322  59.9754477  90.3440094
 114.7162628  84.1218567  65.0400877 114.7760963  84.7758961  65.7364225
 114.3925095  84.6081924  64.2818737  36.8024790  25.9186883  95.9087586
  37.7021849  25.7040639  96.1551101  36.2625229  25.4711480  96.5602078
  81.7071438  89.3397236  33.1745505  81.3385963  89.1166782  32.3197675
  82.3330021  88.6385441  33.3558798  11.6854644  89.3531990  28.5635805
  11.0821033  89.1039753  29.2636323  11.5997291  88.6555576  27.9138303
  38.5490751  27.3127341  92.4140739  38.1886911  26.5314221  91.9946671
  38.9407468  26.9898725  93.2256126  78.6010790 107.2840500  42.7557898
  78.3119535 107.9337788  42.1150970  78.0003214 106.5481472  42.6384449
  89.2068672  86.2856007   6.7714429  88.9340782  86.8311214   7.5091583
  90.0015736  85.8486652   7.0776433  50.9266043  76.5138149   4.0744337
  51.7512417  76.2502003   4.4827366  50.7373190  77.3735428   4.4502941
  91.4949512 105.4869652  48.9949465  92.2252560 105.1108932  48.5035658
  91.8894863 106.1919594  49.5083189  81.9504642  47.6388788  13.1613660
  82.6653385  48.2335234  13.3884954  81.9798470  46.9603682  13.8358974
  97.2540283  90.8673859  41.5218878  97.5681591  91.4523220  42.2113895
  97.7934837  90.0816250  41.6102028  76.0358334  66.4174509  31.1249304
  75.5633450  67.1296835  30.6939936  75.6199265  65.6205797  30.7959175
  86.0758209  80.9399796   3.8513461  85.9567356  80.0803471   3.4475026
  85.2382946  81.3844109   3.7199813  46.3027859  78.2193756  17.0655429
  46.4971542  78.0347490  16.1466491  45.4348803  78.6227894  17.0503998
 101.0867500 109.6260166   3.4298730 101.4126205 109.5575237   2.5324580
 100.7763386 108.7452316   3.6398450  68.1011868  81.6646385  20.0955987
  68.2423353  81.7478466  19.1525269  67.1503401  81.7008018  20.1995778
  18.8991356   4.2343387  21.3836241  18.4647429   3.6495510  20.7626915
  19.2929161   4.9143016  20.8369803 117.2642326  58.4609652  20.8783245
 117.0022106  58.8522434  21.7116785 117.8268433  59.1195345  20.4709029
  83.1272316  71.0671139   0.6772161  82.4230480  70.4641342   0.9154890
  83.2271099  70.9570265  -0.2683717  85.8520031  75.6875420  19.1798329
  85.2120399  76.3975620  19.2303491  86.2169266  75.7563305  18.2976007
  90.9987450  66.8479586  69.5872259  90.3762245  67.0284510  70.2915859
  90.5820560  67.2036505  68.8023186  98.4146118  98.8978577   3.3854571
  99.2032146  98.5182190   3.7730142  97.6960564  98.3807373   3.7494645
  59.3206024  70.8193254   6.1124563  58.6884403  71.5276766   6.2342703
  60.0546598  71.0530806   6.6805696  59.0445995  93.6312103   8.5499734
  59.5245647  92.8857803   8.1891531  59.6423435  94.0123081   9.1931677
  65.7209253  86.2655258  12.9343808  66.2658787  87.0282745  13.1279397
  64.9413538  86.3842297  13.4769714  98.3431911  96.2450600  15.9909320
  99.0847206  96.5715694  16.5005982  98.7080193  95.5315876  15.4673970
  71.5839863  87.8515339  36.6496849  70.9962320  87.4968338  35.9826255
  71.0236597  87.9904652  37.4132085  47.5219250  58.2279158  13.3399272
  47.0876408  57.4609566  13.7132943  47.6831532  58.8005829  14.0897858
  84.2092991  73.3765936  52.4555826  84.1218472  73.2355499  53.3982897
  83.3083344  73.4306335  52.1368885  80.1087570  71.8320656  11.8657911
  80.4077911  72.6057482  12.3435199  79.1928005  71.7301083  12.1243656
 107.1860600  50.5835009  57.5293207 106.2657738  50.3552532  57.3981571
 107.5908184  50.4483652  56.6725016  57.4502134  64.7897911  31.1609173
  56.5921974  65.1956797  31.0372353  57.9762936  65.4667521  31.5865827
  16.4312971  97.2978401  85.9183502  15.6144965  96.9936085  85.5227375
  16.2304163  97.3782349  86.8507767  70.7985735  94.1966057  13.7383914
  71.6664743  94.5484447  13.5404253  70.9039497  93.7609577  14.5841694
  75.0155973  64.0228891   2.1520865  74.9880219  64.2394876   1.2201235
  74.9183369  64.8649740   2.5966758 102.8749275  55.1663256  31.8250728
 101.9300842  55.1766777  31.6721344 103.2536125  55.4863405  31.0062790
  85.6245041  93.9244938  56.2060976  85.8234406  93.7619305  55.2840185
  84.8087788  93.4487534  56.3626146  27.2691655  41.0280228  87.8472042
  27.8892732  41.6453075  87.4590588  26.8365717  40.6196690  87.0973110
  73.2181215  80.3851318  14.7437048  73.7556076  79.5936203  14.7728384
  72.3356581  80.0684261  14.5508611  96.5685368   6.1717230  25.8826447
  96.5711975   5.8213156  24.9918938  96.9148540   7.0594448  25.7918453
  98.8003349 104.9861622  14.8039365  99.0773201 104.9817467  13.8876987
  98.7191772 105.9139061  15.0251472  64.8459053  14.7241449  91.7859459
  64.2335129  15.1634705  91.1958599  64.9848080  13.8638878  91.3898468
 103.1283379 102.6503754  14.0756035 103.3419609 102.0524406  14.7918952
 103.9586449 102.7822113  13.6179650  69.9902582  68.2564259  17.0364594
  70.8502865  68.1897354  17.4513578  70.1726723  68.5962296  16.1603940
  68.4608650  77.6454449  35.8934784  68.9895391  78.3012486  35.4388762
  68.5514545  77.8655243  36.8206191  81.0707760  76.9162941  23.2684278
  81.1428165  76.0222530  23.6026955  81.5398407  77.4502468  23.9095998
 104.6874809  94.5266724  29.7807264 103.8584709  94.5965004  29.3073368
 105.3570938  94.5624256  29.0976620  84.5234585  76.0378933  33.0144429
  84.7148418  76.9297457  32.7242565  84.5925331  76.0763979  33.9683723
  29.0169644   5.5708975  14.1966522  28.1451392   5.1766819  14.2240298
  29.5697761   4.9640882  14.6890068  89.6701717  90.3620434  13.6119878
  90.4061508  89.7526932  13.5548890  89.3122005  90.3890610  12.7246559
  34.7533393  68.7283850  38.2261610  35.2472758  69.5478153  38.1980753
  34.0020061  68.9207220  38.7871742  46.3060904  86.0388947  89.4178772
  46.5812874  86.8787575  89.7854710  46.5565872  85.3942204  90.0795937
  95.0948906  38.0258775  17.6826155  95.2214146  37.6054430  16.8320525
  95.9817791  38.1950378  18.0004740  71.5646935  63.9892149  29.6083903
  71.6248274  64.2786884  28.6979938  72.3963165  64.2561674  30.0000238
  69.6339798  77.6955795  60.6321335  70.1906872  77.6367807  59.8556995
  68.9478064  78.3168507  60.3883743  16.2933886  20.0780530  96.2692852
  15.7073271  20.7859893  96.0017252  15.7217085  19.4452424  96.7039847
  52.0449638  58.0463982  37.4691343  51.8513536  58.8657093  37.9246330
  51.2068272  57.5850105  37.4394679 103.0145264  74.5068216  19.3620968
 103.0098343  74.6463871  18.4151375 102.5128365  75.2416706  19.7149920
  68.2366657  65.7517529   7.8930056  67.9533625  66.6659594   7.8790033
  67.4809837  65.2719879   8.2321262  22.9501963  14.2877591  43.6414242
  22.7595639  15.1208222  44.0725803  23.8302112  14.3999755  43.2819605
  45.1946926 109.7888851  31.4823890  44.5758820 109.2574310  30.9815335
  45.8013296 109.1543388  31.8639350  42.6903915  46.6052866  89.0914154
  42.7508068  45.7323170  89.4793701  43.3484030  46.6045094  88.3962536
  78.8144970  87.1956348  20.2742600  79.0992737  86.7687225  19.4662464
  78.1392002  87.8132725  19.9936688  54.5960951  89.3650627  35.0521874
  54.9429083  89.8151398  34.2818761  53.6960316  89.1423512  34.8144507
  55.1262808 106.9983196   3.4158468  56.0752392 107.1224689   3.4330028
  54.7693491 107.8855515   3.3751667 100.7050991 100.6804943  20.1696157
 100.6585407 101.4192486  19.5627367 101.5311527 100.8059025  20.6366706
  48.6270094  10.8538032  90.0535870  47.6709366  10.8742702  90.0953007
  48.8325882  11.0958540  89.1506004  64.3436956  89.2857265   1.1334705
  64.8756123  89.6298027   0.4158976  63.5060310  89.0650558   0.7262191
  92.0124817  56.1275959  41.3598442  92.7046204  56.2118387  42.0156431
  92.4534988  55.7655287  40.5913115   2.9356340  89.8136044  22.3982692
   2.4883236  89.2528152  21.7645097   3.2738030  89.2076206  23.0575562
  56.0326767  87.8764725   1.4364989  55.7478428  88.0243492   0.5347024
  56.3555861  86.9754028   1.4409834  89.9893475  88.9268303  68.5799265
  89.1223145  89.2368221  68.8414431  90.2513027  89.5164490  67.8728485
 104.7264862  77.4556398  20.6744528 105.1964855  77.7120066  21.4679384
 104.9440098  76.5311193  20.5553842 105.8564663  23.9517093  32.5546622
 106.6695976  24.0741038  32.0647001 106.0732365  24.2167234  33.4485340
  94.0673161  90.9075928  16.3072610  94.9416447  91.0331726  15.9384799
  94.1128731  91.3107300  17.1742296  77.9704094 106.9738770  57.5455999
  77.3502207 107.5573635  57.1083975  78.0132580 107.3000526  58.4444904
 111.5394783  97.5909042  18.1487751 112.3516464  98.0292416  17.8948510
 111.7296124  97.2130013  19.0074205   0.6673276   9.8947662   4.3629950
   0.7346118   9.3199688   5.1254338  -0.0032231  10.5341125   4.6034750
  66.8054152  11.4660144  29.9429965  66.7315865  11.6259456  29.0021443
  67.5575352  10.8800852  30.0280523  44.3022060  32.2410393  80.5400467
  43.7941790  31.8427920  81.2468338  44.3729258  31.5527105  79.8786592
 102.5743103  71.6308022  19.3659770 102.9177570  72.5237036  19.3974936
 102.5997734  71.3969994  18.4381187  66.1804247  20.4221225  91.0441113
  67.1089363  20.4960465  90.8235836  65.7302570  20.9027290  90.3494167
 117.5489878  18.2768142  52.5010538 117.4583456  19.2236078  52.3933649
 116.8637730  18.0401671  53.1261253 100.4344463  73.3197165  40.5605364
 100.1445580  73.1738615  41.4610481 100.2540016  72.4925661  40.1138878
  81.9363976  68.2192755  17.6663053  81.0626411  68.2672167  18.0542421
  82.5277233  68.1497240  18.4157848  54.2055368  80.9533978  51.3777351
  54.6949911  80.8310604  52.1911860  53.3562231  81.2943363  51.6582060
  63.7571669  37.7714086  91.6438866  63.1354237  38.3810115  92.0414448
  63.8037920  38.0410743  90.7266426  85.6868267  99.2248440  37.5241518
  86.3725567  99.7596550  37.9241347  85.0255585  99.8561382  37.2405696
 101.2761688  13.4162831  54.4404507 101.3411331  13.4601057  53.4864664
 100.7074833  12.6646757  54.6075201 101.2383556   3.6471513  17.3616755
 100.3605747   3.7760010  17.7210164 101.4444733   2.7326369  17.5550914
  68.5083580  62.6804495  10.5284083  69.0297842  63.3078814  10.0277340
  67.9237127  62.2849846   9.8818541  84.3746090  91.5647984   9.7307235
  84.3782711  91.9031429  10.6261253  83.4739685  91.2735367   9.5884317
 114.4179726  74.8205471  21.1653376 114.7481251  74.7957945  20.2672172
 113.6277580  75.3584003  21.1152935  12.0117474  27.3700953  78.8609886
  12.0073712  28.0961084  79.4847822  11.2640500  26.8299818  79.1168404
 113.3853436   6.2309784   1.6313250 113.6921787   5.3742331   1.9280896
 113.4439659   6.1889511   0.6768468  94.5607185  99.9469662  12.6066577
  94.5436287  99.5698071  13.4862554  95.3346920 100.5101585  12.6025426
  84.2368984  43.0498791  15.4726350  83.9691067  43.8342190  15.9515154
  83.6941242  43.0536413  14.6842074 109.8203564   1.4350052  39.0827250
 109.9084854   0.8330542  39.8217249 109.9273491   0.8816792  38.3090234
  83.6096287  71.5455341  27.6262164  82.7122116  71.8710423  27.5560927
  84.0944958  72.2650766  28.0304432  31.4721966  13.9467072  86.0066605
  31.7666173  14.3688726  85.1996136  30.6077552  14.3229651  86.1721992
  77.7283525  76.7904186  23.1156754  77.9072857  75.8909273  22.8415751
  77.7432203  77.2959089  22.3029709 110.2979088   4.9699908  34.3666101
 110.4233265   4.3011284  35.0397563 109.4499683   5.3626150  34.5741391
  53.5115957  80.9284210  48.6036873  54.1565371  80.4273319  48.1045008
  53.8569164  80.9411526  49.4963360  86.5841293  81.0819721  34.8604512
  86.6773224  81.8500137  34.2968464  87.4796581  80.8650303  35.1196694
  60.6936073  96.6534901  25.5688334  61.2179756  97.4233341  25.7893443
  59.7932911  96.9127846  25.7648587  22.1104217  32.0485687   6.1503661
  21.1706567  32.1918869   6.0384011  22.4386001  31.9071126   5.2623796
 101.0819435  91.1523533  32.3566461 101.8565655  91.0769463  32.9138756
 100.3620625  90.8375072  32.9033470  34.0827489  69.7870684  16.2719178
  33.4195352  70.4580545  16.4336681  33.7714076  69.0213156  16.7545319
  96.0091209  79.8179531  15.0405729  95.7420444  80.6162930  14.5849919
  95.4595757  79.1313171  14.6627247  17.5442755  18.0802369  21.0870743
  17.8445899  18.8689649  21.5386844  16.6640949  17.9277873  21.4309835
  52.9175138  40.1748466  80.7685184  53.1718254  39.3673086  80.3219318
  52.4758768  39.8793721  81.5646839  91.9535923  86.0977650  35.9239697
  91.1445045  85.8684540  35.4667735  92.4451256  85.2775288  35.9669685
 104.3310452 105.5749321  23.6565399 105.2482224 105.8357906  23.5730720
 103.8506222 106.4013004  23.7068915   5.0428003  91.7268848  22.2279096
   5.2164465  92.1440029  21.3840556   4.3023866  91.1441708  22.0591950
  75.4064703  71.6436291  39.8791981  75.4226017  71.2901306  38.9898109
  74.5377254  71.4171791  40.2112198  71.8984318  98.0934620  14.7969055
  72.5543070  97.3987865  14.7377968  71.2060595  97.7231979  15.3444099
  86.5102863  90.3930283  17.9551566  86.0162163  89.7068501  17.5065053
  86.4280891  91.1583519  17.3861706  76.7355967  70.0886250  19.2834044
  76.8658972  69.3790531  19.9124992  77.5527859  70.5862904  19.3110478
  32.3335814  23.9313722  33.4787154  31.4471364  23.7711143  33.1550407
  32.4715090  23.2565427  34.1434026  91.1277580  86.1307907   4.0090263
  91.1011982  85.1757908   4.0681362  90.3853703  86.3568211   3.4486669
 111.9214344   2.0260385  58.0624485 112.2236347   1.8537872  57.1706820
 112.5115776   2.7056095  58.3882523  54.6665525  70.0746250   1.9448130
  53.8618708  70.5927610   1.9606052  54.9287510  70.0674105   1.0242517
  47.6148081  95.7727528  28.8950777  47.4934483  95.0906467  29.5555592
  48.0115938  95.3185368  28.1517863  69.9820709  76.4857292   5.8769536
  70.6988287  76.8029261   6.4263874  69.6059465  75.7572174   6.3709438
  73.7591124  96.0492897  21.2506962  74.4834995  96.0945606  20.6266427
  72.9845715  95.9008312  20.7082272 106.3027954 100.3582668  56.2891245
 105.5580711 100.9594440  56.3036823 106.5375042 100.2900791  55.3636551
  20.6805563  11.1097455  87.1844101  21.2639761  10.5891860  87.7365589
  19.8431718  11.1034513  87.6480675 103.3747387  54.9817085  27.8855300
 103.1909466  55.1576805  26.9627666 102.9790974  55.7173109  28.3530617
  85.0641632 100.8315849  24.7680664  85.0099182  99.9866295  24.3215895
  85.4281998 101.4261341  24.1121483  85.6267643  61.5533495  53.9209366
  86.1396217  62.3520470  54.0446138  84.7331333  61.8629694  53.7733412
  62.6475859   9.7849941  60.2978086  62.4478149  10.6708848  59.9952841
  61.8808413   9.2685372  60.0495863  40.7545996  23.2537603   3.0135381
  40.2357769  23.8783717   3.5204053  40.1300097  22.5746155   2.7588153
  80.1712227  90.5971432  24.1147685  80.6006050  90.4940701  23.2655096
  79.9958754  91.5357208  24.1821623  95.0202179  97.2265816  22.8037214
  95.4024601  96.5093422  22.2980595  94.0753937  97.0859241  22.7424169
  82.7817917  94.8072433  44.1664886  82.7419853  93.8656425  43.9990282
  82.7628136  95.2062225  43.2966137  48.4726381  64.5264435  10.9265435
  47.7193737  64.0279531  11.2432933  49.1025162  64.4920015  11.6464734
   0.1137420   7.8536016  93.3830166  -0.1336164   7.4669302  94.2229843
   0.9820457   8.2258010  93.5371208  64.7672081  95.7285213  28.2123470
  65.4527855  96.2895012  27.8496981  64.7790956  94.9475861  27.6589656
 105.3896904  12.9438519  45.6824780 105.5562019  12.3370183  46.4037657
 104.4657421  12.8140366  45.4687119  51.5793180   6.9417000  27.1045732
  50.6957483   6.7025048  27.3844242  51.5744877   6.8089622  26.1566353
  83.7506866  81.4953613   5.5790734  82.9485226  81.0070038   5.3939545
  84.4522953  80.9431362   5.2340889   7.7150655   7.8446668  12.8074527
   7.6441872   8.3255017  13.6320770   7.8777879   6.9390970  13.0714536
   3.4995991   4.2760611  53.9677858   4.0466580   3.9618143  53.2479191
   4.0863296   4.2950886  54.7238398  59.8697090  82.2002411  18.0076170
  60.4807949  82.7818298  18.4598923  59.2281246  82.7891064  17.6103330
  65.3703117  90.8727741  24.0698862  65.9892511  91.5765858  23.8755035
  65.4584026  90.2664566  23.3344626  42.9337978   6.7414206  36.9090819
  42.8145218   5.8247960  37.1576858  42.3902512   6.8506336  36.1287832
  66.1551952  27.2009659  96.1804199  66.6930962  27.8943205  96.5627193
  65.5510759  26.9530821  96.8802929  29.1483498  29.1318059  87.6781559
  29.5497155  29.3878436  88.5085678  29.5783138  28.3080983  87.4482250
  73.1868410 109.2869759  31.0131717  73.0331182 109.3207169  31.9573426
  73.8289595 109.9778843  30.8502054  43.9458466  85.8230591  28.3474565
  43.5987854  85.1186848  28.8948417  44.4334984  85.3724575  27.6579738
  67.5069618 106.8451500  26.4047217  68.4515047 106.9111156  26.5451574
  67.3604012 107.2687721  25.5589724  63.1014061  35.4480839  87.4274158
  63.7311649  34.7626472  87.2042274  62.8510714  35.2581501  88.3315659
 103.2017422  93.3132458  22.3115563 102.2694969  93.1711864  22.4757361
 103.6277008  92.5273228  22.6537752 101.0594559  87.0037174  60.6730080
 100.8141136  87.8941059  60.4215097 100.3926373  86.4483929  60.2690315
  97.6976109  75.7352400  25.6848407  98.2291126  75.1485538  26.2229252
  97.2563839  75.1562405  25.0632977 105.4089832 108.0773067  36.2815595
 105.0299740 107.6671600  35.5041504 105.0510788 107.5769806  37.0149136
  92.9231358  94.5207119  19.7168255  92.9988480  93.6089039  19.4355667
  92.4213982  94.4793701  20.5309415  95.9568977  98.5675240  25.0905061
  96.7454624  99.0784168  24.9078131  95.6462479  98.2900715  24.2286730
  90.2396107  59.1151381  27.5988245  89.7806168  58.2899380  27.7556539
  91.1645317  58.8714600  27.5617719  57.4346876  91.1943626  39.2512751
  57.7822590  90.9179497  40.0992298  58.1627131  91.0708141  38.6422205
  28.5276031  85.9158039  16.2468433  29.3850803  85.8259010  15.8310544
  28.5850620  85.3740406  17.0338738  34.3308473  10.6583798  80.2754974
  34.5902491  11.3393259  79.6548080  34.3244958  11.0987675  81.1253548
 106.0344124  12.1625161  58.2994890 105.8535957  11.6544664  59.0903282
 105.1752281  12.4702978  58.0108738  38.5535669  99.2904472  23.8253427
  37.6033306  99.3216038  23.7143826  38.7055397  99.6618652  24.6943545
 107.4489117  61.2273264  14.2966962 107.1156406  60.3933764  14.6278870
 107.7326202  61.6996956  15.0793922  11.9773781   7.8393990  64.9349546
  11.4965951   8.4745270  65.4657030  11.5237689   7.0099139  65.0847101
  60.8615065 106.1954594  11.0527766  60.0577450 106.1375523  11.5693474
  61.5472221 105.8779335  11.6403103  65.8086443  74.5986509  31.2891221
  64.8538208  74.5351791  31.2666154  66.0709333  74.0131378  31.9994831
  81.9921207 101.4463425  10.5159199  82.3079491 100.6496811  10.9423172
  81.7473507 101.1652088   9.6342820  31.1137915  17.7905011  93.7399769
  32.0389271  17.7472508  93.9818096  31.1143112  17.7540886  92.7834702
  70.1572466 101.2132168  48.7738132  71.1054087 101.1451721  48.8860083
  69.7929811 100.7389259  49.5212078 102.6284885  89.7658634   4.0316421
 103.1939602  90.2710342   3.4474567 102.4610901  88.9512920   3.5576397
  86.8235111  92.5711823  59.9618149  87.4091911  92.5719261  60.7189226
  87.3992062  92.4120903  59.2138147  12.5431430  19.2870772  20.7807970
  12.1863186  18.8141656  21.5326357  12.9386032  20.0729823  21.1578894
  -0.0525773  10.3708935  46.3351107   0.7857024  10.8162570  46.4582872
  -0.4079069  10.7475865  45.5300808  17.6392221   5.4820573  38.3094096
  16.9986451   5.9380722  38.8552523  18.1444561   6.1826855  37.8969908
  95.6499958  69.7224188  18.4419084  96.1380291  70.1051283  19.1710126
  95.7509041  68.7774086  18.5559595  98.6164856 110.2034283  39.9164724
  98.1416988 110.9562778  39.5642948  97.9795933 109.4890785  39.8990345
  68.0375671  77.7371788  94.7304821  68.6978531  78.4279203  94.7864532
  67.2283030  78.1549883  95.0250340  46.2069368  14.6829462   6.7860734
  46.2970686  13.9775455   6.1453557  46.9827700  14.6030450   7.3409939
  22.5090003   6.6384566  20.4311562  22.2205830   7.5144356  20.6874919
  23.4485769   6.6326207  20.6138897  73.6007309  26.1324573  37.6926231
  72.8591919  25.8147430  38.2078028  73.7210369  25.4700089  37.0122409
  78.3741665  51.4715338  70.1455212  78.8951015  52.2431278  69.9230242
  78.9261532  50.9762430  70.7506895  29.3933940  10.0544083  28.6407542
  29.8941183  10.1282561  29.4531918  29.9522519   9.5367122  28.0611849
  48.7682295   5.7168639  27.7794504  48.9505005   4.8132768  28.0374002
  48.6785364   6.1888391  28.6073542  56.5353346  39.0739489   8.5877800
  56.0239172  39.8828840   8.6053288  57.0850229  39.1549635   7.8083515
  59.8951864  55.7025242   1.4163095  59.0535593  55.8593607   0.9881775
  60.3081036  56.5651608   1.4560945  63.2048130  30.6502295  12.1010172
  62.2908211  30.9157085  11.9991899  63.5023785  30.4691339  11.2094498
  71.6272640  30.4553461  34.1642594  71.8949413  31.3046145  34.5154357
  71.8442488  29.8307943  34.8564196  94.9609089  13.3593273  11.4743006
  94.7577381  13.2757437  12.4059486  95.2795601  12.4932861  11.2200117
  77.8744411   0.5558523  42.8820372  78.0570221   0.4634971  43.8171101
  76.9556952   0.8215145  42.8424931  24.2491269  38.3883572  30.1587915
  24.7546911  38.6313653  30.9344101  23.7926340  37.5860667  30.4121232
  81.2746048  92.6762772  90.4115772  80.8888435  92.9325104  91.2492943
  80.9709930  93.3420181  89.7944546  41.3609934  14.2847300  38.6739159
  41.0662317  15.1953936  38.6676621  40.9201097  13.8851249  37.9241371
  35.7222939  16.1591196  48.0886078  35.3484178  17.0163608  48.2925320
  36.6672707  16.3096344  48.0641699  82.4365044  32.3012519  26.4885664
  82.2338009  31.3733983  26.6078663  82.0760441  32.7270937  27.2663593
  97.7183723  17.5303233  12.6077521  97.0979309  17.1279025  12.0000136
  98.1559849  16.7901635  13.0283332 117.6742962  61.8701029  80.4784966
 117.5675514  62.8194904  80.5376625 118.2018850  61.6402769  81.2433910
  60.8631134  22.7170801  15.3873849  61.2176323  22.6172543  16.2708902
  61.3944578  23.4086156  14.9928200  18.8487673  67.5146770  90.9320354
  18.8855100  68.2660580  90.3401661  18.6431205  66.7721844  90.3640175
  74.1079807  44.1605091  24.9341583  74.4924498  43.4694672  24.3948317
  73.1950045  44.2059517  24.6501946  48.1375933   5.5565244  11.4771938
  47.6452827   4.8487806  11.0613036  47.8644562   5.5315572  12.3942566
  84.1191769  11.7009377  45.6748343  83.8544083  10.7939661  45.8282328
  83.3325958  12.2144449  45.8587503  56.2414503  14.9249506  51.5049934
  55.8187199  14.5487773  50.7329655  56.6191053  15.7477736  51.1942387
  39.8767805  14.0476274  43.0427122  40.6832457  14.3709588  42.6410866
  39.9538732  13.0944502  43.0009890  75.2472067  66.8748713   7.3630130
  75.8053350  66.9991493   8.1306565  75.7664204  66.3254833   6.7757958
  54.8881674  61.2893057  33.1632900  54.8558712  60.8557749  32.3105049
  55.7596493  61.6836452  33.1986547  69.0623140  38.7457705  17.8496861
  68.3590412  39.0248370  18.4359956  69.6878958  39.4701099  17.8642762
  31.5061808  21.9466734  21.6860294  30.9579372  22.5188208  22.2229695
  30.9652424  21.1721349  21.5320492  34.6506858  36.6182256  24.0996861
  35.3433061  36.6640830  24.7587824  33.8577509  36.4222097  24.5987487
  15.7470965  35.1029539  19.7529066  15.8242011  34.7307110  20.6313825
  16.0572362  36.0036802  19.8463809  98.5020542  59.5282030  83.2647896
  99.3894386  59.3636847  83.5837173  97.9418755  59.3754053  84.0257645
  61.9519901  14.4389737  18.3402228  61.6133261  15.3093445  18.5499656
  61.2307787  14.0047145  17.8846967  52.0934486  24.4186258  26.9922304
  52.9873514  24.5348644  27.3141956  51.8683958  25.2624369  26.6003561
  39.0884304  12.1790266  30.8843279  38.6021495  11.7586350  30.1750803
  39.6608996  12.8065848  30.4431009  39.0304470  32.6559806  37.4372506
  39.3403769  32.8303313  38.3259439  38.2256055  32.1522999  37.5587773
  69.9920607  53.9438581   2.8203928  70.8659649  53.8303423   3.1940752
  69.4494867  53.3040857   3.2814074  67.7585459  66.0633802  19.1537631
  66.9131613  66.4828205  18.9936972  67.5480032  65.2947950  19.6840262
 101.0511780  82.6229954  64.5975018 100.4964161  82.6376057  65.3774118
 100.5007648  82.9890060  63.9051723 114.4037151 100.1527214  71.8058109
 113.9104843  99.7714520  71.0794592 114.4093418  99.4695473  72.4762297
  37.2166181  31.0677528  16.6381955  37.9996109  31.3376451  16.1582851
  36.8681502  31.8805504  17.0044744  90.2573967  53.0913353  62.9507065
  90.9808826  52.8607512  62.3679304  89.8654366  53.8674641  62.5504160
 117.5653172  92.5848198  79.5543051 117.4149990  93.5196400  79.6948433
 116.6880989  92.2112560  79.4695950  48.3108282  27.9971552  14.3890011
  48.4730053  28.4343338  13.5530543  47.5386715  27.4543905  14.2295957
 108.8481712  55.8378029  66.4167070 108.4022045  56.4716148  66.9785213
 109.2503929  55.2188969  67.0261383 117.5461197  58.4902811  93.5569954
 116.6409492  58.6507750  93.2902718 117.8404713  59.3255520  93.9201927
  31.6459846  32.7090931   2.5808525  31.0928535  33.4895945   2.6139545
  32.4815106  33.0221820   2.2342931  76.0953522  39.4488955  19.4200313
  76.3408899  40.1449776  18.8105929  76.2831354  38.6385846  18.9463592
  43.1347275  49.8133564  48.2924509  43.5768366  49.0099621  48.0179834
  43.3618402  49.9076653  49.2175245  96.6459656  57.2251320  89.4213104
  96.4397144  58.1332207  89.1997910  97.5956059  57.2175932  89.5411682
  63.6948252  44.7087622  12.0152664  62.9768467  44.2552423  11.5736163
  63.7108278  45.5783081  11.6154313   2.4743275  82.2981930  70.4212093
   1.6800620  81.8662167  70.1069260   2.5509700  83.0828953  69.8784351
  58.7332439  29.8198152  14.2320740  59.1251469  30.4983568  14.7818255
  57.7998781  30.0316715  14.2189240  39.3773293  38.2866120   8.0873048
  39.3645740  37.4130058   7.6963085  40.2567720  38.6177254   7.9051542
  99.9599648  88.9344215  94.5809269 100.1373863  88.6136150  95.4651356
 100.8236599  89.1388321  94.2224979 107.7737141  97.1882439  77.8101873
 107.2187519  96.8968010  77.0867777 107.4975300  96.6534042  78.5544395
  80.8873081  28.2737923  21.6714144  81.7336082  28.3335781  22.1146274
  80.9228802  28.9501190  20.9949923  89.9704933  58.6772394  89.1406536
  90.3619766  59.5502090  89.1106033  90.4600239  58.1727266  88.4909916
 109.0491772  88.6240005  75.4842854 108.9990139  88.5211182  74.5339537
 108.2952785  89.1704845  75.7061625  38.6077833  49.8453951  14.5108521
  38.4980917  49.0163469  14.9765599  38.2482982  50.5036068  15.1056290
  36.0500145  75.6614351  18.7806582  35.8886123  76.3526440  18.1384659
  35.1773453  75.3932762  19.0683556  43.9852238  36.9462752  22.3496437
  44.5714092  37.2578692  23.0392289  44.4653368  36.2310934  21.9322205
   0.2333724  66.0225344  85.2941799  -0.1101125  66.8998575  85.4631615
   1.1836230  66.1220980  85.3520489  56.3106251  28.9622474  42.9116678
  56.5120029  29.5066619  42.1505547  56.2665749  29.5789790  43.6423731
  25.3786063  29.6548915  27.2551990  25.9864736  29.8034883  26.5308738
  25.8729196  29.9010468  28.0370522  32.6728487  27.8900814   7.0829153
  32.1973014  28.1428766   7.8742319  33.0081630  28.7147784   6.7312455
  82.5465870 103.1823540  70.4481649  83.1761932 103.6399841  71.0052967
  83.0445194 102.9508018  69.6641493  68.7700844  24.0773010  23.7413335
  68.6921310  23.9412665  24.6856046  68.0132389  24.6173716  23.5138655
  57.5214434  27.2033381  48.0157232  57.9640532  27.9027653  48.4964800
  58.2258558  26.7441702  47.5583410  40.0501585  67.2623634  10.5321980
  41.0026598  67.1984720  10.6021595  39.8878026  67.4100018   9.6004927
  92.3381615  48.8536596  16.3179517  91.8038082  48.1332922  16.6522634
  91.9610310  49.0541124  15.4613149 106.1159420  79.2944908  77.4584103
 106.5790558  79.1715288  76.6297770 105.7014370  80.1533413  77.3759794
  47.1391726  43.3764124   6.4288723  46.7843819  42.8337097   7.1330243
  46.5280294  44.1099596   6.3607180  60.8407688  26.9872046  24.3032885
  60.7819462  26.6422367  23.4123516  60.0434971  27.5055194  24.4125628
  77.4206972  97.4572086  95.7649326  77.6610804  96.6596508  95.2933884
  77.9986286  97.4677658  96.5279007  40.7643843  25.2446675   7.9118216
  40.8747482  24.4103122   7.4558586  41.1464643  25.0971889   8.7769777
 116.4035225  14.8026192  11.4559209 116.6173458  14.4019175  10.6133354
 116.7681980  15.6858909  11.4005077  38.7686133  52.4592304  43.9029503
  38.4714389  52.9595137  43.1429291  39.6571088  52.1845198  43.6763620
  57.0206320  40.2151778   0.3013486  56.8570578  40.3393081  -0.6335669
  57.9746687  40.2096751   0.3789110  41.4408159   5.8421612  34.4139004
  42.3302460   5.7117671  34.0850520  41.2988615   5.1121908  35.0165820
  61.9498968  29.4170737  40.1513433  61.5706444  29.3633342  39.2741251
  62.6345348  30.0817704  40.0759792  59.7827053  29.4941854   9.0547705
  58.9237881  29.7875404   8.7507355  59.6066713  28.6727452   9.5135504
  23.5221815  17.9802847  83.8580513  23.3780718  18.4663713  83.0461407
  23.0591846  17.1527958  83.7271881  94.9098873  99.8748875  77.1661758
  94.7249889  98.9589119  77.3736429  94.9840641 100.3033447  78.0189037
  48.3793879  16.9556129  15.5740929  48.2408905  16.2283790  14.9673140
  49.0913963  16.6613173  16.1421299  14.6556258   5.5220628  93.4982014
  14.0100288   5.0965059  92.9339886  15.2184582   4.8085183  93.7987137
  38.4857941  18.2974875  38.7527251  38.2408690  19.1904581  38.5101390
  37.8877831  18.0701458  39.4647145  28.5914588   8.8442022  93.4306049
  29.3077993   8.3375955  93.0479240  28.8665104   9.7562575  93.3371449
  57.7751970   7.8278589   4.1695213  58.2673645   7.0068938   4.1654122
  57.4793863   7.9252464   5.0746417  89.1572094  87.0399857  93.6226082
  88.3185482  86.5807056  93.6667156  89.5472622  86.9099236  94.4869995
 116.1311054 110.1798534  15.3352106 116.6284847 109.9579334  14.5480669
 115.9051418 109.3340015  15.7221508  62.7003908  79.8882294  17.9797590
  62.4553490  79.1324568  17.4459136  63.6076355  79.7183466  18.2332873
 104.4484329  62.0833158  25.4922414 104.4829464  61.7126942  24.6103811
 105.1145840  62.7706766  25.4894090  54.0428543  15.6625950  15.1777673
  53.2607698  15.1264751  15.3087461  54.4048882  15.7767653  16.0564744
  48.2570839  26.7508078   1.1195297  48.8502836  26.4730740   1.8175313
  48.4542608  27.6788640   0.9927773  12.0494258  93.0306339  93.6172867
  11.2103152  93.3267498  93.2645321  12.3605382  92.3836994  92.9841042
  96.3224983  86.6242504  80.0481319  95.9990978  87.4983025  79.8297739
  95.6182766  86.2299538  80.5627537  47.4455643  25.1308942  20.8999753
  46.7670298  25.4240918  21.5081334  47.7820539  25.9374809  20.5095601
  57.7903700  20.7563996  20.8950353  57.1165848  20.3807521  21.4617229
  57.3072815  21.0983324  20.1427460   7.8871632 106.6059208  23.9681530
   7.9200387 107.4511433  23.5201144   6.9566900 106.3823509  23.9898181
 101.7647457  72.8790665  91.1980915 101.7974663  71.9596052  90.9339905
 101.5904808  73.3553791  90.3863144  55.9084368   1.3413385  17.7208626
  56.5189934   1.6859798  18.3725333  55.1310730   1.8934183  17.8054035
  20.7333493  24.1655040  20.8844304  20.3692770  23.3188486  21.1430073
  21.2932396  23.9663506  20.1340365 111.7604923  22.0891047  28.8964367
 110.8122253  22.1963882  28.9707041 111.9824886  22.4945951  28.0582690
 116.6929722  97.8437996  14.1137815 117.4517059  98.4175491  14.0070820
 116.7837620  97.4885941  14.9979842  10.4781795  32.1870017  42.6649523
   9.5939845  32.2400689  43.0277395  10.3948331  31.5964508  41.9162655
   6.2051344 100.3247261  22.9152703   5.3642988 100.2484798  23.3662844
   5.9840631 100.6819725  22.0551944   7.3921787 110.8428902  10.6648457
   7.3427975 110.8998719  11.6190720   8.3209479 110.9608873  10.4656065
  42.6543665  30.8418989  23.8440919  42.8051376  31.7443204  23.5627794
  42.8209972  30.3161335  23.0617642  59.1194248  31.2357450   1.0463922
  58.6184025  30.4205012   1.0221413  59.7701931  31.0965514   1.7343989
  97.2646463  86.5763518  95.3255369  97.9760063  86.7174289  95.9502719
  96.9314468  87.4542376  95.1397216  58.9002991  16.8926489  26.1873150
  59.3491459  17.7095950  26.4049554  58.7947989  16.9233024  25.2364397
  46.2198496  15.4046762  11.9990754  46.0081339  15.1122534  11.1125672
  45.3896856  15.7276785  12.3494005 111.0401630  63.7267733  85.4535007
 111.2686729  62.8105736  85.6103325 110.3384972  63.6907291  84.8034286
  74.6553421  13.9023256  12.8655231  74.2814732  13.6258614  13.7021983
  75.3124046  14.5571649  13.1014955 115.4883766  41.0171652  87.5185394
 114.6223068  40.9699297  87.1136665 115.3782940  41.6255379  88.2492828
  76.6039181   8.0654788  12.0443368  76.1910152   8.9039284  12.2510839
  76.4174223   7.9292566  11.1154163  19.1753531  72.0774889  21.4587426
  19.9312031  72.6452732  21.6088820  19.3151426  71.7194223  20.5821157
 117.2916317   7.6469636  18.5330606 116.4300251   7.5417012  18.9365363
 117.7915764   8.1615216  19.1667092  14.9036407 109.8893738  26.9847298
  14.4901550 110.5398083  27.5523591  15.1175129 109.1624451  27.5695944
  87.7475452  58.3134651   3.1517261  88.3759594  58.9981031   3.3810762
  86.8914509  58.7262011   3.2657239  55.9270239  37.5727892   3.8175499
  56.5854740  37.2310424   3.2126671  56.1932468  38.4787226   3.9745322
  68.5745525  25.3379416  16.1002946  68.2859802  26.0315442  16.6934848
  67.7788544  24.8426938  15.9057999   9.7596675  97.8319454  89.3685341
  10.2674723  97.3158264  88.7424374   9.0574265  98.2191944  88.8459110
  96.9524765  87.1800137  72.6683187  97.1238422  86.5602589  73.3773851
  97.5965881  87.8761387  72.7977753  10.7388198 108.5084534  94.9185848
  10.3396964 107.8596497  95.4982281  11.3981628 108.0178261  94.4279003
  68.0117273  92.7608395  83.0471420  68.5057020  92.1810913  83.6268997
  67.2431278  92.2491264  82.7948761  88.7419891  74.2579794  18.0944562
  88.1593895  74.6242285  17.4291217  88.1929970  73.6434698  18.5815001
  64.7976208  19.9595106   4.8431635  65.5647802  20.5249190   4.7536519
  65.1448345  19.0707982   4.7665870  91.0466003  69.4076920  84.7312069
  90.9040546  69.1621208  83.8170910  90.3567123  68.9507532  85.2123451
  82.7525425  64.5906115   7.6538074  82.1415043  65.3007126   7.4572986
  83.4002304  64.6303511   6.9501352  78.3019114  94.7056293  94.5671272
  77.7604151  94.1126728  94.0461540  79.1571760  94.6885777  94.1376400
  37.3355436  27.8161287  26.1605787  38.0463243  28.0961394  26.7373085
  37.3443651  26.8605828  26.2161183  81.0566998  90.7712269  56.7695761
  81.0131645  90.8583546  55.8173418  80.7383919  91.6106319  57.1016979
  78.8504696  59.5421267   6.2616646  79.1927767  59.9685669   7.0472902
  77.8998947  59.5646048   6.3718206  84.3121147  20.1823783  14.8326921
  83.5051537  20.5331826  15.2095032  85.0124264  20.6372523  15.3005397
 118.0149174  90.3565121  92.6800632 118.5464287  90.6472874  93.4211349
 117.7325535  89.4738197  92.9195595  49.5503330  36.2024498  20.5806684
  49.4793224  35.8248091  21.4573526  50.1705933  36.9246340  20.6804895
  50.5320072  73.0058765  19.8798263  49.7016621  72.5392628  19.7847903
  51.0769749  72.6726198  19.1669607  25.8836675  92.4946690  87.4335384
  26.3129234  93.2528305  87.8299809  25.9658217  92.6387215  86.4908123
  94.4747543  95.2643204  58.6395693  95.0638294  95.8175659  59.1525459
  94.1118526  94.6472073  59.2749453  48.4429312   3.2351565  17.9566622
  48.0331182   3.4530702  18.7937987  49.2919254   3.6764321  17.9835498
  45.5268145  73.5876226   7.1234959  45.2372408  73.1050110   7.8977489
  44.9989748  74.3861198   7.1276957  89.0390491  30.7991362  34.8309684
  89.2759800  29.9036694  35.0722980  88.5746098  30.7080483  33.9989638
   5.4299802 101.5760994  95.0437355   5.5838877 102.3887634  94.5619488
   5.0055844 101.8553257  95.8550072 111.7756557  91.3861275  86.7261982
 112.4255753  91.8848228  86.2310886 112.2913551  90.7653618  87.2409248
  59.5956516  51.2307119   0.2333978  60.0419664  51.8798494  -0.3103405
  60.0097609  51.3124275   1.0925069  65.7314730  53.3650303  15.2794957
  65.1793814  54.1067743  15.5269790  66.1263847  53.0754757  16.1019516
  81.6310024  73.8657951   2.8515631  80.9130573  73.7010145   2.2403081
  81.5490246  74.7934532   3.0728424  67.3849440  46.8400860  17.9803729
  67.6922894  46.3406897  18.7369275  66.7685032  46.2542295  17.5410509
  48.5255480  34.0154147   6.2465292  48.7175179  33.3656597   5.5703640
  47.7739191  33.6558628   6.7177022  83.7679482  75.7754660  94.9909973
  83.2626057  75.1522636  94.4689941  83.1909466  75.9996700  95.7211018
  51.1347961  38.6723089  20.1618886  51.8041849  37.9910159  20.2250338
  51.5354633  39.3522882  19.6202910 112.7610111 111.6602993  85.3846455
 112.4754238 110.8301067  85.0032616 113.7167931 111.6255283  85.3457355
  76.5359116  15.4036605  14.3807471  77.2044516  15.3179669  13.7010849
  76.8793154  14.9007618  15.1192570  73.8200569  71.7295027  92.9240894
  73.4400940  72.5728703  93.1702518  73.4256840  71.5276480  92.0755863
  87.9888058  71.4024591  83.1967258  87.9296684  71.7830658  82.3204422
  88.7996101  70.8939028  83.1827545 108.6772060  86.2674332  88.5385418
 108.4033108  85.5083752  89.0533733 109.6297836  86.2879467  88.6302471
  43.1244087  37.2765064  28.0148673  43.5063076  37.4918270  27.1639729
  43.1062365  38.1090665  28.4868264  73.5607433 102.5087738  72.6247692
  72.8984356 101.8352509  72.4699974  73.1095695 103.1731319  73.1456375
   1.4128558 108.7330341  79.9626303   0.5442975 109.0687275  80.1843262
   1.6578472 109.2082977  79.1686916   0.3296359   1.2234036  93.6606598
   0.9926876   0.8872031  93.0576992  -0.1742142   1.8478121  93.1386662
  11.5046215  26.8949819  35.3854966  12.4210024  27.1274304  35.2356768
  11.3460410  27.1240950  36.3012433  52.4666643  85.2203941  30.7452726
  52.5252151  86.0476017  30.2672243  53.2631254  84.7474480  30.5040145
  57.2459936   4.4364533  22.3618674  57.4133968   5.1953709  21.8030715
  58.0900192   3.9882416  22.4162602  94.5576954  92.2939014  95.5314732
  94.8527241  93.0491638  95.0227737  94.4315243  92.6357937  96.4165783
 100.7108963  99.6537635  96.7912277 100.6926716 100.5957410  96.6221790
 101.3596285  99.3124625  96.1756843  96.6446114  46.5934563  28.5636044
  96.7863083  46.7960596  27.6388860  97.5218201  46.4304256  28.9102292
 107.4846113  89.2388102  96.2913840 107.6827848  89.7901007  95.5343903
 106.9559038  88.5245511  95.9356639  14.2217803  96.5968227  84.3855000
  13.5248208  97.2234058  84.5801067  14.4354784  96.7542648  83.4658432
 112.5681591 102.6033497  91.4991760 111.6482735 102.8574181  91.5732384
 112.5426579 101.7035580  91.1736679  80.1671124 107.8796959  84.2964172
  79.8435593 108.7450504  84.5468426  80.6455135 107.5709629  85.0658703
  37.3940706  88.0874920  10.4387724  38.1918597  88.5847378  10.6190813
  37.5227666  87.2550678  10.8934677   7.6148653  90.7590485  78.8487244
   6.7218447  90.4475784  78.7013149   7.6228756  91.6443443  78.4848309
  45.8359385  51.0234070   0.7017320  45.5803394  50.5044365   1.4643416
  45.0301504  51.1147738   0.1932147 109.4626045  96.3402939  74.4960594
 110.3609085  96.5323257  74.2269897 108.9188480  96.8572998  73.9016962
 107.5894833  92.7481937  68.9166689 108.4079647  92.5059128  69.3498230
 107.8315449  92.8711796  67.9987860  18.6332822   2.9790416  91.1455631
  19.5705152   2.9164138  90.9614277  18.3207881   2.0750886  91.1075115
  49.0427494  31.0535645   7.5064397  49.3756342  30.1606679   7.5967383
  49.2779255  31.3077593   6.6140777  85.4758739 102.3717403  70.7119703
  85.9004974 102.9441929  70.0730467  84.8239803 101.8883419  70.2044392
  95.2903557  73.3127737  26.5060258  95.9143066  72.9194593  27.1161151
  94.9097824  74.0447807  26.9913793  37.5693464  36.9013071  14.6525598
  36.8776107  36.3934755  15.0766361  38.1221223  36.2452507  14.2279875
 106.0503292  95.4361439  87.1836948 106.0455418  96.3912678  87.2464848
 105.2858067  95.1590824  87.6886463  31.5650606  41.4492130  12.7600980
  32.1233058  42.2040701  12.5735974  30.9361696  41.4323521  12.0386803
 117.6866055  93.5819626  72.9655743 118.5382271  93.4453106  72.5504875
 117.5860786  94.5333004  72.9984617  61.3708258   8.2202381  22.9865336
  60.9491396   8.6690044  23.7193513  61.1645031   7.2953153  23.1213689
  92.0552540 100.8507252  85.5945778  91.3740540 100.8054924  84.9236488
  92.8610897 101.0204315  85.1066780  90.7103729  48.2310867   2.6130280
  90.0317574  48.9042807   2.5627369  90.2789879  47.4870586   3.0332217
  99.0853310 105.9075260  44.2779732  98.5022926 105.1700497  44.0978765
  98.6176109 106.4288330  44.9304342  28.5820937  30.3028178  33.7987590
  29.0768623  29.4894648  33.6992979  29.2303681  30.9949470  33.6686516
  75.3688240  27.7365518   2.6554319  75.6861210  27.1398258   3.3332750
  75.8434200  28.5526466   2.8134894  73.8161373  12.7822185   4.3228611
  72.9352522  13.1426072   4.2209280  73.7303448  12.1341276   5.0220382
  40.6760311  32.4156356   4.4516137  39.7677207  32.6824331   4.5931172
  40.8748960  31.8412018   5.1910126 103.1484604  98.3420944  58.5735559
 102.3487759  97.9390526  58.2354832 103.3787918  97.8132057  59.3373966
  28.2809997   1.6301048   6.3325143  29.0470910   1.0939983   6.1277586
  27.6190424   1.3538975   5.6986731  44.1620588  40.3851509  15.7697523
  44.3622971  39.8813057  14.9809074  44.9667406  40.3502178  16.2869525
  43.7302494  48.1012678  18.7067378  44.0225935  47.1930313  18.6300957
  42.9995060  48.1703234  18.0923462 105.2857780 104.7303104  83.0671310
 106.1967850 104.6810532  83.3567429 104.8572540 103.9905643  83.4976768
  85.9317780  52.1660709   5.0038058  85.9205151  52.2736549   4.0527380
  86.8599606  52.1894550   5.2365172  75.6469154  20.8148336   9.7780931
  75.5188560  20.0009322  10.2653277  75.1988888  20.6682897   8.9450085
  54.9270916  19.2811513  26.6303730  54.3792200  19.5405638  25.8895802
  55.6536770  18.8002551  26.2340879 114.9638081 103.8458443  88.2446575
 115.0292397 103.6309433  89.1751289 114.1785908 104.3893147  88.1790066
  72.6222420  40.6286955   5.2773046  72.9689407  40.2565908   6.0882115
  73.0868053  40.1627064   4.5821306  20.3556991  22.6812768  41.7095804
  21.1850977  22.5297451  41.2564039  19.7443008  22.0681643  41.3015127
   6.3211942  55.4585218  77.2549391   6.2510413  54.8551178  77.9946756
   5.7094407  55.1127768  76.6049767  15.6076396  17.6892650  93.1812477
  16.2346053  18.4075844  93.0966187  16.1156833  16.9030893  92.9811192
  71.6511440  35.9721756   7.9578108  71.7665100  35.0255060   8.0399114
  70.7076073  36.1070180   8.0460387  -0.0161260  90.0096321  76.1263561
   0.5127310  89.8190689  75.3516150   0.1693690  90.9278584  76.3230467
   2.3277035  89.3025875  80.7555962   2.4016890  88.5803699  81.3794327
   1.4007697  89.3193054  80.5173874  89.9259281  89.9852371  87.9048824
  89.8794270  90.8266735  88.3588028  90.0408840  89.3418598  88.6042213
  89.2494202  48.8380384   8.2953680  89.9744987  48.9143181   7.6751524
  89.6725082  48.7703180   9.1513121  16.3066804  86.4693737  88.6015129
  16.6797209  87.0135117  89.2950535  15.7661819  85.8289814  89.0641117
  60.3747511  75.6138229  38.4322286  61.0195303  74.9064875  38.4191465
  60.8961678  76.4115953  38.5212183 104.2526340 106.9604588  70.7560205
 104.9333096 107.6223469  70.8777761 104.1253090 106.5847874  71.6271639
  87.5838852  82.2021103  87.0001411  88.2505417  82.7345753  86.5662289
  86.7583466  82.6448822  86.8035030  76.5615702  16.9038343  24.2459011
  76.4405107  16.3574016  23.4693789  76.0096216  17.6698041  24.0881848
  80.1286888  49.2926979   3.9030018  80.5373287  50.1582909   3.9031318
  79.2198038  49.4569588   3.6516696  63.4224081  61.3454628  18.7225199
  64.0535212  62.0443296  18.5507298  63.5327673  60.7379580  17.9910874
  76.2813568  54.6880913   7.1965599  76.5614128  53.9876413   6.6073507
  75.6701040  54.2642355   7.7990073  91.4556313  35.3058577   3.7762433
  91.4467812  34.7416639   4.5494431  92.3707962  35.5705810   3.6833784
  69.2950583  93.8613701  75.1562452  69.6776056  93.6896324  74.2957830
  69.9880409  94.3093109  75.6413746  85.6609821 101.0315323  89.8987770
  85.3486156 100.1272202  89.8692608  85.0368500 101.4820766  90.4677296
 114.7301769  93.1442070  96.1354065 114.1542625  92.4057674  96.3335228
 115.2841473  92.8308010  95.4204655  76.6788435  42.2265673  12.2560024
  75.7526398  42.4680376  12.2472930  76.8848038  42.0341301  11.3412452
 116.6785145  67.9155493  73.8782835 116.5570450  68.0834198  74.8127890
 116.7118835  66.9614649  73.8086843  68.4443819  45.1951125   0.4168577
  67.6921236  45.7441047   0.1956148  68.9147150  45.6918147   1.0864038
  96.2304401  39.0684271  10.7632947  95.7363129  39.8878837  10.7869959
  97.0052338  39.2403722  11.2984192  70.5275393  15.4446745  10.6299067
  69.9683094  16.1639786  10.9233296  70.0678635  14.6537018  10.9114945
  56.0402155  70.3392839  34.6178269  55.2370501  70.1030350  35.0818825
  56.6009092  69.5680237  34.7015738  32.5280881   3.1704488  93.9294338
  31.7857838   2.8388038  94.4346333  33.2947206   2.7690431  94.3385506
  58.5112810  41.3415051   4.2863807  57.7633381  41.2918091   3.6911112
  58.6088419  42.2756624   4.4709483  71.2445402  56.6259193   2.6457974
  70.3715372  56.2598944   2.7876714  71.1268044  57.2583437   1.9369909
  72.1905041  62.7421093   2.4885161  71.4498186  63.3077145   2.7069420
  72.8303242  63.3298159   2.0867017  73.7774849  82.0272255  12.5270939
  74.6434689  81.8668747  12.1521413  73.7400436  81.4577866  13.2955801
 107.1321869  83.4657001  91.7982674 106.8657875  83.4933186  92.7172279
 107.1377659  82.5341129  91.5784073  17.8435767  14.9938428   4.7020280
  17.1037698  15.4634523   5.0872362  18.2195687  14.5001626   5.4308224
  67.6614141  83.6746025   3.6444753  67.0095205  84.0548897   4.2332438
  68.3911896  83.4370804   4.2165232  38.4507084  12.9325294   0.3860979
  37.9971361  12.6273406   1.1718227  38.9947701  13.6588669   0.6905056
  68.1043530  41.5355301   5.9655720  68.4825850  42.3390675   6.3226497
  68.6238527  41.3536930   5.1824445  77.0925570  24.0724063  41.7947674
  76.5550947  24.7608256  41.4030457  77.5340700  24.5012188  42.5278568
 109.4060707  89.9671268  82.7142334 109.8877144  89.4331074  83.3459473
 109.7491550  89.6979141  81.8621445  64.9306107  17.3883176  88.4229565
  65.6544685  17.9183900  88.0893612  64.5420980  17.9223955  89.1158199
  50.2594900  43.9889765  25.6724262  49.6293592  43.3909035  25.2705860
  50.0564146  43.9581203  26.6073251  49.9651480  72.7237129  23.4012842
  50.5512190  72.2446346  23.9871478  49.1375732  72.7747345  23.8795590
  69.1044712  39.2196941  14.3876565  69.3583393  40.0861263  14.0697336
  69.8523808  38.9270496  14.9084508  60.0343800  32.2502494  18.5505211
  59.8505926  31.5004063  19.1163731  60.6574774  31.9162893  17.9051912
  66.4173937  78.1376123  59.6631336  66.4584780  77.1813059  59.6579266
  65.4861546  78.3378553  59.5686340 115.8379936  81.3405895  82.9932308
 115.8081245  81.8618584  83.7954807 115.3174686  80.5626774  83.1935310
  11.7381775  95.6630802  89.1297340  11.3873684  94.8659611  88.7325382
  12.6593304  95.6748295  88.8697910  85.6427860  48.1730509   8.1035054
  84.7492790  48.4183407   8.3437335  86.0642815  49.0006351   7.8718239
 110.9894276 102.5071049  83.8550663 111.3202572 102.3263168  84.7348976
 110.8565807 103.4549046  83.8391972  77.6936579  47.6607275   7.8451526
  77.0358658  47.9341173   8.4845251  77.8853893  46.7509842   8.0728376
  82.0011044  60.3193760  74.9448347  82.2891426  60.2196121  75.8522034
  81.6085434  61.1917830  74.9127054  67.2653532  48.1679726  13.1229806
  66.8503618  48.1982374  12.2609496  66.5487814  48.3196115  13.7392271
  52.5551796  16.9785738  64.4894123  52.3559141  17.2358012  65.3896141
  53.1020069  16.1980486  64.5788097   0.7225796  88.4417152  89.4388199
   1.1531912  87.5871944  89.4630718   1.4068052  89.0466690  89.1522884
  42.8268862  13.1302845  90.1435280  43.3332062  13.0667019  90.9533596
  42.1397400  13.7670267  90.3400421  82.3076534 105.1618195  95.5742931
  82.7775288 104.6113014  96.2007046  81.7658901 105.7341099  96.1176300
  66.2683535  41.7136574  14.0517318  65.6278849  41.5794230  14.7503126
  66.5160608  40.8296537  13.7807930  48.2769537  18.2197475   4.3804732
  47.8507948  18.5040033   5.1890635  49.2134142  18.2894766   4.5659810
  74.1779232  34.8476768  13.9228475  74.8398829  34.9699116  13.2423306
  73.6763334  34.0849924  13.6348331  99.9131775  84.8243046  89.2082691
 100.5683899  84.2705536  88.7836742  99.6161366  84.3108368  89.9595070
   7.7854764  44.1871214  26.5019536   6.8999004  44.4241905  26.2266612
   8.1489444  43.7108946  25.7554078  86.0548496  31.7210031   3.3052802
  85.5055809  30.9443712   3.1985852  86.9005871  31.4689898   2.9345456
 113.9118290  25.3397632  81.8132687 114.1029644  24.7765946  81.0632420
 112.9860783  25.1838589  82.0000839  62.6601219  66.0416031  23.9879966
  63.1479931  65.5580568  24.6546292  62.2049904  66.7283440  24.4753075
  61.0489798  16.0651839   9.3609709  61.5914345  15.7536697   8.6364484
  61.6537523  16.1366606  10.0994658  63.4063196  40.2656507   6.4935315
  63.3567953  40.8656073   7.2377300  64.2855501  40.3965139   6.1384803
  59.4784689  56.3582468   7.2941542  59.0304852  56.0217953   8.0702621
  59.4660759  57.3090649   7.4037951  85.2245998  19.8157120  40.9910870
  85.8379650  20.0330615  41.6930676  85.3769016  20.4851961  40.3241301
  21.5133429  52.6726007  22.8149009  21.0586166  52.2099781  23.5187697
  21.5544438  53.5812807  23.1129766  74.3026066  83.0746841  36.9832897
  73.5961962  83.0145264  37.6264095  75.0282288  82.5915718  37.3786497
  57.9601526  27.4567246  32.5897551  57.3405457  28.0831432  32.2156978
  57.6295567  27.2909260  33.4726191  93.2322311  43.3850908  12.9535329
  93.6010647  42.7636242  13.5812080  93.3735180  44.2427397  13.3544147
  51.3752127  24.8009968  17.6366651  51.3199329  24.1592765  18.3447421
  51.1744547  25.6378770  18.0556655  72.1312094  44.7575331  11.4754462
  71.3862085  45.3198910  11.6874635  72.0677042  44.6221685  10.5299962
 109.7172546  81.5082741  93.2529640 109.4378948  81.6670895  94.1546059
 109.2724323  80.6982422  93.0035496  56.3750839  29.8852754  26.2432194
  55.8462143  30.6783080  26.1558890  57.2445107  30.2028561  26.4870906
 107.5093174 110.5852604  79.4539595 108.1761360 110.1368141  78.9338779
 107.7970791 110.4735947  80.3600216  99.2808151  61.2855673  10.6433618
  98.6981583  61.6737795  11.2960720  99.8835850  60.7436514  11.1525095
  88.2898331  73.9740849  22.4218750  88.1451416  74.8412704  22.8004074
  89.2350197  73.8383436  22.4884725  40.9328890  55.8793974   7.0672780
  40.2125072  55.6714678   7.6622945  40.5730534  55.7277870   6.1933422
 106.2856388 100.1672649  90.7541752 106.9088459 100.5193806  91.3896656
 105.4486084 100.5649376  90.9939194  89.2485332 105.3486347  84.3100834
  89.2416096 104.5459175  84.8314667  88.6960220 105.1482677  83.5545635
   1.4428778  68.3782244  87.3513508   1.8328992  68.6181307  88.1919193
   1.0417939  69.1872549  87.0338058  95.6767845  71.6634941  75.9235334
  95.7247066  71.0653543  75.1777697  96.3291931  72.3373413  75.7324219
 103.9041805  22.3132491  34.3617320 104.8327541  22.5061607  34.4912386
 103.8940239  21.4469481  33.9547324  70.0760365  41.0924053   4.2795750
  70.8781767  40.9354973   4.7777584  70.0788260  40.4163361   3.6019647
  63.9181376  21.5251589  23.8485456  63.8214493  21.4942813  22.8967404
  64.2044258  22.4200726  24.0313005  84.4132233  98.6376286  81.7332268
  84.8848248  99.3842125  81.3638592  84.8129082  98.5032177  82.5925446
  68.5084295  47.7706289  21.6735172  68.5550165  47.0552969  21.0391998
  68.1396341  47.3693419  22.4604011  91.3614750 100.3522110  93.2038689
  90.5210686 100.4965782  92.7690125  91.1292076 100.1210690  94.1032314
  86.5071011  32.3064351  11.5814412  86.0066700  32.8765178  10.9976530
  86.7354298  32.8653455  12.3242188  17.9487550  95.4240799  91.3797283
  17.8742206  96.1335087  92.0179939  17.7310479  95.8320618  90.5416393
  15.6129026  62.5029230  62.9398203  15.2275038  61.6472721  62.7512598
  15.6108975  62.5612164  63.8952446 105.2634621  95.4792309  94.9494553
 105.8350849  96.1172867  94.5224285 104.3792915  95.7384396  94.6900654
  20.7007933  35.6612682  16.3668633  20.7781672  34.7072625  16.3776135
  19.9554217  35.8475614  16.9377840 112.7733612  83.4000206  78.0686760
 111.9690323  82.9372215  77.8339243 112.5035381  84.0212631  78.7450457
  69.2288923  94.4113636  18.4862137  68.9253378  94.9641132  17.7661073
  68.4355354  93.9876938  18.8138115  65.5588055  45.1007891  19.6841419
  65.5282974  46.0575008  19.6835756  66.2273788  44.8828602  20.3335619
  75.9366894  51.1983347   0.9829605  75.1306534  51.6866875   0.8154864
  75.7359648  50.3035164   0.7086574  77.6431036  97.2212124  88.9633465
  77.5012827  96.4372158  88.4328175  76.7794180  97.4283791  89.3202305
   4.8021743  90.3565502  78.6840296   4.5762232  90.9820271  77.9955816
   4.3026891  90.6487942  79.4464874  56.3493681  29.9419594  11.1731529
  56.6922045  30.6590509  10.6397903  56.0787678  30.3597403  11.9907522
  45.2293825  39.2470312  13.3564484  44.9925852  39.6237707  12.5089669
  46.0463619  38.7769485  13.1897199  87.7746391  97.9314518  90.7890987
  87.8413582  97.4028301  91.5843010  86.8346977  97.9878521  90.6171608
  68.0485773  36.5520120   1.3867697  67.2232246  36.7123747   0.9292668
  68.4101725  35.7737470   0.9627575  41.0495090  21.4755845   9.8769063
  41.4963102  21.7722750   9.0840775  40.8290720  20.5611348   9.6996439
 108.9273930  41.3876200  15.1514864 109.5081520  41.8692589  15.7405281
 109.0953064  40.4663992  15.3499651 110.7823563  94.3017960  53.8852930
 111.5065002  93.8037205  53.5061169 110.0462246  93.6899757  53.8877535
  45.9890223  12.5781119  94.6378040  46.2638950  13.4401584  94.9501419
  46.6895437  11.9880450  94.9158764  66.2432957  70.3249502   4.8506796
  66.2028027  70.6678295   5.7434428  65.8156967  70.9948635   4.3171948
  91.0303593  94.3999577  85.7044315  90.3568172  93.7412071  85.8735752
  91.8556976  93.9512730  85.8880806  98.3270931  91.2745094  94.3240356
  99.1228676  90.8260632  94.6101570  98.5921097  92.1881199  94.2176151
  99.2728996  36.7089033  11.1421168  98.4908867  36.6363430  10.5949271
  99.7891712  35.9323072  10.9262538  28.9050508  32.1584678  48.0594349
  28.0400300  31.7722321  47.9223442  29.5174909  31.4476418  47.8700209
   0.8971804  85.6027699  86.0156250   1.3646980  85.0087261  85.4284573
   0.5627527  86.2923431  85.4421425  81.7175896  44.5337108   0.3496904
  81.6217808  44.0421012   1.1653966  82.1470294  45.3485587   0.6101579
  94.4849777  26.2859535   0.4210618  95.1467800  26.8855619   0.7656275
  94.8535442  25.9711194  -0.4043289 111.1606407  89.2311096  84.6594238
 111.7059612  88.4890652  84.9206448 111.3716125  89.9177933  85.2920246
  38.9890194  69.1452265  12.1366966  38.9626575  69.8020744  11.4409304
  39.1984653  68.3271742  11.6859758  40.0934935  20.6432247  89.8531818
  39.7963619  19.7355163  89.7898483  39.9331069  21.0089922  88.9832783
  22.1917248  34.1918278  77.1315432  21.7825675  34.4258881  76.2984562
  22.6549053  33.3741689  76.9495296  89.4204330  19.6690702  96.2346745
  89.8348427  19.3510354  97.0367622  89.5868492  18.9812434  95.5901337
  31.3218784   8.4715879  94.1677952  31.3994145   7.8284109  94.8724461
  30.4194522   8.7850410  94.2278481   3.1781462  80.1938534  22.4492502
   2.7569133  80.8652592  21.9125891   3.5647190  79.5888805  21.8161583
 116.6144943  93.5640430  90.1271534 116.3417721  94.4117546  90.4782009
 116.4531708  92.9463387  90.8403492  72.5942612  63.1211042   5.3403896
  71.9896126  63.7631989   4.9684381  72.5135422  62.3572063   4.7692698
  96.8893242  75.7786036   6.2189621  96.4675808  74.9706411   6.5114623
  96.2772655  76.4715672   6.4668024 106.5443230  75.4874849  83.5377026
 105.6364727  75.3590584  83.8125610 107.0518208  75.4150867  84.3460560
  20.7303810  11.1861527  81.3865471  20.0744987  11.2743127  80.6949711
  21.5567136  11.0648394  80.9189034  36.9933057   8.9286315  88.6636353
  36.3908911   8.5256857  88.0383682  36.5946054   9.7741324  88.8695431
  48.0324650  69.5861244   5.1647151  48.3100176  68.8072824   5.6469977
  47.0761204  69.5573235   5.1932102  79.8958492  35.3749919  16.6159928
  79.5110035  35.6202030  17.4574184  79.1852570  35.4898667  15.9850454
  84.9630928  50.8918047  11.0282159  84.4374847  50.2377367  10.5675995
  84.5263672  51.7233133  10.8435607  55.9739828   8.5308343  74.5540571
  56.7516851   9.0784562  74.4467163  56.3072109   7.6338834  74.5281935
  26.5843201  84.5542622  87.8096581  26.1169243  84.0871620  88.5021877
  25.8938241  84.8800755  87.2323418  38.4946942  62.4683523  26.3979530
  39.3195462  62.9128647  26.2023544  37.8302073  63.1534290  26.3247538
  18.3788681  32.9338241  79.0663385  18.5218167  33.8523674  78.8381433
  19.1346741  32.4753881  78.6991501 102.5461292  80.1697636  20.8845663
 101.5989208  80.0561428  20.9627414 102.9144001  79.3589830  21.2356281
  23.8653040   2.9927415  48.7573433  23.5286808   3.8707724  48.9361715
  24.7158742   3.1418341  48.3443880  77.7067947  39.9469471   0.7559641
  78.2723522  40.2161407   0.0321473  76.8635035  40.3584242   0.5668221
 101.7782402 109.4381714  77.5582981 102.5685310 108.9970112  77.8698444
 102.0157909 110.3650665  77.5323391  85.3680706  45.9538174  19.6937537
  84.6209526  45.9030914  20.2899694  86.1178684  46.1256409  20.2634144
  12.5568223 106.7947292  93.7551022  13.3620358 106.8149376  93.2379436
  12.8234565 106.4308548  94.5993423   5.4211110  83.1706619  84.3767452
   5.8788925  83.7090683  85.0223351   4.7357881  82.7276421  84.8770428
  90.8042812  40.3402090  10.4666138  90.3821087  40.7808208  11.2040842
  90.0868893  40.1373339   9.8662663  76.3431501  47.1028471   2.8952289
  76.5626574  47.9506779   2.5089234  76.7410421  47.1259546   3.7655050
  15.4433191   9.3779212  81.7920876  14.9664533   8.7298310  81.2736130
  15.0122440  10.2088344  81.5921116  15.6631696  87.9567909  92.7414227
  14.8056471  88.2131004  93.0808163  15.5468595  87.0503902  92.4565697
  59.7705078  38.5150123   2.1745551  60.6062460  38.5745788   2.6374051
  59.6883965  39.3531823   1.7196281  53.1081629   6.8526840  62.0224237
  53.4949255   5.9997350  62.2202253  53.4643602   7.0840538  61.1646175
  77.0429087  26.5782094  24.0231895  77.4795437  27.3731542  24.3292046
  77.7575445  25.9703112  23.8334918 108.0306625  22.2516727  70.7292938
 107.9401684  22.7828383  71.5204334 107.5025654  21.4723182  70.9023523
  59.6254253  72.6617193  40.2469110  59.6935368  71.7094517  40.3160620
  59.9276018  72.8597212  39.3605042   6.3197398  94.0493107  86.6656685
   5.7338369  94.0363979  87.4224949   5.7840884  94.3998909  85.9540462
  25.6772375 105.4733086  73.2889938  25.4369020 105.9978580  74.0527487
  26.3018584 104.8312283  73.6263561  22.6869535  17.1307838  54.6730042
  22.0056248  17.5277364  54.1303730  22.2884679  16.3276708  55.0083399
  29.5352125  29.6867657  92.9048634  29.2567563  30.4267430  93.4444237
  29.9087620  29.0633178  93.5277653  63.3348370  30.6040335  83.9136982
  63.1738663  30.2117062  84.7718334  62.4882936  30.5627084  83.4688473
  58.8473988  44.9917316   3.0391136  58.5852623  44.7867727   3.9366150
  58.3114100  44.4144869   2.4952987  50.9598637  72.9200220  30.5514979
  50.8772039  72.2685623  31.2479210  51.8179035  72.7483273  30.1635337
  73.8870764  71.5528965   2.3453695  74.5095062  71.8302059   1.6731250
  73.0291462  71.6502285   1.9321981  86.2441921  65.2469254  40.9462833
  87.0403290  65.0552893  40.4506350  85.6161118  64.5856524  40.6556511
  48.6287975  30.7658005  93.6541080  48.1606293  30.8443856  92.8229141
  48.4870720  31.6065145  94.0892506  47.6750851  18.5435748  88.6534882
  47.0849705  18.3441257  89.3802738  48.5406017  18.2844949  88.9696980
  97.7304077  89.4137669  14.1099262  98.3265781  90.0347900  14.5284247
  97.2720718  89.9309254  13.4475803  43.0794859  67.3659277  29.4314981
  42.2175741  67.7822733  29.4317484  43.6974192  68.0945492  29.3723297
 102.9856205  57.4701452   4.6849576 102.6598835  58.3023691   5.0278014
 102.5071430  57.3450089   3.8654229  45.4737949   9.7498184  83.0024815
  44.8810577   9.0944928  83.3705139  45.7234812   9.3947226  82.1493721
  79.1662025  14.6666825  84.8500252  79.1869450  15.1151001  85.6954384
  78.9896584  13.7516296  85.0685310  67.4027348  78.4020329  23.4633350
  67.2756100  77.4598408  23.3522487  67.8032970  78.6881065  22.6423907
   8.7035650  69.4023466  78.0436468   7.8338945  69.0966749  78.3014679
   9.3069112  68.7863731  78.4593153  42.7817345  11.3258123  69.9368334
  43.7106657  11.2839472  70.1639271  42.4346542  12.0351303  70.4777908
  35.6239986  22.5852060  89.2495918  35.9881163  23.3950329  89.6071243
  35.9971809  21.8932462  89.7956371  43.5256910  46.8039131  38.3137965
  44.2928410  46.8331432  38.8855124  43.2924509  47.7223969  38.1788015
 102.9468346 103.8288975  70.3333712 102.8666306 104.6945667  69.9328566
 102.5293446 103.2362080  69.7083473  99.9729156  57.4562883   8.7500978
 100.5853271  56.9105816   8.2567543 100.0273323  57.1265793   9.6470708
  65.4137945  48.4387827   4.2976522  65.1687765  47.7396250   3.6915380
  66.3492632  48.5716677   4.1444588  46.1373997  11.7414916  74.5688200
  45.9862995  12.3167872  73.8188648  46.3086510  10.8830643  74.1815090
  43.5724306  44.0364742   1.8031384  42.7600861  43.5301876   1.8015540
  43.6260986  44.4059467   0.9217513  21.9159198  75.2828503   6.3932878
  21.1360168  75.8269215   6.5026903  21.5949368  74.3848276   6.4754874
  72.7002239  65.7904768   6.7816770  73.3235931  66.4082861   7.1637106
  72.7619696  65.9404325   5.8383149 105.0870895  70.2269840  27.0864797
 104.2691422  70.2643585  26.5907097 104.8139954  70.0457525  27.9858184
  93.8811779  62.9612494   6.2307936  94.3810368  62.1455526   6.2626922
  93.7958622  63.1535101   5.2969903  85.6088257  99.1205502   3.3331224
  86.4063549  99.0509701   2.8083956  85.2367973  99.9689198   3.0920830
  90.5133152  97.3416328  13.4147799  91.4559746  97.3362827  13.2486415
  90.4382133  97.3306656  14.3689668  71.2384701  79.8945332  26.5095782
  71.6988420  79.9438906  25.6718111  70.4305935  79.4209480  26.3113856
  80.5121040  51.2712765  14.6594286  80.4229927  50.4851675  15.1982474
  81.0418320  51.8664551  15.1898766  38.9829826  17.6243722  80.6166458
  39.9268246  17.6892626  80.7621861  38.8344622  16.7001581  80.4166412
  14.3147624 110.2716446  52.2021627  14.4403458 109.7184563  52.9731607
  14.8583031 109.8671341  51.5260267   0.5002197  97.1423531  89.0771484
   0.8924536  96.2692261  89.0836716   1.0328031  97.6395512  88.4563541
  96.2277889   3.8116589   1.4614412  95.6860065   3.9210594   0.6799436
  95.5993366   3.7117243   2.1764904  62.5784349  20.5735421  59.4342232
  61.7270231  20.1382685  59.3909693  63.0591774  20.2349496  58.6789274
 100.9125996 111.2671947  92.4452972 101.0777092 110.3305817  92.3369408
 101.0094452 111.6308594  91.5651798  64.8916149  67.1303034  18.5710430
  65.1507998  67.9076958  18.0763555  64.5661592  67.4734592  19.4032407
 103.1330872  92.7109528  66.3775873 102.7394867  91.8486214  66.5106440
 103.7734699  92.5767136  65.6789303  18.1296372  57.1463251  18.8702023
  17.6763129  57.4551201  19.6546602  17.4330521  56.8033314  18.3104205
  57.4916983  83.4495926  31.4144015  58.3437681  83.2593918  31.0219383
  57.1892262  82.6060104  31.7507052  57.5662184  57.5919056   5.3967458
  58.0670166  56.8291140   5.6858414  56.8186331  57.6277971   5.9934491
  19.5970368   4.5738134  79.6381712  19.4343734   3.6382130  79.7582674
  19.3942082   4.7358528  78.7168455   3.5417360  85.2975559  76.6156816
   4.1705096  85.4690647  75.9146404   3.0606833  86.1194324  76.7123222
 113.8978672  98.6985111  92.9123020 114.6485615  99.1685677  92.5493336
 113.1544876  99.2827702  92.7630997  65.1711130  62.8084183  10.0192273
  64.3934727  62.2503090  10.0143325  65.8320284  62.3024559   9.5465475
  64.4195604  58.7813187  13.7500882  65.1720333  59.3672466  13.6681926
  64.7723198  57.9110718  13.5644364 106.4201164  86.7970943  95.4145813
 106.2392712  85.8944607  95.1523018 105.5554390  87.1953773  95.5142117
  76.1511612  72.8063107  21.1731482  75.3767967  72.2647953  21.0203195
  76.8304396  72.1845770  21.4344096  12.2778869 107.7354622  88.6279202
  11.8503952 108.3779526  89.1942215  12.4366498 106.9824982  89.1971874
  55.5769682  63.3813524  23.2890153  55.1068258  62.8507280  22.6458669
  54.9488115  64.0553522  23.5485864  56.8805647  18.7242496  95.9812260
  57.6097536  18.1735682  95.6961536  56.1942720  18.1041980  96.2277412
 101.1645794  40.9950590   6.9607079 101.6803169  41.3605499   7.6795024
 100.5250263  40.4265785   7.3896962  87.6488876  65.4565001  16.2794876
  87.1723938  65.4495668  15.4493487  88.2440472  66.2027454  16.2078059
  63.7218332  32.1924448   6.3872993  63.2649279  32.3764825   7.2080296
  63.6951923  31.2389970   6.3069284  90.4761410  29.0041590  39.2055488
  89.5569801  28.7380648  39.1814399  90.7965088  28.8394427  38.3187222
  19.5044184  59.6824074  -0.0923338  19.3942988  60.5476952   0.3018498
  18.7321877  59.1913414   0.1882824  88.6894894  61.1695671   9.1839063
  89.4762325  61.2516689   8.6448878  88.1648731  60.5020428   8.7418461
  62.9651499  69.0792894  31.8545866  62.4475098  68.6434460  31.1775947
  62.5652647  69.9445581  31.9419432 100.6420135  66.3998413   9.9164927
 100.6310368  65.4598522  10.0968623 100.3289127  66.4744186   9.0150303
  78.7874413  74.4335365  45.6362438  79.3192816  75.1849747  45.3740883
  79.4060087  73.8384295  46.0598564  30.0131726  13.8360763  90.6444740
  30.7640815  14.4294727  90.6287193  29.3673491  14.2815375  91.1928463
  54.5809698  49.0659714   9.9972397  55.3409576  49.5433474   9.6644366
  54.6681976  48.1880283   9.6259809  34.9110794  12.0968366  95.6577873
  35.3023982  12.7488506  95.0764275  34.0134358  12.0003629  95.3397274
  88.5107803  67.1098661   1.6451956  88.6311054  66.1612606   1.6015501
  89.3573475  67.4453592   1.9401532  66.0233641  82.7603531  14.0114486
  65.8072138  83.0478764  13.1244099  65.7291079  81.8501759  14.0465796
  73.5846519  24.4953012  35.0662208  73.1809092  25.2601242  34.6560121
  73.2198477  23.7483978  34.5915747  47.5388622   2.3711181  92.6574421
  47.1564627   1.5069498  92.5050735  48.0150270   2.2801788  93.4828091
  11.0816038   4.1877952  90.3045940  10.5682826   3.4805095  89.9141026
  11.8182278   3.7448043  90.7257462  89.9760723  34.6652794  14.0490818
  89.8012257  33.9418745  13.4471333  89.7907162  35.4527402  13.5374391
  49.1182280  15.1290965  72.1270323  49.6436405  14.3500566  72.3094177
  48.7195921  14.9549115  71.2743998  66.6446304  54.4263363   2.5540185
  66.4594889  53.6915302   3.1388396  65.9973478  54.3440342   1.8536760
  20.6264138  78.5344124  21.8559861  20.1865864  79.3552208  21.6345048
  20.9140086  78.1819534  21.0137916 111.5756130 110.8040905  88.2588196
 111.4391518 111.7248058  88.4821701 110.6933689 110.4358006  88.2114887
  43.0308867  13.9225256  74.2877722  42.4802351  14.5938420  74.6906948
  42.5063133  13.5870719  73.5607767  60.2731943  76.0595942  19.2676127
  60.0145102  75.1638985  19.0507162  59.5150280  76.5925312  19.0280437
  82.0062122  28.9849094   0.5350465  82.7334673  28.5991862   0.0466318
  81.3560880  29.2002681  -0.1336794  59.7316456  28.4063268  82.4589825
  60.2550459  28.8121271  81.7678928  60.1336956  28.7092924  83.2731152
  95.7805920 100.4286480  92.5695705  95.7756329  99.5925140  92.1036434
  94.8700523 100.7227039  92.5436020 113.4355068  73.9733171  24.4601631
 114.1348743  74.5059061  24.8389435 112.7648926  73.9383411  25.1422811
  78.8533068  70.8626413   7.3637456  78.0111837  71.2556648   7.1344119
  78.9215612  70.0946093   6.7965639   2.5389969 100.7251358  60.7786417
   2.7654463 100.3065014  59.9481630   2.9649243 100.1841164  61.4435625
  68.8693237  27.9822206  93.6179066  68.2117796  27.3033714  93.4661388
  69.7073317  27.5304365  93.5185814  65.2360201  48.6556911   1.0574365
  65.8208227  49.4089508   1.1400610  64.3820620  49.0367365   0.8529973
  73.2230949 110.3357315  13.2250547  73.4693050 109.6582985  12.5952053
  73.3710909 109.9325752  14.0805054   5.1356316  81.5892792  87.9458809
   5.2464068  80.6493759  87.8025913   5.1330763  81.6877460  88.8980007
   9.7659767   2.5208730  75.9092236  10.0329506   3.2105115  75.3014803
  10.5647564   2.3021668  76.3891697  68.0154467  84.0587139  15.7959580
  67.6614571  83.8188267  14.9395835  67.2751665  84.4494724  16.2602055
  20.0677562  54.6117401  11.7745543  20.4943991  55.4155731  12.0713019
  20.7662201  53.9572430  11.7706823  71.4862633  32.8939915  23.0982018
  72.1864510  32.3289895  22.7714825  70.8711386  32.9598355  22.3677778
  83.9755058  45.4447937   5.0358784  84.0545940  46.2787914   5.4989392
  83.9880180  44.7841740   5.7284534  81.4053631  41.5480328  17.0492589
  82.0858479  42.1571398  17.3358929  80.6231689  42.0911694  16.9522238
  95.5442429 102.6006699  75.5699158  95.4729080 102.9634094  74.6869850
  95.0175476 101.8018246  75.5439329  55.0613976  69.7059965  17.3789251
  55.4456758  70.4022837  17.9116070  54.2222881  69.5181274  17.7994394
 109.4111919  18.6181915  32.4609065 108.8012123  19.3300641  32.6542687
 109.4885445  18.6215615  31.5068412  63.5811996   5.5118692  84.0385342
  62.9972553   4.7534251  84.0389729  62.9996347   6.2619859  84.1623688
  19.6254933  65.8536434  95.6509209  19.5877385  66.5861607  96.2659168
  19.1388774  66.1585379  94.8851013  56.1805677  12.5454128  92.9000473
  56.8080997  12.1868742  92.2724438  55.3388405  12.5065207  92.4459267
  65.4510164  62.1664143   6.0892141  65.4225349  61.2894440   5.7066727
  64.7105026  62.6250315   5.6922913  56.5300465  24.6600389  29.9351454
  57.1761036  25.3538537  29.8029971  55.9546280  24.9962759  30.6222177
  18.4614134  67.4644947  93.6415195  18.3237743  67.5679111  92.6999283
  18.5888875  68.3565521  93.9643478  71.7686081  50.6523037   5.5343080
  71.1384773  50.5809021   6.2512940  72.1547508  51.5217018   5.6404966
  74.4611835  61.2909698  14.7285044  74.4332790  60.7991695  13.9077818
  74.7961569  62.1525717  14.4801617  97.1624470  75.7038260  37.1848726
  98.0266380  75.6594992  37.5940681  96.6091824  75.1471043  37.7327633
 116.4085960  98.6733818  89.8996544 116.4423370  99.3282032  90.5970097
 117.3202515  98.4100342  89.7740841  94.6837902 105.7664967  90.4458618
  94.4342518 104.8690414  90.2255440  93.9667130 106.3039303  90.1093960
  74.8974133  89.6321869  79.9249220  73.9787388  89.7942924  79.7104645
  74.8968792  89.4607449  80.8666420  31.3246560  72.9972649   3.7441283
  31.4847088  72.0806789   3.9688134  30.3910255  73.1254721   3.9118370
  42.3302364  12.1299529  85.9635353  42.3421717  13.0156863  85.6008148
  41.7098141  11.6535544  85.4118538  24.7064090  42.2133160  88.9815521
  25.2740693  41.5928698  89.4387627  24.9798179  43.0715895  89.3053532
  57.7725840  69.8505402   1.2001154  58.6562204  70.1930380   1.3346778
  57.3941326  69.8124504   2.0784986  91.0475445  61.5591812  13.0430961
  91.6551208  61.1465645  12.4292266  90.1893330  61.4665079  12.6294422
  19.7958660  13.5481036  93.5768509  20.2422214  13.3556080  92.7522659
  19.1071427  12.8860462  93.6366272  94.8123550  53.5801458  51.2294674
  94.0309525  54.0343714  51.5446234  94.8236465  53.7485743  50.2872705
  98.3222389  51.3641977  15.5984962  99.2752552  51.4397097  15.6464100
  98.1369305  51.2590027  14.6653163 110.7728672  32.7182841  29.1217184
 110.1401234  33.3887601  28.8641644 110.4906178  31.9310880  28.6560059
  60.3403139  58.8629341  15.2247131  60.4776192  59.4536972  15.9652400
  59.9596739  59.4172573  14.5434844  51.1097050  53.8672638   2.0410074
  51.1889744  53.6042690   2.9579496  50.1748228  53.7913799   1.8500358
  31.1029649  87.5730896  91.5310478  31.7067409  88.3097935  91.6256428
  30.2343106  87.9750538  91.5213299  25.8178734  69.5161435  95.8957023
  26.3264393  70.2826902  95.6311318  25.3533959  69.7973010  96.6840229
  87.2421169  46.5760946  15.2207506  87.1073914  45.9853601  15.9617722
  87.0290279  46.0478258  14.4514930  98.4452152  98.9433861  86.3932896
  97.4983215  99.0633488  86.4656734  98.7495422  99.7188568  85.9218407
  81.2919044  42.8062773   5.5129033  80.5748558  42.5307655   6.0840154
  82.0662403  42.3767948   5.8764833  75.7173777  38.1706071   8.8741481
  75.1605844  37.5609016   9.3583739  76.4922619  38.2771802   9.4258940
  67.7218962  63.6436176   5.0323838  67.1224070  62.9757833   4.6994498
  67.1494961  64.3362093   5.3623891 113.3664227  85.0164509  84.4881630
 113.7732506  84.2868233  84.9554634 112.4980354  84.6929359  84.2484379
  78.6203921  48.1544021   0.1360769  78.9471399  47.2791866  -0.0724249
  79.0487826  48.3795455   0.9619207 106.9624901  38.6086011  10.9052312
 107.6884937  39.2042494  10.7198870 107.2180939  38.1635880  11.7132306
  37.4282718   1.0771442  77.3633289  37.1917486   0.8911424  76.4546537
  36.8488336   1.7946500  77.6195860 116.4183235  71.2118578  24.2970920
 116.1114407  71.7633057  23.5773993 117.1237373  71.7167425  24.7017097
  76.9746685  23.7024760  82.7884007  77.8632641  23.4309435  83.0183887
  76.9403315  24.6305990  83.0200005  60.7697535  35.7962203   6.0356748
  60.1056337  36.3978052   5.6991130  61.6023874  36.1819506   5.7633388
  18.5419941  25.1790714  69.4229794  18.7956858  25.8238316  68.7625599
  19.3721187  24.8483133  69.7660875  88.2942236  88.9595800   0.8728856
  87.6310957  88.9787989   0.1828641  88.2961977  89.8484664   1.2280054
  36.1355114  20.5583692  55.7136106  36.9290304  20.4492855  56.2376881
  36.2498713  19.9569106  54.9778080  36.7217064  34.4268942  11.0162604
  36.0743523  33.8344789  11.3986278  37.5371504  34.2164850  11.4712453
   6.5515745  86.7350769  48.5138035   6.7068648  87.1537304  49.3604755
   6.9703090  85.8777237  48.5901594  17.2144341  39.2884374  95.2789688
  16.6621673  39.8639846  94.7498417  16.8308735  39.3275189  96.1550903
  13.8526130 110.4993725  76.3915491  14.6610045 110.8560371  76.7596912
  13.6512876 109.7434807  76.9432163  48.5721684  30.5691576  77.5633287
  49.3270540  31.1261511  77.7534246  47.9606724  31.1435771  77.1025133
  25.1718831  50.5767488  24.6141529  24.8997331  50.1803589  23.7864804
  26.0866022  50.3138924  24.7162652  41.3133001  51.0923243  27.1226668
  41.7966223  50.2797365  26.9732332  41.8071938  51.5421581  27.8081965
  85.1418304  51.0136271   7.6451296  84.2023849  51.1130810   7.4909538
  85.5543423  51.4448214   6.8967026  56.4834213  12.8385818  89.8173523
  56.8040848  13.7401748  89.8405457  55.7030869  12.8760672  89.2642689
  89.0302944 103.2032108  95.1137638  89.6216583 102.5386429  95.4671383
  89.1340733 103.1358337  94.1645908  72.1894026  68.4013367  18.2012093
  73.0600023  68.7385464  17.9900825  72.2628975  68.0983305  19.1062045
  78.0662918  81.6567898  25.0444746  77.3861170  82.1988487  24.6447659
  77.9835749  81.8225384  25.9835792  94.1080093  46.7838001  18.7371862
  93.6868763  47.4277782  19.3065464  95.0360203  47.0175743  18.7565148
  79.5806408  76.0022402  14.0562677  80.0539970  76.2414837  14.8530912
  79.7891760  76.7000628  13.4351492  15.8049643  51.2078905  73.9469194
  15.1452899  51.4545441  74.5951653  15.7289696  50.2561998  73.8780308
  61.7112160  31.4281106  88.4704018  61.4678717  32.3500896  88.3869362
  61.8702412  31.3061619  89.4063950  32.6411080  55.0988626   5.6465596
  32.1765614  55.8711529   5.9690499  33.4672356  55.0970507   6.1300272
 107.8735924  83.6213398   6.5482324 107.2017288  83.8875675   7.1758950
 107.6879406  82.6982880   6.3757706   9.8531646  12.3432255  95.0601482
   9.3741280  11.7923176  94.4410706  10.4257298  12.8787065  94.5109081
 105.7247829  68.4024286  17.7211642 105.8457279  68.2325363  18.6553705
 106.6130352  68.5041285  17.3792601 102.2341919  49.3894958  14.6585083
 101.5334606  49.8922014  14.2431867 103.0191326  49.9222851  14.5310605
  69.8266697  93.7653732  23.9013648  69.2333603  94.4479752  24.2148399
  70.6392765  93.9137268  24.3849850  63.2237482   3.3849418  96.0777569
  63.5694361   3.2010904  95.2042961  62.5527859   4.0523472  95.9342003
  76.8247604  26.6252589   9.2534202  77.1592999  25.7418156   9.0989995
  76.8064451  26.7112231  10.2065766  57.0686245  74.3665409  23.3427262
  57.6985836  74.3100405  22.6242638  57.2465992  75.2136850  23.7512589
 100.7197952  58.9385176  25.2693081 100.4949093  59.8197508  25.5677748
 100.1925468  58.3579397  25.8181000  35.0319504  97.6511237  96.2639270
  35.2821278  98.0731293  95.4420087  34.7002720  98.3650538  96.8084644
  50.1064110  18.7533307  96.1201191  50.6469059  19.5383763  96.0317612
  49.4317245  18.8501728  95.4480648  86.8062973  64.2282295  29.6686459
  86.6548920  65.0710726  29.2409515  87.6255131  64.3472481  30.1492167
  94.5637035  91.3475513   5.8712512  94.8324013  90.5318356   6.2939286
  93.6363029  91.4368439   6.0907334  48.0910587  25.8626223  90.2935791
  48.6142826  26.1663961  91.0353279  48.7346125  25.6495333  89.6178150
   1.2269380  77.7589798  35.7335258   1.1836848  77.5350571  34.8038936
   1.9930539  78.3280468  35.8074236  53.4059572  83.3110142  10.2315450
  53.4239292  83.5699844   9.3102181  54.2465162  83.6078644  10.5802178
 103.2209206  73.3318758  41.4077091 103.4446430  73.0192327  40.5311012
 102.3804760  73.7762499  41.2962675  33.0113029  21.8558788  80.4627514
  33.3885694  21.6539311  79.6065235  32.2849727  21.2394333  80.5558681
  99.2926216  86.9792652  35.3925037  99.6644020  87.0554447  36.2712574
  98.5764122  86.3515949  35.4890299  88.8400555  45.6452894   3.5779661
  89.3761063  45.4876947   4.3551701  89.4293785  45.4777193   2.8425404
   0.2015196 110.6568718  67.4182892   0.8118044 110.4051971  68.1114340
  -0.5496801 110.0758266  67.5379610  60.2835894  14.2704630  96.4963341
  60.8488798  14.5980096  97.1959019  60.3940916  14.9005687  95.7843018
  91.7473412  67.8195047  27.2761488  91.3602924  67.6672268  26.4140368
  91.0276985  67.6753855  27.8906226  95.8808994  54.0829086  20.6710815
  95.6294346  53.2654858  20.2411842  95.5242634  54.7694969  20.1074886
  84.8955822  58.7415171   2.7972496  84.3796921  58.6151695   3.5935694
  84.7193813  59.6461439   2.5387302 103.9926624  68.7276030  43.5473919
 104.3076324  69.2298889  42.7959061 103.2286358  68.2553148  43.2165718
 107.1430111  47.3251963  25.6774473 106.6095924  48.1196976  25.6560659
 107.8680897  47.5392485  26.2645316  45.9379196   7.2898632  90.5763149
  46.7735624   7.7014077  90.7966995  45.2769470   7.8902817  90.9210587
 100.1795006  86.3856888  11.1220336  99.8332691  87.2188091  10.8022344
 100.1949978  86.4824486  12.0742047  98.7949371  83.6094379  20.3292894
  98.3967304  83.4149265  19.4808626  98.1521511  83.3065414  20.9706354
  64.9752998  69.2296267  26.9326615  64.9323940  70.1843023  26.8780851
  65.1424694  68.9456177  26.0339808  45.3357792  88.3968449   7.2227365
  45.8699989  88.9624023   6.6650736  45.9541702  87.7593708   7.5797355
  90.5832195  60.7215166  18.9849293  90.6043243  60.1411963  18.2239997
  89.6603012  60.7526064  19.2369032 108.2175636  45.1785517  39.0505981
 107.2792149  45.3255177  38.9317012 108.6136055  45.4883623  38.2361054
  73.5390520  91.8265724  21.0404587  73.9114666  92.2903156  21.7904472
  73.8159227  92.3386765  20.2806401  34.6981740  91.2061405  33.0380559
  34.4180894  92.0839977  32.7789092  34.4357371  91.1321068  33.9555955
  74.4035339  75.5794239  17.8385437  74.4965458  75.7076788  18.7825406
  75.2506399  75.8398199  17.4768353  63.0020285  72.8595400   9.9522597
  62.8742456  72.9604626   9.0090108  63.6212206  73.5512447  10.1854420
 110.0181580 104.3214703  18.9081049 110.4023838 104.3682671  18.0326569
 109.5619488 105.1562214  19.0143800  96.4109516  79.1431713  35.2292633
  96.8302250  78.8199139  34.4318008  95.6985760  78.5250950  35.3927588
 117.4249649  98.5900116  33.7495303 118.0745506  98.5373592  34.4506025
 116.9193840  97.7812386  33.8302231  27.8413510   4.4809493  84.0703201
  28.4256935   3.7312397  83.9575768  28.2258844   4.9778700  84.7924232
  40.9300709  15.4420984  75.8669615  40.5845451  14.8331249  76.5196466
  40.8798122  16.2996542  76.2892199  17.1676004  99.9935246  88.1816006
  18.0352771 100.3488445  88.3742523  16.7876339  99.8102856  89.0408325
  74.0300703  89.4346046   8.6821187  73.8552523  90.3057384   8.3260143
  73.7713909  89.4954300   9.6016937  98.9359856  71.2244892  56.0858583
  98.4124947  71.2742138  56.8856859  98.4731770  71.7833233  55.4615688
  42.0643997  21.9409013  80.1310921  41.5003347  22.5474930  79.6513891
  42.9145432  22.0099497  79.6966743  39.0469217  29.9126053  83.3474445
  38.6343575  29.1220284  82.9995823  39.5091081  30.2905965  82.5992870
  86.8823433  68.2253742  14.4874763  87.1702290  68.9393854  13.9186680
  87.6522541  68.0147314  15.0157750  68.7186766  76.3892984  29.3962860
  69.6280813  76.1189604  29.2692947  68.2339048  75.9281874  28.7117362
  18.0979156  73.9518070  78.5450602  18.2486582  74.0525246  79.4849348
  18.9343774  74.1844845  78.1420422  87.1617126  67.0912552  29.2627931
  86.6442394  67.2098160  30.0592828  86.9920158  67.8797579  28.7473321
  92.0078945  79.7081757  17.0108199  91.4639282  80.3299046  17.4943268
  91.5143490  78.8883972  17.0355356  90.4458046  45.2628660  14.0996611
  91.3907337  45.3797340  14.0012503  90.3225231  45.0826883  15.0316322
  37.3264432  86.6765881  46.8707561  37.5377274  87.1630764  46.0739326
  36.3724208  86.5996265  46.8585157  97.4122047  92.7009201   9.0656745
  98.0251884  92.5593185   9.7870779  97.6105022  92.0021915   8.4422255
  40.5542850  10.7346773  77.9205894  41.5033340  10.8420253  77.8572369
  40.3219700  10.2033877  77.1590185  52.5648737  89.5909500   7.0123279
  52.8608227  89.0899658   6.2522864  53.1804514  89.3578911   7.7072918
  93.6712074  75.5381155  27.1175551  94.2696095  75.9436226  27.7450180
  93.2452679  74.8373604  27.6112604 101.0677147  58.4178829  18.6941779
 100.3602695  58.0357933  18.1747961 101.1726379  59.3018723  18.3423519
 107.4434376  62.7397442  29.2299533 107.8401089  63.4937620  29.6662331
 106.5610409  63.0320454  29.0015554  91.6151810  56.8457603   4.2213982
  91.7337418  56.8791151   5.1706421  91.1857986  56.0050535   4.0630507
  43.0329895  23.9716792  82.2873974  43.0713129  23.1438255  81.8084145
  43.9327526  24.1227388  82.5769520  71.8840647  75.3917456  13.1921911
  71.2396240  76.0907555  13.0812252  71.3618469  74.5917511  13.2516444
   1.1382079  73.0217128  -0.0835639   0.7166457  73.6457234  -0.6744319
   1.0099577  73.3938520   0.7889623  97.6543522  67.2658682  17.7036083
  98.1157875  66.7270374  17.0609784  96.7612934  67.3301888  17.3651838
  91.1402035  53.9991236  12.6216424  90.6958961  53.2128000  12.9387009
  91.8345356  53.6685371  12.0516872  82.7313709  75.9253645  28.8832474
  82.5177670  75.3362274  28.1596971  83.1384277  75.3603554  29.5399833
  19.6757758   3.3660561  68.3615446  19.0220249   3.9664781  68.7197828
  19.5469582   3.4092900  67.4140358  60.9539318  67.1578932   8.6843574
  60.0698614  67.2607756   9.0365893  61.3317728  66.4394855   9.1916645
  38.6081672 110.0379562  76.3052702  37.9724288 109.8540497  76.9968271
  38.3259225 110.8751583  75.9369373  62.0628548  86.6177082  48.8329887
  62.1724367  86.0031891  49.5586538  62.7696753  86.3994884  48.2255220
  80.6711864  84.0651321   5.5189228  80.3787518  84.7351074   6.1368626
  81.3612175  83.5936642   5.9856302  32.0045996   2.3772903  83.9169312
  32.2109413   1.8645047  84.6984100  31.7993808   3.2505926  84.2507935
  54.2879868  44.2742395  94.3265533  54.4610500  44.6433353  95.1926041
  54.2391539  45.0348186  93.7474442  95.8451653  94.1430283   6.7094147
  95.0048065  94.4368172   7.0611435  95.8646107  93.2030678   6.8891931
  36.1989045   1.8697283  67.9043007  37.0495486   2.1381198  68.2515812
  36.1128044   2.3522630  67.0821190  29.6637869  16.2627089  76.9180346
  29.1532445  17.0720077  76.8932962  29.5679832  15.9464526  77.8163862
  33.8987708  93.0612946  94.2337513  34.7498822  93.2935524  94.6050930
  33.6552358  92.2510052  94.6813488  31.0101128  18.0466330  88.4156513
  30.6076694  18.8765514  88.1597042  30.2710938  17.4529123  88.5482311
 114.2173386  57.6893187   4.3155953 114.1955662  57.8009272   5.2660167
 115.0564289  57.2619724   4.1437754  92.3574638  33.0634952  28.3621311
  92.6417637  32.1626019  28.5163856  92.0479202  33.0652022  27.4563646
  33.5451221  17.7917016  91.7239857  34.0387034  18.1746614  90.9987640
  33.7146950  18.3751595  92.4636173 113.5927868  71.4858246  25.4815936
 114.4240284  71.4131498  25.9506226 113.7374878  72.1856833  24.8448086
  72.0326328  64.0620136  13.5483956  71.0949516  64.2517900  13.5794926
  72.4248028  64.6926928  14.1522837  82.4007893  71.5829563  22.2028899
  81.9929409  71.2504768  23.0024838  82.4984741  72.5226498  22.3567295
  80.6648827  81.1289215   6.9050604  80.7636356  80.6387711   7.7212954
  79.9669123  81.7583084   7.0865738 100.5492973  79.8414230   5.0372910
 101.3271046  79.3478584   5.2973849  99.9478817  79.1789484   4.6972173
  40.0988293  59.8752546   0.9762591  40.4157639  59.0269947   1.2864771
  40.8923578  60.3946590   0.8467783 117.6776123  85.0792789  40.0448179
 118.1013584  84.2848969  39.7198009 117.1832848  85.4108810  39.2952180
  37.6624035  58.5670799  96.8381740  37.2779393  59.1023436  96.1439740
  38.0216717  57.8058255  96.3824890  14.2842340  96.8675900  92.9498577
  14.5387411  95.9757137  93.1865025  13.4434581  96.7663383  92.5036812
  56.5303230  81.1707592  21.5045810  57.1395397  81.2998676  22.2315049
  56.4063883  80.2225971  21.4614582  16.3088286  15.1751370  96.1078827
  17.0446598  14.8265118  96.6111138  16.4458286  16.1224837  96.1082821
  48.8349819  41.4986134  95.5035019  48.9041948  41.5896940  94.5531654
  49.1082335  42.3495674  95.8462048  81.4471245  76.1220026  41.2099600
  81.7733669  76.5218925  42.0161152  81.4213848  76.8414450  40.5791092
  71.5843487  63.6765862  17.7255678  70.9327936  63.2213831  18.2589495
  71.0851812  64.3453455  17.2567189  30.3646612 109.0303993  89.8324108
  29.9620986 108.7614822  89.0066624  31.1938810 109.4331264  89.5746422
  95.6742477  61.3898611  10.2619612  95.7289982  60.4367590  10.1924503
  94.8665047  61.6175795   9.8016113   3.5225064  91.0678482  92.0208740
   3.4461689  91.6974926  92.7377796   4.4351926  90.7808495  92.0503330
  51.0358143  18.0276167  86.8999100  51.4989567  18.4882736  87.5995636
  50.6739378  17.2495580  87.3240566  51.5592957  11.1718142  91.7212868
  51.1145687  10.7272089  90.9996414  51.1796331  10.7859230  92.5107002
  52.2834349  22.8990412  76.8245459  51.9466114  23.7686539  77.0403147
  52.6045036  22.5531363  77.6573086  86.5581989  83.0813980  45.8149576
  87.1528530  82.3667336  46.0427380  87.0028687  83.8706875  46.1240196
  51.1344910  77.4876022  30.7611823  52.0345736  77.1853781  30.6397796
  50.9785461  77.4038744  31.7018747  65.6401014  65.2739429  28.0465817
  65.0800848  65.1036549  28.8039589  66.2064075  64.5043468  27.9895759
  74.0287876  36.8039870  10.5915177  74.7634506  36.4943147  11.1212420
  73.6922646  37.5623941  11.0688007  62.8811169  23.7317920  96.6337204
  63.7764120  24.0318656  96.4767551  62.3294401  24.4086385  96.2415981
  40.2646542  19.4343281  66.7744875  39.3679357  19.3932235  67.1068001
  40.4305363  20.3684878  66.6477537  75.6663513  69.0986586  14.7970665
  75.4369688  68.2787371  14.3596447  76.4209127  68.8762379  15.3424072
  36.9424057  17.6597095  91.7854691  37.3093200  18.2595682  92.4349117
  36.2174153  18.1460142  91.3928795  11.3635921  29.1953778  90.2222252
  11.0135245  28.9552331  91.0801411  11.4634430  30.1465249  90.2619839
 114.4708824  67.0865488  27.4873853 114.3037987  66.8727732  28.4053254
 115.4203987  67.0109844  27.3928642  38.6891103  23.0128384  79.6546793
  38.1396914  23.0337214  78.8711405  39.0365958  22.1212935  79.6798563
  91.5321827  52.3327208  25.3801799  90.7738686  52.8439665  25.0976610
  92.2727108  52.9323483  25.2890897  79.1822004  93.2138920  23.8829851
  79.5569849  93.2125759  23.0022073  78.5240221  93.9085865  23.8621712
  63.9340448  60.6647158  32.9683876  64.2350674  60.9439135  32.1037102
  63.0162096  60.9344149  33.0010819  69.7692394  97.6683998  12.6880825
  69.2035007  98.3539963  12.3329437  70.1651573  98.0631542  13.4650278
  87.7040291  73.1727743   1.9626521  88.2231426  73.2401991   1.1612776
  86.8037701  73.0633974   1.6563626 111.1616325  64.5854378  11.0875940
 111.6839504  64.2795992  11.8291354 111.5980053  64.2173719  10.3192592
  54.1145515  18.1699252  71.9216967  54.8272085  18.0147493  72.5415993
  53.3762932  17.6747131  72.2766209  35.8600974  19.1119838  95.9894562
  35.9046912  18.1731534  96.1706734  35.8478212  19.5224953  96.8540668
 110.6360149  63.2884026   4.2721245 110.8705425  63.8284874   3.5174453
 110.6508255  63.8935709   5.0135982  72.5136662  47.0005941  72.8898335
  73.0389786  47.2745371  72.1380138  73.0865860  47.1363020  73.6445379
  87.7239132  71.5027094  37.1727514  88.0611420  71.9518757  37.9478383
  88.2337856  71.8622255  36.4467931  33.0591488  21.5507698   9.5205241
  32.5507474  20.7585979   9.6943784  32.4484992  22.2687244   9.6874982
  93.4208679  63.6913538  35.9593296  94.0582180  63.2101202  36.4869952
  93.9274979  64.3959761  35.5555224   4.5427674  84.2436504  43.6727428
   4.6325833  83.3787346  44.0728474   4.7116783  84.8570824  44.3878698
 107.7362442  77.1861219  60.6311512 107.0137119  77.8082037  60.7159233
 107.9357624  76.9267368  61.5306759  18.7214160  76.8400049  95.6132412
  18.9633346  76.3097858  96.3725758  18.4634888  76.2019539  94.9479675
  62.8645849  21.1482310   9.9050587  63.4577370  20.9844422   9.1718638
  62.9252720  22.0914841  10.0561297  75.1110411   0.7102871  24.7832012
  75.7896137   0.7602304  25.4564619  75.5295277   1.0568836  23.9951825
  58.4409904  20.7798076  15.6283212  58.5277557  19.9414921  15.1745248
  59.3038034  20.9344172  16.0128760 113.2464314  77.9493713  53.3224106
 113.9832401  78.4828377  53.6203289 112.4754906  78.3748055  53.6977530
  92.0703125   1.4958240   3.1800136  92.1017265   1.9914214   3.9983216
  92.1969032   0.5852201   3.4464845  70.0372934  26.3401270  22.3041463
  69.5121384  25.7220292  22.8124762  69.8913240  26.0857177  21.3929915
  30.2301383  15.9365594  95.3363323  30.4700899  16.5779185  94.6675205
  29.4736814  16.3225877  95.7779026  66.8330860  27.9863667   2.5663346
  66.3528776  27.1909046   2.7962649  67.7027559  27.8591561   2.9454458
  44.3487072   5.1904243  89.7139740  43.6406279   5.7752019  89.4439888
  44.9965572   5.7687116  90.1165962   5.8657205   2.1940492  63.8536882
   5.1025838   1.8744294  64.3350363   5.5236000   2.4293438  62.9912329
  60.7153559  73.3343267  25.5985808  60.8066082  74.1466379  25.1005220
  61.4265633  73.3645582  26.2385035  86.9506073 101.4399242  60.9098625
  87.8893948 101.3887978  61.0895729  86.6036320 101.9983292  61.6055822
  29.7504139  29.0474248  73.8923931  30.2355528  29.3660760  74.6535301
  30.4244995  28.7080073  73.3036327  89.6825123  54.0395737  24.7316504
  89.3015575  54.1664505  25.6005669  88.9573479  53.7160683  24.1971207
 106.0609531  18.7487054  17.5493622 105.8636093  18.6888409  18.4840822
 105.9217262  19.6708560  17.3337555  40.1064682  10.4517639  70.3318644
  39.6925211  11.1914062  70.7766247  41.0431480  10.6461012  70.3649902
  61.5232182  11.2553394  11.1438036  62.4509716  11.0779822  11.2988770
  61.1121845  11.1478460  12.0015490  28.0195403  35.2479362  24.3360090
  27.1921945  35.2456808  24.8173904  27.8667212  34.6624112  23.5943627
 110.7097816 105.5137348  86.8423653 110.3961849 105.8463955  87.6833344
 111.1573982 104.6961308  87.0600796  85.3886223  40.1219320  -0.0442880
  85.3237057  40.8049679   0.6231579  85.9220219  39.4392490   0.3627230
   9.0721297  93.4734726  86.3559151   8.1704116  93.6595535  86.6176605
   9.0495789  92.5681114  86.0459900 115.1061344 107.7594852  57.9829025
 115.3698349 107.5939178  57.0777607 115.7884884 107.3448372  58.5108232
  18.5056293  73.0026388  94.3576813  19.3104815  73.1143141  94.8636246
  17.8031313  73.1839705  94.9820614  11.7092276  96.8818855  81.8004131
  11.3225901  96.3254261  82.4764919  12.4736524  96.3928223  81.4959335
  54.2287731  13.8970590  88.5101032  53.3680248  14.1103792  88.8704300
  54.3608141  14.5368576  87.8104877 111.3618279  24.4636655  81.3771439
 111.6721153  24.3547273  80.4782104 110.5955219  25.0318885  81.2988186
  99.5750141 102.6101589  81.3233471  99.3869305 103.2289886  82.0289707
 100.0367260 101.8901157  81.7529774  20.9745002  94.7363186  91.9469070
  20.3317404  95.4418373  92.0199299  21.3335228  94.8297882  91.0645199
  94.2580605  98.2136345  79.9094915  93.5572624  98.8346958  79.7110176
  94.3258762  98.2261181  80.8642006  16.3457179  74.8723221  85.1094627
  16.5686810  73.9439201  85.0417423  15.3900945  74.8858786  85.1626778
  59.4138193   3.0961245  65.5710554  59.1622829   2.9753819  64.6554232
  60.2309275   2.6058567  65.6616259 110.8566093  88.1696796  66.9920540
 111.8000221  88.3165836  66.9241285 110.6358719  88.4388828  67.8837013
 114.1619968 103.9503002  83.5457993 114.9837589 103.8576984  84.0278435
 114.2534542 103.3569145  82.8003025 101.8136311 100.9417343  59.2239571
 102.2991848 100.1174545  59.1917372 101.0810947 100.7652760  59.8142815
  75.5980015  27.4478292   6.3687110  75.9193373  27.5717187   7.2618115
  74.6485996  27.3719192   6.4641291   7.7187008  55.7140779  86.2644196
   8.0482244  56.2843657  85.5698586   6.9095021  55.3466225  85.9088802
  52.0743227  26.7976999  81.3451481  52.8605890  26.2825036  81.1646175
  51.8481493  27.1925998  80.5030441  94.1400623 100.4191875  73.9599371
  94.5715809 100.9862614  73.3208370  94.7174168  99.6593475  74.0342951
  47.4632931   9.9684978  94.6327400  46.8030214   9.4436479  94.1801834
  48.1464624   9.3413842  94.8698902 108.3683205 103.5256767  63.2251740
 108.1793308 104.4178200  63.5160160 109.2746067 103.3733940  63.4929180
  32.2899342  22.0006871  75.3105974  31.9742751  21.5645981  76.1020613
  33.0024886  21.4432263  74.9979639 111.2501144  86.5074825  88.6123943
 111.9114208  87.1165180  88.9409733 111.7527771  85.7602787  88.2879639
 112.5428486  91.2433624  82.7581406 112.2050667  90.4058266  83.0754280
 112.8525639  91.0564613  81.8719292  73.9801788  43.3489132  16.1909640
  73.7524843  42.6172161  16.7645586  73.1567717  43.5825062  15.7623971
 104.3176270 107.2205734  95.5524921 103.8816261 107.3173141  96.3991165
 104.9805164 107.9110336  95.5441856  52.7727032  42.3028612   5.3483355
  52.9488087  42.9629564   6.0187751  53.2189322  42.6298714   4.5671993
  82.2371674  45.9869385   3.2349309  81.4319706  45.7902908   3.7137067
  82.9270554  45.5556488   3.7391844   2.5987917  81.5395451  74.2786121
   3.0520988  80.7767773  73.9195538   1.8080416  81.1806393  74.6812630
  18.0994761  87.3556519  50.3388929  18.0262625  87.9284763  49.5755196
  18.9611506  87.5540638  50.7054710  43.5656786   8.7317854  31.5252852
  43.4309053   9.1459501  32.3776555  44.3318415   8.1716377  31.6496325
 100.8764744  91.4414501  81.0628605 101.4161777  90.6603241  81.1845398
 100.0433922  91.2245369  81.4813805 115.2439880  85.5547619  92.8247166
 114.3351460  85.8551598  92.8242683 115.2641869  84.8517036  92.1754551
 103.1715870  81.6046238  91.8391800 102.5231361  82.2200298  92.1812630
 103.2671452  80.9488392  92.5298691  41.2185431   3.1712240  91.2913418
  40.7819700   2.3606284  91.0294724  41.7261553   3.4292227  90.5219269
   6.7679828  35.7694364  94.9934101   6.8013573  35.6612921  95.9438992
   5.9666562  36.2691426  94.8371983  33.0981565  31.3334680  10.1785588
  32.3329282  30.7974029  10.3866303  32.8247166  31.8598843   9.4273275
  76.5118694  87.4323463  92.6990604  76.5097904  87.1792793  93.6221981
  76.1413002  88.3148766  92.6918221 112.5210190  87.2315216  86.0039139
 112.8645420  86.5072441  85.4808044 112.0765209  86.8071842  86.7377949
  85.7839680  38.0650854   7.6928914  85.6781387  37.5029063   8.4603459
  84.9599075  37.9747558   7.2143573 102.8835964  15.7637084   8.9214957
 103.3820343  16.5583670   8.7309486 103.2659531  15.4299843   9.7330779
  33.9153337  32.7233386  87.3439217  34.1112161  32.3756886  88.2139778
  33.0676222  32.3403454  87.1182346 111.1421585  40.1253986   9.4918889
 111.7231464  40.8855581   9.5210654 111.5919304  39.5019364   8.9215970
  62.2051954  27.1550250   2.4533206  62.9490519  27.7527547   2.3783135
  61.5694523  27.6298165   2.9887062  51.4715147  19.9404907  30.8941579
  51.9866800  19.5847845  30.1700640  51.5210629  20.8895445  30.7798123
 112.4012470  99.9524117  80.4638290 111.7900276  99.2248821  80.3482628
 112.6949978  99.8765373  81.3716698  66.7607403  52.1560097   6.1965382
  66.5721560  51.6655874   6.9966346  65.9180021  52.5315094   5.9415293
  46.2452984  20.5148244   6.3165081  46.0042048  19.5943165   6.2127107
  46.8930292  20.5147672   7.0212591  67.7608490  34.7310114  11.7746508
  68.3052731  35.4605126  12.0707309  68.1875801  33.9527845  12.1331096
  66.1541796  66.0179996   5.5644083  65.8048153  66.4139175   6.3627952
  66.8598986  66.6057110   5.2946228  -0.1903447  48.2936716  26.8014765
   0.7344597  48.0476284  26.7807364  -0.4063746  48.3349419  27.7330661
  54.7326326  17.9670882  13.6905611  54.8058987  17.3305583  12.9794395
  54.2642307  17.5002372  14.3825758  75.8674335   7.5879592  32.9728174
  74.9619055   7.8493714  32.8057432  76.3933086   8.2163000  32.4779654
   6.3294810 105.0851154  83.4278679   5.7171768 105.8193016  83.3800793
   7.1884328 105.4956722  83.5272408  51.0169744  17.7606523   4.2657739
  51.3964796  18.3462358   4.9209842  51.0637760  16.8919921   4.6651131
  97.3171139  69.2365885  81.6690922  96.9794369  68.6018324  82.3009872
  96.8586254  70.0502872  81.8786526  75.8627367   7.5061131  76.8642998
  76.1714602   7.2213095  76.0041809  74.9128008   7.3945469  76.8268251
  68.9035225  41.3943052   0.4348981  68.4577465  41.9213676  -0.2282175
  68.2049322  40.8843040   0.8448955  59.9036598  41.8581343  16.0896266
  59.4722939  41.1690998  16.5949881  60.4700041  41.3876724  15.4779482
  64.6710014  47.6386499  20.2195621  65.4124260  48.1690836  19.9277472
  64.1428995  48.2359838  20.7492137  47.8278828   0.4969452  83.7747478
  47.3697383  -0.0410130  83.1290436  47.3557592   0.3429840  84.5930576
  38.7236476   2.8554252   1.8872055  38.5817480   2.1063831   2.4660252
  39.0504122   3.5455966   2.4643704  75.1641178  84.0962029  75.5163908
  75.5912066  84.2311668  76.3623285  75.6812096  83.4104919  75.0937176
  58.7594414  34.9583507  15.4809320  58.4611511  34.9514747  14.5714223
  59.6268511  35.3615546  15.4454708  14.5321655  89.1571617  88.6237049
  13.7450016  89.3068027  89.1473579  14.5437288  88.2119083  88.4733963
  40.9494972 107.6860046   8.5740173  41.7218781 107.4190903   9.0724289
  40.6237364 108.4600258   9.0333688  90.2010059  28.7882590   2.3187511
  89.7904778  29.6221614   2.0900296  91.1290455  28.9985991   2.4222828
  85.2386379  18.4323597  21.8624020  84.9060822  18.9640391  22.5855565
  84.8938370  18.8552034  21.0759234   2.5262028 109.3473721  95.1504803
   2.0129505 108.8430786  95.7817364   3.2213947 109.7479057  95.6725121
  82.6151180  41.4068842  11.1701024  83.2388115  41.8908596  10.6288028
  83.0254173  41.3708258  12.0341539   7.9741836  74.0091276  89.6071529
   7.6158249  74.5198011  88.8811874   7.2094488  73.6016464  90.0138092
 102.7166843  41.4793587   8.9634812 102.0737457  41.5569782   9.6683443
 103.5568047  41.6615391   9.3844801 109.6175575  73.4195995  95.7645416
 110.1620388  72.8348351  95.2374554 109.3031311  74.0776682  95.1446056
 117.8128433  84.6805096  89.6872330 118.6830425  84.5018482  89.3307590
 117.6635647  83.9767742  90.3186607 105.9140015  29.4719934  24.8852515
 105.0839233  29.0576243  25.1208496 105.6636047  30.3246641  24.5296049
  80.4060173  55.7831049  15.8923197  80.5539703  55.4015541  16.7576301
  80.9496880  56.5708542  15.8817661  79.8530722  15.8176613  25.1108432
  79.0205574  15.6183004  25.5391049  80.0421906  16.7212594  25.3637838
 102.3083687  78.6755085  89.9458694 102.2060394  79.1998100  89.1516018
 101.6945457  77.9495478  89.8343945  89.7188950  79.6851969  12.4075592
  88.9444733  80.0068378  11.9459808  89.4391441  79.6078539  13.3196962
  64.0690184  33.5591626  11.7064059  64.6555614  34.3003845  11.8573570
  64.5227718  32.8115535  12.0955336   4.3572196  58.3228540  88.0857086
   4.9719957  57.6065159  88.2442760   3.5563251  57.8900719  87.7898979
  24.5911384 102.7564049  15.4915309  23.9783454 103.1166840  14.8505020
  24.0850735 102.7016258  16.3021660 111.9449234  93.9932346  80.1511478
 111.2096786  93.7342262  80.7066345 111.6313934  93.8524151  79.2577791
  79.1534138  88.9714813  95.8306122  79.3457222  89.8229408  96.2233734
  79.2616844  88.3469200  96.5478516   9.0787017  20.8483887  69.4205379
   9.6616352  21.4531446  69.8795462   8.6921567  21.3736701  68.7199020
  69.5192289  37.1646309   5.8700573  69.3399239  37.0416403   6.8022346
  68.8932467  37.8332233   5.5919188 110.7150936 100.2499008  77.5838423
 111.1645126  99.6266747  78.1546783 109.7945404  99.9906731  77.6239491
  13.2305133  82.5286674  68.9042282  12.3457146  82.5409031  68.5392475
  13.0994189  82.5693035  69.8515368  58.0501461   2.7970245  89.0565777
  58.0509901   2.2709368  89.8562431  58.1546497   2.1594454  88.3503151
  95.9562016  47.6630497  22.8291655  96.6899586  47.0713234  22.6627421
  96.0042381  48.3084249  22.1238875  31.5468431   4.7139925  85.1000977
  30.9543395   5.4634100  85.1596355  32.3232222   4.9828815  85.5911827
  96.2440872  51.7753315   5.7806498  95.8324528  51.4882994   4.9655381
  96.6262627  52.6270199   5.5690014 107.5059319 107.1854305  85.4879951
 107.3981571 108.1249905  85.3402233 107.8518295 107.1211052  86.3781834
 113.2090569  94.6801186  86.8481541 113.6423969  95.4889965  86.5758419
 113.3943939  94.0599918  86.1429405   3.1253007  94.6509361  74.4209003
   2.5010353  94.7304916  75.1421452   3.9713722  94.5219421  74.8495626
  69.3101215  34.1037989   6.4587516  69.6040630  33.2084322   6.6265368
  69.3503475  34.1946554   5.5067229   0.7512192  34.1453362  26.2667131
   0.7763673  34.8373938  25.6059146  -0.0183632  34.3493819  26.7980695
  26.8254709  19.9327934  56.2843752  26.1185813  19.8022890  56.9164419
  27.3618793  19.1434968  56.3585997  44.7215003  60.4042511  -0.3246718
  44.8248685  60.8696704   0.5053396  45.1036471  59.5413606  -0.1646262
 103.2183838  52.2134399   6.1904269 103.6757469  52.7154922   5.5158913
 102.2933197  52.2823000   5.9543312 109.3367100 109.4813156  66.6750860
 109.6551514 109.9592972  67.4408293 108.6077023 108.9567947  67.0062590
  28.4152269  18.7434602  59.0387821  28.1404471  18.2032597  58.2978964
  28.6971545  18.1140685  59.7025681  81.0382938  64.1156483   1.3000660
  80.5594540  64.1219473   2.1288648  81.1002731  65.0381327   1.0522435
  82.8650093  76.1107159   5.1666564  82.2137260  75.8044338   5.7977295
  83.4125710  76.7186213   5.6635076  95.2537251  77.1647215  25.3793979
  94.9748898  76.3227463  25.0194550  96.1622143  77.0225096  25.6452179
 112.2798824  37.2499752  12.0207763 113.0577755  37.6800585  11.6655970
 112.0640087  37.7548575  12.8048205  91.3967323  31.3208127  22.7049088
  91.7901039  31.2566185  21.8346429  91.0298824  32.2043300  22.7373528
 105.2371311 111.2590599  85.9092522 104.8130131 111.8762875  85.3131104
 105.6389999 110.6081009  85.3339386   9.7429729  81.5286827  82.1830845
  10.0506306  81.0840034  82.9729176  10.5245662  81.9500542  81.8256092
  36.9623137  99.8793507  71.4812803  37.2155643  99.8853683  72.4043512
  36.1971641 100.4529381  71.4391041 102.2877026  16.8009889  90.9776974
 101.8734455  17.6547503  91.1030769 102.8775120  16.9277740  90.2345371
  67.5147247  22.6571512  14.0300500  66.8357277  21.9881153  14.1171598
  67.2779894  23.3240080  14.6746349  53.0952835   4.1668758  87.3304749
  52.7550936   4.9789494  86.9549274  52.6202774   3.4736365  86.8721962
  80.4364586  69.6827555   1.5657653  79.6828985  69.2285156   1.9426477
  80.4866505  69.3582201   0.6666607  49.2261267  19.4595242   6.8677831
  49.1879034  18.7004817   7.4496984  50.1611090  19.6402514   6.7709583
  12.5823116  92.0241451  54.3793488  13.4691024  91.9637585  54.7345734
  12.7066553  92.0702839  53.4313822 113.1156254  10.2036726  92.7720356
 113.6342907  10.3245127  93.5674000 112.2293377  10.4648399  93.0220699
 109.2232609  97.0343781  92.6350212 109.3869686  96.1201096  92.4036026
 108.3095264  97.0494461  92.9197979  22.9696655  77.9787397  93.5312653
  22.2622919  77.8757477  94.1678524  23.3667302  78.8220978  93.7487793
  74.5919561  25.4318261  13.0447233  75.1210546  26.0559487  12.5479758
  74.7448587  24.5912886  12.6130414  45.2129269 104.4994926  79.0338469
  44.6949148 105.0094604  78.4110832  45.8512306 104.0360928  78.4915733
 100.7437992  23.5729098   5.8991486 101.4851379  23.9386082   6.3817596
 101.1443615  23.0668783   5.1922458  18.3135748  95.9980392  54.6631670
  18.8417327  95.7438755  55.4199266  18.7450457  96.7815018  54.3222141
 115.2966499 109.3289757  71.5899706 115.1193237 108.6078644  70.9859943
 115.4860783 108.9009762  72.4249363  61.2168837  19.9122465  69.4618893
  60.6989098  19.7273040  70.2452993  61.3223362  19.0605700  69.0379095
  96.9923496  66.8914557  23.2140541  97.1135330  67.6078129  22.5908518
  96.8546581  67.3266554  24.0554070  30.5324793 100.1422691  88.4767246
  30.6019926 100.7109165  87.7098846  29.8559570  99.5066929  88.2430649
  58.3212042  23.0685854  78.9990044  59.1027164  22.5416327  78.8323069
  58.4364796  23.8470173  78.4540415  76.3678503  72.3980761  17.4510598
  77.2810125  72.4109554  17.1643567  76.3324213  71.7014599  18.1065714
  58.6546564 104.2126656  79.2929173  57.9572344 104.7937965  78.9894009
  58.2146597 103.3803272  79.4656467  85.9993744  66.1518621   9.8582751
  86.5697193  66.1495161  10.6270027  85.1184368  66.2686968  10.2139843
  21.4557314 107.1389103  83.8389111  22.1120954 107.7852058  83.5786724
  21.4265656 107.1983147  84.7938251  93.0497742  71.9831848   6.9996619
  92.3288250  71.4220572   6.7139858  93.6602592  71.3867617   7.4330288
  34.5871353  46.5099955  91.6265678  35.2714181  46.6826200  92.2732449
  35.0068688  45.9435511  90.9791088   3.7499928  80.5845356  94.0625095
   3.2903147  80.4803753  94.8956299   4.6762067  80.6149101  94.3021679
   5.2188122 111.3215173  95.7810497   5.9602272 110.8980587  96.2137413
   5.3302490 111.1107767  94.8540115 107.2230911  90.1983929  45.4423094
 107.3326874  90.3443527  44.5026731 108.0730247  90.4238892  45.8204556
  39.9320102  53.9719296  95.0533962  39.2453718  53.4357357  94.6568394
  40.6340790  53.9815807  94.4028282  91.0231590  72.5652981  14.5709991
  90.2939892  72.0134211  14.8538101  91.7118549  71.9464111  14.3283093
 111.5403843 106.4728832  81.2613392 112.2705460 106.1024475  81.7571926
 111.5650558 107.4085617  81.4616489  20.0292301 106.2119484  74.3495417
  19.3573618 106.2185097  73.6677933  20.1209736 105.2890873  74.5865250
  81.3599491  88.6110878  10.2593887  80.9848881  88.0758858  10.9587610
  80.7595539  88.4974194   9.5226133  35.8473754  16.1947978  96.5053082
  36.7640758  15.9866214  96.3248730  35.3658414  15.8106995  95.7726192
  74.4669104   6.7675465  92.7024937  74.5888901   5.9587067  93.1996155
  75.0993013   6.7063344  91.9865513  77.1468735  65.6641674  21.7860174
  77.9371309  65.4809380  21.2779355  77.0587873  66.6168499  21.7566729
  30.9555030  90.5361748  84.1185760  31.8310213  90.7661629  83.8074398
  30.4609513  90.3441620  83.3218384  76.3702583  62.1536779  11.8174088
  75.6904554  62.7808666  12.0638478  77.1915054  62.5868750  12.0500541
  69.4829273  58.8854790  14.4253016  70.3771925  58.8234138  14.7609663
  69.5795488  59.2772961  13.5573292  84.8740578  40.5974340  17.9441369
  84.8423767  41.2146807  18.6750495  85.5325317  40.9608984  17.3520720
  66.3501835  27.6042485  14.6591628  65.7070971  27.7476478  15.3535020
  67.1929407  27.7982903  15.0694513  86.7491627  81.7220211  22.4112082
  87.6183987  81.4437866  22.1226883  86.3002205  80.9077644  22.6385093
 104.2535305  38.7813115  13.1609929 103.6259651  39.3451881  12.7088571
 103.7169743  38.0935335  13.5550630  79.1915941  84.1967106  88.4365273
  78.4503126  83.8679600  87.9279423  79.8807192  84.3427944  87.7884579
  81.9294739  87.1584892  90.0446892  82.2425556  87.4557972  90.8989811
  81.2448692  86.5214348  90.2489281  17.3494375  82.3366165  86.7330074
  17.8141057  81.6234970  86.2950802  17.7841151  83.1313324  86.4236259
  81.9147396  74.5063543   7.9317337  81.3688946  73.8266611   8.3270907
  82.7874279  74.1158438   7.8853476  93.0583191  45.9905624  13.9946675
  93.5848808  46.4927101  13.3727252  93.3012199  46.3408232  14.8517275
  65.3604031  58.0204105   8.4842825  65.6932068  57.3391628   9.0685546
  66.1237383  58.2933092   7.9752910 101.6308212  74.6963930   3.9642629
 101.1675644  73.8618469   4.0360451 101.0850430  75.2239180   3.3811057
  96.0287094  93.1849098  75.8842897  95.2114677  92.8316402  76.2357759
  96.6384411  93.1569672  76.6216373  34.2120385  98.5415459  80.8515549
  33.4914160  98.3353806  80.2562141  34.8924160  97.9044724  80.6337070
  81.0245800  73.6588860  14.0091431  81.8538475  74.0867519  14.2223930
  80.3792191  74.3656111  14.0257227  59.3600988  39.4008827  13.0210483
  58.5915995  39.8227286  13.4053528  60.0436831  39.4989014  13.6838698
  83.2776928  81.0475540  21.3105917  82.5328064  80.4496288  21.2484121
  83.0610180  81.7630768  20.7128429  36.4587402 101.9312763  96.4183903
  37.1300054 102.4610996  95.9883595  36.1168194 101.3681412  95.7239819
  14.4576240  57.4052715  17.1076846  14.5499432  58.3204556  17.3725331
  14.2855132  56.9359016  17.9239583  83.6418438  28.2023549  23.3763361
  83.6458111  27.9056406  22.4662948  84.5039368  28.5986161  23.5028148
  69.7358179  71.1670876  14.7616947  69.7042513  70.2450943  14.5064294
  70.5711269  71.2603331  15.2197349  78.1573057  47.1295261   5.1564091
  79.0501070  46.7881250   5.2071947  77.9433584  47.3754406   6.0564005
  40.9491205  91.7292309  91.7663002  41.4822245  91.5940762  92.5497341
  41.5720558  91.6796780  91.0412312  38.3004808   4.6486247  90.4867172
  39.1040254   4.1727987  90.6968117  37.8140974   4.6729103  91.3107777
  19.0983152   4.5612776  88.6333656  18.6979496   4.4813246  89.4991302
  18.4319222   4.2324468  88.0300236  96.8504620  55.5522776  14.9899721
  97.2426414  55.6715393  15.8549619  96.4273357  56.3898945  14.8012829
 111.6279793  79.0325022  78.8347864 111.2224770  79.8547459  78.5596180
 111.0372353  78.3533716  78.5091543 114.3755531  96.8206978  71.6966200
 114.4034195  95.9302902  71.3464451 113.9793491  96.7251682  72.5627184
 112.2538757  37.7847028  23.8488197 111.5565681  37.7891779  23.1930971
 112.5195408  38.7013674  23.9221954  29.2655873  11.0553396  77.6845932
  30.0110340  11.3622177  77.1684885  28.6768889  10.6585240  77.0425606
 117.3122311  98.2703590  84.0566540 116.5933704  98.7968349  83.7069511
 118.1030655  98.6885643  83.7161827  82.7244282  64.0521765  11.3945925
  83.0428028  63.1876802  11.6544354  82.9867077  64.6294880  12.1116340
 102.8717422  64.4152403  23.9703393 101.9611454  64.6670389  23.8165593
 103.2782173  64.4457769  23.1042719  49.5123768  28.4442854  86.6586494
  50.1253462  29.1566300  86.8404865  49.5535088  28.3293939  85.7092667
  32.9112732  27.3503251  94.9942464  32.5763333  27.3423905  95.8908971
  33.0854428  28.2736916  94.8117893  63.0191994  25.1204801  27.2449541
  63.9551497  25.1169109  27.4454999  62.9253101  24.4923639  26.5287924
  18.4784698  33.5757804  93.3931065  17.8204179  33.7655520  94.0618324
  18.5418999  32.6207304  93.3837223  61.2392521  61.4546871   5.6422907
  60.3812170  61.8116617   5.8715767  61.7820883  62.2250080   5.4744768
  56.8654633  13.6814260  56.5437031  56.8956089  14.2532742  55.7766914
  56.1731625  14.0515888  57.0913649  47.8836823  32.2589827  81.7049026
  47.1615267  32.7106953  81.2682343  47.8937387  31.3866782  81.3109398
  77.8716087  85.3474903  10.9472156  78.7467337  85.0594902  10.6875253
  77.5917673  85.9299469  10.2410495  21.4510107  90.4122829  96.2669945
  21.3551521  90.2667141  97.2081947  20.9532833  91.2119007  96.0963821
   9.6947628  92.3419094  27.5398874   9.1545373  91.6127110  27.2355056
   9.1988099  92.7207947  28.2656360  32.6296639  21.8846059  94.4241142
  31.8763900  21.3834119  94.1116714  32.3051548  22.7818322  94.5009995
  62.4918985  14.8150015  90.5694199  61.9816589  14.7546458  91.3770390
  62.4249744  13.9439809  90.1781750  21.4435840  85.0599480  64.4051647
  21.7707801  85.8396339  64.8537779  20.4923630  85.1667404  64.4022846
  63.6684275  47.3592472  11.0515141  63.0126238  48.0119181  11.2968218
  64.5003176  47.8316069  11.0841358  18.1810772  51.6176414  62.2884703
  17.6685989  51.9178486  61.5378237  17.9342055  52.2094727  62.9991198
 103.8733101  67.5144148  88.8601017 104.7381210  67.4508429  88.4547615
 103.4156609  68.1788874  88.3450699  95.2694035  41.9762373   0.8563387
  94.9882126  42.7752113   1.3022080  95.5745316  41.4038563   1.5602635
  99.3953991  84.2771435  76.0114145  99.7168064  85.0126743  75.4899454
  98.7209988  84.6586132  76.5734625  12.4786842 105.8039284  61.8351173
  12.9313695 105.7015228  62.6722717  11.5494347 105.8111000  62.0646286
  35.0941181   9.4708711  60.9162235  35.9973502   9.6812189  60.6792498
  34.6789336  10.3218484  61.0565519   9.4204950  96.3887787  29.1897511
   8.5064733  96.3739872  28.9058876   9.3762511  96.3199711  30.1434469
  99.4840717  91.2641525  66.6421461 100.0291443  90.7758999  67.2591877
  99.3540478  92.1157837  67.0593309  91.8218517 110.0065804  66.3268375
  91.4330673 109.4866562  67.0302296  91.1690998 110.6808853  66.1385441
  13.5742640  51.4733791  75.4224682  13.3974564  51.3416576  76.3539314
  13.3376026  52.3866224  75.2605629   8.4028977  91.6282749  46.2583208
   8.4130979  91.1293125  47.0751190   7.5547981  92.0720768  46.2593412
  18.2486582  81.0428810  71.6542053  17.4969959  81.0601997  72.2466040
  18.7801230  81.7934418  71.9196033 109.0762520  78.9431143  86.7358589
 108.1329632  79.0687847  86.6326523 109.4582653  79.7863817  86.4925480
 114.6945953  51.7519855  56.2929153 115.4608631  51.4708996  55.7928562
 115.0551987  52.2685099  57.0136118 101.6418266  53.4469604  34.8294306
 102.5097179  53.5275936  34.4338226 101.8098068  53.1061745  35.7079983
 112.5740242  96.9131947  54.0520048 113.0266953  96.3884354  53.3917379
 111.8694496  97.3473930  53.5710955  67.5986910  13.2546747  80.5556393
  67.2216368  12.4447870  80.8993626  68.3430386  13.4349060  81.1298370
 115.0057507 103.2527733  90.9271908 115.4856873 103.0843258  91.7380714
 114.0870094 103.1199932  91.1606598  29.0276742  92.7908993  75.7049561
  29.6051145  92.3666859  75.0702620  28.7690544  92.0878124  76.3007975
   7.0665836  70.1560879   8.8301289   6.7424011  70.2994823   9.7192729
   7.9251081  69.7503519   8.9507353  90.9909248  69.8507881  46.7585039
  91.2067986  70.2354527  47.6080132  90.2188396  69.3113232  46.9290972
  18.5733294  91.0711861  63.2930994  18.2667363  90.2982807  63.7672901
  17.8721941  91.2640476  62.6706505  40.1077604  16.6020000  72.7304125
  40.0526619  16.9852042  73.6058235  40.9587193  16.1640191  72.7138090
   0.4677763 108.6384773  40.8322859   1.0379200 109.4072056  40.8472729
   0.9844327 107.9489326  41.2491989   7.8986663  78.4327221  65.0923491
   8.4325725  78.2971525  65.8751631   8.3527839  77.9449272  64.4052792
  15.7090235  38.6458325  74.4396782  14.9550486  39.0828872  74.8355770
  15.4190683  37.7437115  74.3042803 111.7726517  87.5562668  75.6953859
 111.6118526  88.2643223  76.3191128 110.8993149  87.2591972  75.4399109
  15.1605082  72.9713678  44.9837685  15.5575347  72.2446823  45.4639053
  15.5376089  72.9128742  44.1059256  35.9310937  88.2979679  64.3748331
  35.7225847  87.4547482  64.7770023  35.1250601  88.5558510  63.9275742
  11.0562408  55.4374170  69.9547386  10.5825090  55.6714964  69.1566038
  11.9763052  55.4214334  69.6911907  13.4629703  96.2644958  60.5654430
  12.9941916  96.7809868  61.2209654  14.2586911  95.9757042  61.0122776
   2.7197462  99.0818405  63.4567261   2.1638525  98.3180046  63.3025742
   2.2628187  99.5773602  64.1363668 110.2208042  76.8510628  51.1318111
 110.7870007  76.5109921  50.4389906 110.6142139  77.6898289  51.3725138
  14.0110254 101.1909103  62.6864862  14.0126705 100.3486156  63.1412077
  14.9373460 101.4057732  62.5769615  94.5534897  89.0643883  56.1986256
  95.4087448  89.4937134  56.1775112  94.7522640  88.1424236  56.3620186
  24.3110061  75.1515579  40.3960943  23.8357329  75.6918526  41.0273075
  23.6664534  74.9541855  39.7165132  38.9662385   6.8846750  33.7749887
  39.7279143   6.5926123  34.2757702  39.3328142   7.2296768  32.9608440
 105.5300236  77.2344637  41.3613272 105.2210808  76.5722609  41.9796038
 106.4349365  77.4034214  41.6236544   8.1465155  57.5513315  72.9645252
   8.6127555  57.6125097  73.7982559   7.7848166  56.6651344  72.9568386
  33.4936810  17.5155938  84.6299553  33.1983709  16.6072619  84.6928692
  33.6309195  17.7862489  85.5377865  11.4568853  49.5400381  51.6435814
  12.3181224  49.1366434  51.7521048  11.0573566  49.0601969  50.9180737
 105.5277061  93.3726788  32.2144365 105.1712322  93.8824081  31.4868855
 104.8397827  93.3914185  32.8797460  11.3130057  86.6743946  39.0565634
  10.6972075  86.0597324  38.6575413  11.1709034  86.5784073  39.9982786
  91.7986298  15.7985437   4.9601093  92.7149391  15.9857965   5.1639253
  91.3138771  16.5298903   5.3427017  20.6685781  15.2758098  59.3669510
  20.0100112  15.9700835  59.3894339  21.0557365  15.2844930  60.2423191
  97.4054909  94.9708366  55.3774309  96.9908905  95.6401443  54.8330355
  97.6488590  94.2788696  54.7624683  91.5648460  92.0218945  62.1695757
  91.4832497  92.9540253  62.3713541  92.3772335  91.9557095  61.6676998
  33.6773443  83.7426090  52.6860571  34.1120815  83.6268902  51.8411636
  33.8493586  84.6544361  52.9210281  15.1714873  85.0347137  45.9802580
  14.6961963  85.8646297  46.0200071  15.9017849  85.1475716  46.5886688
  28.4775257  90.1995182  43.8457632  29.2118692  90.7845688  44.0319967
  27.6993299  90.7312679  44.0127659  23.2111287  44.5349407  96.2677288
  23.4828711  45.2707005  96.8164062  24.0317202  44.1448259  95.9666061
 112.5780678  68.7113619  34.0551567 111.7252636  69.1424227  34.1112399
 112.4922371  67.9372978  34.6116567  22.4486756  84.5924187  68.5840225
  23.2829571  84.5825005  69.0531826  22.4258161  83.7564468  68.1183386
  19.0953171 110.8261220  67.9612970  18.4336149 110.5300890  67.3361969
  18.8410532 111.7246283  68.1716967   5.3610796  79.1386175  43.6118603
   5.3150809  79.1888523  44.5666361   4.5425588  78.7142467  43.3546352
 110.2242565 107.1104908  42.0275211 111.1354351 107.0155239  41.7500877
 110.2077103 107.9321384  42.5182772  11.3833332  79.3641520  41.7378759
  11.8820596  79.6829748  40.9856415  10.6116760  79.9295712  41.7706919
  77.5846243  84.7593689  49.4636059  76.6366625  84.8909092  49.4464016
  77.9487228  85.6441498  49.4922590  17.3863006  87.8758335  90.6215954
  18.2439315  87.4536800  90.6714725  17.1261227  87.9982090  91.5345955
   2.1146823  92.8589535  64.7815466   3.0446094  92.7628708  64.9870634
   2.0613845  92.7099705  63.8375187  10.6661248 110.2238369  62.7496910
  10.3915322 109.7421169  61.9694471   9.9746692 110.0565910  63.3901215
  15.8068991  74.3692541  62.5275803  15.7598329  75.3223562  62.4526596
  16.6799569  74.1464329  62.2045422 108.3535671  96.0916710  65.7923222
 108.5088253  97.0098019  65.5705929 108.9412785  95.9202862  66.5281582
  15.8821154  66.5786695  88.3323193  16.4110494  65.8722591  88.7030506
  15.0195789  66.4671946  88.7321091  56.5055704 101.5932655  63.3144426
  56.4844513 102.4969864  62.9996681  56.4486217 101.0616970  62.5204515
 110.5819416 105.3998184  84.2039871 111.4308548 105.7486820  83.9321995
 110.5085945 105.6406116  85.1274967  62.6443481  18.9044690  18.9699805
  63.1261158  18.1040180  18.7616324  61.7308426  18.6903954  18.7804854
 103.4167004  78.2734966  67.8860998 103.2798481  78.8011312  67.0992708
 103.3701324  78.9016819  68.6068249 116.5035439  96.1874199  67.2166300
 117.4368382  96.3239288  67.3796177 116.3192654  95.3246021  67.5878716
   7.9249209  55.9792423  57.7698708   7.1919191  55.9863949  57.1543312
   8.5922062  55.4431105  57.3414803  84.1007900  69.8922920  59.9568129
  83.4072399  69.4755793  59.4453716  84.9031830  69.4531155  59.6748114
  23.5642409  88.9077950  53.0087757  23.7400389  89.8353863  52.8509617
  22.6096940  88.8481712  53.0477571  27.2883701   3.9969960  41.3503313
  26.6061997   4.2339814  40.7220697  27.5735593   4.8323092  41.7206717
  80.6964684  26.9425583   2.0358747  80.9531879  27.6889205   1.4943324
  80.2503395  27.3338079   2.7869552  34.8712325  86.6172886  41.9194555
  34.2140031  85.9368420  42.0652866  35.6303406  86.3297176  42.4266958
  20.7248735  81.5755463  33.5482430  21.6005516  81.1890507  33.5420036
  20.3952312  81.4076042  34.4310570  17.8869545 102.8304958  32.4302649
  17.3107314 102.0763969  32.3055816  17.9471815 103.2318306  31.5633535
 109.3929672 103.2802868  45.2180338 109.8044395 102.6175594  44.6633148
 108.4634972 103.2371807  44.9933815  15.3808033  80.0220585  63.9982367
  15.3625238  80.3850842  64.8837376  15.9612203  80.6071854  63.5114336
  47.0479536   1.1328621  35.2169108  46.4643049   0.8782265  34.5022464
  47.8856945   0.7242055  34.9991488  94.1254711  83.4684277  51.9653511
  93.5110092  84.1389275  52.2638512  94.9053288  83.9577770  51.7034626
 104.7892475  92.5982094  60.3171921 103.8907623  92.3385239  60.5209684
 104.8745537  92.4472237  59.3758345 109.6375370  93.6955070  75.5256081
 108.7961483  93.5744572  75.9656572 109.6025276  94.5887661  75.1834059
 104.9282169  73.5231781  57.6703501 105.7748127  73.8726091  57.9485559
 104.7171402  74.0118408  56.8748093   0.8341618  96.5425205  67.8563452
   1.1671661  95.9426880  68.5238266   1.6159537  96.8432713  67.3931170
  34.1901827  14.4944060  46.4121771  33.3232784  14.3722010  46.7991829
  34.6585298  15.0423956  47.0419359  40.7609892  71.3952923  22.4094510
  41.4070463  71.4650249  23.1122875  41.1682415  70.8147860  21.7665005
   2.4356821  86.3317680  88.4131908   3.1479457  86.7491341  87.9287148
   1.7711346  86.1463642  87.7496910   3.7975404  82.8499317  81.8332958
   4.3649831  82.8096199  82.6031113   4.3972325  82.7852058  81.0900497
  47.7831364   6.9517136  63.9450026  48.7098122   6.7704046  64.1019535
  47.6395750   6.6941351  63.0343580  27.9952574  98.3107185  81.8502140
  28.7020731  97.7169323  81.5971184  27.3872590  98.2880592  81.1112595
   1.2037297  51.4919567  87.1825314   0.3564239  51.0828638  87.0066071
   1.8336108  50.7737398  87.1221352  10.2120113  99.0047169  11.5604401
   9.9869609  99.6940517  10.9356141   9.9477500  98.1931305  11.1271691
 110.5213451  70.3767633  41.8045235 110.0133038  70.7981777  42.4977303
 111.1689568  71.0336971  41.5490580  29.0232253  25.9889293  53.5581732
  28.2617211  26.4562178  53.9016581  28.8304710  25.0653768  53.7198257
 114.4595242  77.7615690  50.9498787 113.8645363  77.6339388  50.2110052
 113.8857079  77.9777050  51.6848993 111.7276573  27.5657129  21.8933439
 112.4901867  28.1347179  21.9983244 111.8286800  27.1886683  21.0193515
 103.2246494  85.0891972  63.0176497 103.2514000  84.1534805  63.2174921
 104.1099930  85.3999519  63.2069445 106.8664742 105.5030346  38.7540865
 106.3874722 105.4730892  39.5822740 107.2470951 106.3809490  38.7291479
   2.2796018  99.7046566  46.7713404   2.2263816  99.5013428  45.8374977
   1.6583678 100.4221153  46.8960428   6.2800390  89.2879868  95.2477455
   6.6863745  88.8182640  94.5194054   5.3633833  89.0130329  95.2284527
 105.4349041  56.8217039  47.3410892 106.3493252  56.6445303  47.1204567
 105.4773617  57.3137188  48.1610584  95.0091267 106.7399216  47.8409529
  94.4012737 106.7692280  47.1021128  94.7880077 107.5106621  48.3637381
  27.2626901  71.1437082  27.9428673  27.3570251  70.3564596  27.4066043
  26.3839746  71.4661121  27.7425051 113.6582375  87.6943111  24.8335528
 112.8815937  88.2515144  24.7826982 113.9834213  87.8175068  25.7253528
 115.0648022  88.7588215  48.1389093 115.2614498  88.7484264  47.2021866
 115.3770733  89.6121693  48.4397459  28.5759497  24.1757965  51.0014486
  28.3896470  24.2466211  51.9376707  29.0466046  23.3470154  50.9129238
  34.4552183   0.2031748  79.9542046  34.9785376  -0.1353102  80.6807041
  34.4693542   1.1531124  80.0710392  52.3716402   1.3303532  34.1732478
  51.6969919   1.6986291  33.6027646  52.5949335   0.4916310  33.7696171
  15.8277786  98.8154411  58.1088829  15.8287001  99.0808010  57.1892023
  16.1305952  97.9074955  58.0964994   0.6344533  91.2777138  22.8408742
  -0.0708724  90.7350445  22.4883676   1.4317778  90.7781696  22.6649094
  23.6454892  93.7158489  85.1622295  22.8586721  93.3230305  85.5401611
  23.3147430  94.3478394  84.5239258  11.5031576  84.3438148  78.1053019
  11.0742152  83.4885406  78.1323957  10.8012080  84.9695778  78.2839823
  21.1838341 103.9293671  64.2436123  21.8718886 103.2643414  64.2200422
  20.8423162 103.9524460  63.3497095  47.9845428 108.8399792  14.7711396
  47.4706936 109.0438175  13.9897060  47.6699686 107.9789925  15.0467956
 102.7138424 111.5957451  35.0130129 102.5520706 111.2384224  34.1398692
 102.6197243 110.8455563  35.6000304  28.3579326  98.9534283  87.5352192
  27.5124788  98.6593723  87.8742981  28.1375337  99.4836617  86.7693806
   8.5091454  92.5127029  32.1273780   8.2240778  92.7908611  31.2569809
   7.9320186  92.9820251  32.7297807 116.9533443 107.1522999  26.3092852
 116.5619850 107.8290462  25.7569385 117.6097107 107.6168823  26.8285012
  18.1268203  92.6996040  73.7068319  17.8091776  91.8308449  73.4606934
  18.6761451  92.9710102  72.9714298  62.6703453  88.5598469  84.0650654
  63.2669640  88.7946510  84.7758007  61.7963552  88.6851501  84.4347668
  92.6883698  71.1299086  89.5891857  91.7468548  71.1864376  89.7522259
  92.9370880  72.0121288  89.3134022   5.5715215  68.6961174  72.1413326
   4.8426276  68.5858774  72.7519035   5.7513142  69.6362352  72.1502209
  26.7070055  74.0604734  36.6121626  26.9538927  74.9674416  36.4313674
  27.3555040  73.7578917  37.2478724  15.7566297  81.4216900  43.2507181
  15.9066439  81.0773659  44.1311550  15.5612874  80.6485558  42.7212477
  33.9310169  92.8724766  45.4322100  33.6438274  92.6457310  44.5477057
  34.7922254  93.2718182  45.3094101  15.4047430 110.8149624  36.6661620
  14.7966385 111.1865807  37.3051763  15.5828440 111.5332985  36.0591197
  10.2573812  71.8053961  81.3910675  11.0272682  72.3267937  81.6183376
   9.5141912  72.3498821  81.6507530 110.2958584 106.7701435  32.2741175
 109.4591236 107.1740627  32.0440125 110.7855892 106.7486954  31.4519644
   8.9602911  77.7506971  71.7621422   8.3975053  76.9806910  71.6809273
   9.0032583  78.1104755  70.8761692 100.2603626  65.2640343  53.0457115
 100.4459190  65.3161669  53.9833021 100.0615597  66.1648941  52.7904415
  30.2381611 109.0432167  79.2443180  31.1049342 108.6941624  79.0367174
  30.3385687 109.9923801  79.1719675  55.1073122   9.6412373  60.8300591
  54.1820383   9.8529571  60.7064867  55.4005384  10.2404964  61.5164566
  97.9819107  81.6622925  65.1418400  97.6400280  82.5554562  65.1819468
  97.2061539  81.1056232  65.2093744  44.1464758  35.9864473  62.3081541
  43.5557938  35.4304695  62.8163099  45.0177479  35.6282043  62.4777985
  29.6290207   5.1494068  45.4865360  29.8637581   4.2695710  45.1915455
  29.3727612   5.0347930  46.4016485  16.1111987  26.6408896  44.7276115
  16.0334146  27.0533061  45.5878973  16.0440469  25.7026386  44.9048376
  34.4551945  12.7427030  50.8270931  34.8897028  11.8927979  50.8984804
  35.0530887  13.3542287  51.2569666   2.6907098  93.3764648  40.8045435
   3.3868772  93.8721466  40.3734064   3.1466496  92.8313446  41.4457941
  26.2427735  36.3737273  71.5902281  26.0110116  37.2431898  71.9166565
  25.6069994  36.2013078  70.8957529  29.1763544   5.7989973  34.2344379
  29.5212936   5.9313846  33.3514190  29.5240903   4.9483979  34.5023823
 115.2138710  67.7602768  30.1172853 115.9842300  68.2905722  29.9133778
 114.5641518  68.3910656  30.4274511  53.9000273  24.8502159  83.9911079
  52.9755497  24.9009776  84.2340088  54.3123865  24.3791151  84.7151661
   7.1589571 103.3050632  33.0580091   6.9074845 102.4740028  32.6550913
   8.0790645 103.4181118  32.8195667  54.2843103  79.7408295  30.7045436
  54.3227959  79.4430733  29.7956467  53.6393070  80.4480457  30.6977868
  63.7589455  10.6605077  35.7120991  64.3603992  11.3987327  35.8096004
  64.0404749  10.0326872  36.3775396  46.0911417 108.0932045  69.1191339
  46.7251110 107.5305080  68.6745119  45.4346371 108.2891655  68.4506798
  57.6704931   1.9658202  13.6126208  57.0011377   1.5878703  14.1830134
  57.1760702   2.4499996  12.9513001   2.1519108  83.2002831  23.0970740
   1.7392878  82.7143192  22.3830628   1.5982398  83.9725208  23.2125330
 113.1470776 103.5886765  38.0248857 112.7220345 103.8128757  37.1970534
 112.8234768 102.7116013  38.2304358  59.0166378  35.1717114  80.3420830
  59.9648952  35.2390695  80.4539013  58.8661766  35.4063344  79.4263649
  13.9448202  65.1883316  37.7860188  14.4258749  65.3766060  36.9801855
  14.4537723  64.4994545  38.2134008 115.0425720  58.4048319  83.1848621
 115.2987671  59.3029451  83.3945942 115.8713913  57.9376125  83.0800152
  25.7718205  72.1325111  43.4212351  25.8809233  71.4819145  44.1148138
  26.3855624  71.8604422  42.7389336  40.0985193  94.4256306  75.4247808
  40.6914473  94.4827747  74.6755123  39.9271107  95.3363228  75.6645727
  64.3834114  16.3323975  65.9762478  64.0536308  17.2192204  66.1212301
  65.1706171  16.4534152  65.4453087 116.4433765 108.9150429  45.6997061
 116.0379601 109.2473888  44.8988199 116.0291100 108.0640411  45.8425331
  50.7713556  13.7955439  45.1703882  51.3597488  14.5502424  45.1918077
  49.8968887  14.1758895  45.0874758   8.6687750  73.3103609  63.8293886
   8.9804673  73.3522749  64.7334480   7.9628134  73.9555311  63.7892818
  33.5410213  83.5770893  65.6442833  34.0317631  83.2672596  66.4054728
  33.5967112  82.8582859  65.0146294   6.8827760  81.4277554  58.4935522
   7.1929252  80.5224037  58.4741163   6.4651382  81.5561962  57.6418972
   9.4141430  67.9692268  40.5646181   9.8988330  68.7945700  40.5537415
  10.0061023  67.3494339  40.9908485  50.3363514  88.9087677  48.0153608
  49.5769548  89.1765308  47.4978161  50.4908133  89.6419525  48.6110258
  12.3280597  93.7471581  44.0841246  11.9697189  93.7471199  44.9717188
  12.7866340  94.5841694  44.0109968  32.9988790  10.1249659  15.2246821
  32.7496386   9.2174435  15.3993642  32.3248911  10.6465709  15.6604576
  48.6156034   6.0351139  67.7753782  48.3429480   6.4858264  66.9761562
  49.4164515   5.5727208  67.5282621  30.3040385  12.7271938  68.3836937
  30.1434731  11.8153536  68.6265898  30.9664798  13.0277050  69.0058661
  16.1529744  99.4570637  66.6639185  17.0410562  99.1259480  66.5301275
  15.6077194  98.6713123  66.7028570   5.0858009 100.4959202  82.5926018
   4.9260870 101.0178089  83.3789635   4.6190572 100.9604836  81.8979359
  20.4489899  62.0169735  28.6737370  19.6183085  62.1068430  28.2066989
  20.2266574  61.5279055  29.4659567  55.6808901  99.6743584  68.3144712
  55.4558563  99.7958946  67.3920727  55.3916216 100.4815388  68.7399387
  31.6383505 109.9785614  69.0240097  32.1318841 109.2256832  69.3493128
  31.3348722 109.7095108  68.1569815  70.2201212   0.1883934  71.0278034
  70.4812157  -0.3632404  70.2904081  69.9582660   1.0168789  70.6262112
   2.5355753  56.2374258  28.9399409   2.5639153  55.4384041  29.4662428
   2.4346754  56.9422007  29.5797396  42.8066063  89.4670105  47.2931099
  43.5181427  89.9835014  47.6715040  42.7268457  89.7904396  46.3957453
  17.2717619  95.3522396  73.8516998  17.5399184  94.4381809  73.9455414
  17.2321594  95.4943466  72.9059315  59.5141554  21.0391426  41.7133808
  58.6728668  21.4180946  41.4587116  59.9563503  20.8584118  40.8839035
  40.5182934   1.1701917  56.6610718  40.1456356   0.2887171  56.6800928
  41.3459015   1.0906328  57.1353769  44.2060232  24.0188551  72.1163321
  43.9822674  24.8206496  71.6437912  43.5478258  23.3833885  71.8349218
  34.5466495   4.9200022  76.1279297  34.4235039   4.4644070  75.2951622
  35.3680682   4.5702243  76.4731216  14.2785037  86.3607311  86.1277866
  15.0695515  86.8224525  85.8497810  14.5774329  85.7664776  86.8160725
  20.0194716 104.9090195  61.8764687  19.1302395 104.7865009  62.2088623
  20.0170636 105.7914352  61.5055513  19.1712487  97.2100830  47.9159880
  19.6402609  97.4169254  47.1076107  19.6330678  97.7035618  48.5938072
 114.3729782 102.3089314  68.6096621 114.2035294 102.9824448  69.2683697
 114.0887070 101.4933872  69.0223694 105.2048969  86.0461426  69.3181276
 104.5139599  85.3838539  69.3324137 105.7545567  85.8028030  68.5732174
  44.6429586  12.2657478  33.2581401  45.4334784  11.7303050  33.3260751
  44.8605394  13.0740523  33.7223983 112.5691986  79.4158173  38.9541316
 112.5737095  79.4317484  39.9111891 113.3668900  78.9420128  38.7187076
 107.7099895 101.5313625  66.8321180 108.5117912 101.0092545  66.8049383
 108.0135345 102.4299145  66.9613028  16.8287027  88.9901733  33.7322569
  16.4001930  88.7451649  34.5523667  16.1354232  88.9365292  33.0744433
  66.2374449  41.5785456  84.3687630  65.7747936  40.8327293  84.7507954
  65.5922127  41.9926453  83.7956810  33.8245845 101.8953991  35.8155847
  34.0248299 101.1641216  36.3998437  33.0188894 102.2714806  36.1700487
  20.7265568   3.4184039  32.0471883  21.0031557   2.7171177  32.6370382
  21.1934829   4.1930234  32.3605204   7.4561512 106.5808678  74.2458868
   6.6604483 107.1082211  74.1752863   7.6543039 106.5704823  75.1822948
  28.1901813  21.3998008  79.6022987  27.7233028  22.2234964  79.7429466
  27.6075435  20.8868527  79.0422535  18.5265720  69.5732212  88.8217831
  18.0092323  69.5212507  88.0181026  18.4426534  70.4845905  89.1021252
  74.2677164   2.9224855  49.5202255  75.0456238   3.1933868  50.0077820
  74.3827295   3.3086178  48.6519480 102.7541828 105.2973747  86.9846535
 103.5234547 105.5424023  86.4704418 103.0792618 104.6464825  87.6066589
  99.4576740  82.7674961   3.9210024  98.5075283  82.6618958   3.9690867
  99.7996235  81.8738461   3.9475062  18.5595655  89.2001438  40.5843353
  18.7678647  88.5468102  39.9164963  17.6120591  89.1300011  40.7007074
   4.7516954  92.0492554  75.1652622   5.2108192  92.8858089  75.2402353
   5.3416622  91.4974308  74.6517849  35.5180001  81.4551830  47.6254892
  35.8349323  80.7901573  48.2366562  34.6366334  81.1645031  47.3911190
  11.0190487  79.5046711  69.1242647  10.0998986  79.4234133  68.8697243
  10.9905088  79.8270512  70.0250912 112.3936081  97.0657825  84.1595745
 113.3094120  96.9907379  84.4277287 112.4127483  96.9569206  83.2087803
  85.1715565  13.0466831  24.6283317  85.4429436  13.2937014  23.7442708
  85.2558136  12.0933843  24.6471572 107.0750237  70.4100275  62.6054287
 107.2810936  70.7284117  63.4842920 106.3016701  69.8589182  62.7255487
   2.3227151  95.2583122  62.3011684   1.7309150  94.9304867  62.9783201
   3.1020081  95.5402565  62.7801704   2.4019252  96.2958336  25.1498079
   2.0547231  96.1628532  24.2677641   3.3110100  96.5618134  25.0117803
  29.9606729 106.0153198  86.0039043  30.2797222 105.6900406  85.1621056
  30.4420710 105.5056667  86.6556358 110.6305885  85.6203842  36.4647436
 110.6275463  85.8114243  35.5268049 110.2862835  86.4151669  36.8721724
  27.5405931  79.8530531  57.9217815  26.6015720  79.7309589  57.7819014
  27.8890896  80.0473404  57.0517063  44.0089846   5.0086558  58.0986786
  44.8839045   4.7190914  57.8400278  43.4688139   4.8618272  57.3222208
  12.4131620  77.3336935  89.1970921  12.7806163  78.2155895  89.1381645
  11.4721870  77.4729395  89.3039036  30.1248217  80.7670498  50.4642820
  31.0299563  80.6945419  50.1614523  29.8666215  79.8674536  50.6650066
  69.8828602  14.1583443  49.4243050  70.2577496  13.3092189  49.6581316
  69.1808414  13.9487660  48.8082838  14.2570901  96.6826534  70.0686455
  13.7791812  96.5752029  69.2462778  14.6689010  97.5436497  69.9956083
  21.5902615  88.9932728  75.1172590  21.1083651  88.6437607  75.8668280
  21.3346744  88.4318733  74.3853140  54.8002386  59.6591759   0.8466040
  55.5151796  60.2572298   0.6288353  55.0161695  59.3362522   1.7214343
   5.4516101 107.3877048  48.3086634   4.7888729 107.3635387  48.9988995
   5.3865731 106.5322685  47.8841305  81.2905884  19.6178198  66.1950302
  80.4417706  19.2671049  65.9253168  81.1255836  20.5467868  66.3563585
  46.5036583  15.2529395  64.2618370  45.7428789  15.6581593  63.8456106
  46.4729738  14.3390071  63.9789629 112.7242661 109.3208694  65.7182598
 112.2449493 109.9396801  65.1672888 113.1632710 109.8693180  66.3684225
  19.1719294  10.0438797  17.8719103  18.9208758  10.2644289  18.7688839
  18.4304595   9.5430011  17.5319457 115.5603504  70.6087399  83.5850334
 116.3230038  70.2643728  83.1202793 114.9620342  70.8858538  82.8911686
  66.8067026   1.6911460  82.6501083  66.8736219   2.4489896  82.0692253
  66.7461157   2.0671070  83.5282993 113.5516834  10.6064749   6.5802807
 114.0405846  11.4269602   6.6436160 113.8047981  10.1158702   7.3622489
 103.9657307  81.5787888  12.3158157 104.9221230  81.5400600  12.3095071
 103.6990452  80.8267117  12.8444898  21.5716386 110.3195095  81.8043613
  22.4161720 109.9736214  82.0930767  21.5922213 110.2367783  80.8509636
 113.0205727 108.2964516  87.0450974 112.7587128 108.3067417  86.1244678
 112.5822353 109.0567303  87.4272919  19.7373521  98.3733940  82.2460175
  18.9657891  98.1176281  82.7514935  20.4700184  98.2537365  82.8502655
  47.6923180 105.5589485  62.6861668  47.9374504 104.6780586  62.9693222
  48.3641195 106.1272526  63.0629158 102.8155136  95.8335018  67.4165392
 103.1030083  95.0431061  66.9595337 103.4107494  96.5174580  67.1097517
  13.0313206  84.5415020  80.3903198  12.5087106  84.3445396  79.6129465
  13.9236093  84.6441174  80.0593758  58.0927849   5.7741374  65.5947351
  58.8232899   6.3521916  65.3746223  58.4972191   4.9166596  65.7266331
 111.2842083  89.3841553  72.1979332 111.2115669  89.7333717  73.0861950
 112.1897888  89.5620632  71.9439459  50.7425165  95.3779125  88.4314346
  50.8813953  95.8390999  87.6042366  49.9835062  95.8106518  88.8224220
   4.5518354 100.5255127  89.0583420   4.8955473  99.8752499  88.4457684
   5.3307688 100.9325027  89.4376278  31.3600993  78.7570429  17.6542914
  30.5464315  79.2564774  17.7231371  31.7221665  79.0051270  16.8036485
  18.3486307  81.7271900  45.7619095  19.2030847  81.2957573  45.7624245
  17.7210057  81.0154438  45.6365156  75.5115414  12.1981490  47.1721077
  76.0796070  12.6355112  46.5378809  74.8371410  12.8460097  47.3763037
 112.8600883  86.6093540  92.0535374 112.4415398  86.4520741  92.8998947
 112.4892330  85.9426975  91.4753723  16.0423172  79.4735527  37.3095107
  16.0004890  80.3841400  37.0174289  16.9776928  79.2713690  37.3301458
 117.4743938 101.9033337  42.9371595 116.6809464 101.4943790  43.2827425
 117.5173569 102.7523518  43.3771038  43.0593538  14.5906079  46.9304800
  42.2059965  14.8506904  47.2774267  43.0254984  13.6343956  46.9032145
  37.8934717  89.3742561  61.3992739  37.1461034  89.8635960  61.7431116
  38.1577468  88.8027763  62.1202421  51.2863302   8.0971324  19.4495833
  50.8552265   7.4396014  19.9955118  51.2935495   7.7131182  18.5728216
  47.2968769  23.7554693  65.8434629  46.7529821  22.9864144  66.0136509
  46.7324448  24.3410683  65.3387642 104.8471832  97.9083633  45.7259989
 104.8913670  98.8141537  45.4196882 105.0838089  97.3848152  44.9604034
 117.1084404  92.6575851  52.7532816 116.7755413  92.6972198  51.8567085
 117.5563812  93.4940147  52.8796434  20.0896835  85.4259396  78.4416819
  20.2637315  86.1254215  79.0714979  20.6392169  84.6985912  78.7336063
   2.0637529 107.9299545  83.4907246   2.1469124 107.3108578  82.7654362
   2.7864233 107.7090454  84.0782452  44.6671057   6.3629550  39.9978495
  44.1356945   5.7928646  39.4421220  45.5698204   6.1717308  39.7433472
  58.9429092  64.9594545  54.9721146  58.8880539  65.6034517  55.6781530
  58.0461550  64.6413279  54.8679018  39.8791313 100.7254505  36.2508440
  39.9247932 100.3129959  35.3882718  40.2646160 101.5921593  36.1226106
  11.9975889 103.4870911  64.5159864  12.3243093 102.6195431  64.7544432
  11.4849246 103.3398151  63.7211800  23.2076073  30.6628585  94.9520302
  23.0148292  29.9380541  95.5467796  22.5696683  30.5684114  94.2446804
 105.7119751  52.4342489  40.8984756 106.1802483  53.2671213  40.8411741
 106.0969830  51.8949938  40.2076817  17.3798513  68.9210272  75.4811621
  17.6451731  69.8142242  75.7003212  16.5485048  68.7988186  75.9395933
  12.2372901  29.5540118  80.5000019  12.2096610  30.5035877  80.6173706
  12.5498414  29.2178512  81.3399696 114.4747162  53.6467123  18.9820838
 114.9961472  53.6044359  18.1804860 115.1204967  53.6388016  19.6885777
  12.2796857  68.4726763  39.2591405  12.7221537  69.3094301  39.4016099
  12.6317859  67.8969288  39.9379420  35.9734488  46.7843437  93.9455891
  35.8026195  47.5369787  94.5117950  35.3925848  46.0991430  94.2762470
  99.1703796  98.8206959  46.2247562  99.4892979  97.9625702  45.9452200
  98.4238720  98.6258698  46.7913198  12.5643444 101.3538647  35.4549432
  11.6516292 101.6104507  35.3232312  12.7902174 101.7057991  36.3159609
  11.7054569 111.5980786  45.0833035  11.6384899 110.9335553  45.7689810
  12.6409161 111.7938057  45.0299978  92.4984550  68.9403439  65.1729822
  93.1317234  69.3753290  64.6020269  91.7216206  69.4985104  65.1381445
   6.5695322  52.7726555  83.0125046   6.2643075  53.1067133  83.8559914
   5.8531934  52.9619980  82.4065018 115.4869556  63.0702686  64.7788239
 114.7613239  63.6840582  64.6649694 115.9132481  63.0418301  63.9222622
   5.1521307  40.8608150  13.0563116   4.3430537  40.3910398  12.8539801
   4.9608967  41.3278961  13.8696349  15.4413581  53.8070726  23.6072922
  15.1745260  52.8878593  23.6163664  14.9750912  54.1844702  22.8613734
 118.0681740  68.9542246  46.2834549 118.6410602  68.6197853  45.5933905
 117.5630027  68.1917858  46.5658092  94.0835094  82.8832340  90.2892590
  93.2910538  82.5369644  89.8789597  93.7649441  83.3865356  91.0385513
  10.2142823  65.9179783  18.3088934  10.8734167  65.2297878  18.3992624
  10.7092726  66.6887283  18.0311179  79.5466995  84.5835114  27.6012969
  80.0134945  84.2691135  26.8270278  78.6298323  84.3662167  27.4328661
   7.3630595  83.3530903  72.1523285   7.8850108  83.2681656  72.9501963
   6.9582063  82.4932480  72.0383215 108.3259964  76.2046528  44.2237186
 107.5668144  76.2190104  44.8065281 108.6232185  75.2949142  44.2399311
 100.4337406  73.5684013  43.3494091 100.4684639  74.3617582  43.8838387
  99.6803856  73.0844641  43.6877823  26.3241148  74.4319487  27.8814507
  27.2288299  74.1219616  27.9217839  26.3314795  75.1043940  27.2002769
 108.0432034  61.5144634  60.9314632 108.3345413  60.9578800  60.2092648
 107.3136806  61.0350275  61.3241100  95.6956482  46.9539976   1.8336505
  95.4797077  47.8815651   1.9296823  95.3827667  46.5501833   2.6431394
   4.1808978  56.4871883  54.4881964   3.7170413  57.3235798  54.4492388
   3.6715710  55.9043789  53.9250374  21.0956502  85.2452469  26.0689068
  21.4606094  84.3673611  25.9577250  20.6222391  85.4127884  25.2540183
  12.1989620  65.5311251  75.7432985  13.0766428  65.8977461  75.6360912
  11.6199934  66.2933540  75.7485676   7.2388542  61.0379314  27.2616601
   7.1424150  61.2707281  26.3382220   7.2354478  61.8772364  27.7218676
  20.8518815  39.8468733  54.0298080  21.4745212  40.5613947  53.8955975
  21.1627054  39.4034123  54.8190880  51.7762709   1.3679518  23.4559894
  52.1644592   2.1898824  23.1560373  51.8369913   0.7843515  22.6997113
  33.5638189  55.8390713  46.1736059  33.4509897  56.7893219  46.1506510
  33.2470989  55.5396175  45.3214025  20.5863667  41.9221687  62.1408081
  20.9700561  42.4481153  61.4391041  20.3794050  41.0844707  61.7264891
  20.6259847  44.6894836  29.9535728  19.9255836  44.0371609  29.9655676
  20.1710176  45.5303049  30.0010276  33.3427000   7.1627110  40.3123617
  32.5032473   6.7346478  40.4806280  33.1171513   7.9392791  39.8002100
  26.1295605  87.1137714  34.0185261  26.3343453  87.6098919  34.8110914
  25.2381516  87.3798180  33.7930489  18.4009993  60.6876612  46.5784311
  18.7476170  61.2773323  45.9088230  19.1232038  60.5764532  47.1967220
  24.8756718  -0.0760510  41.7208290  24.4773125   0.7937096  41.7533731
  24.1948342  -0.6637241  42.0484447  29.3551660  71.3516665  31.6083741
  30.0140047  71.5037203  32.2859001  28.6319017  71.9331837  31.8428063
  14.9402952  58.8586521  74.3872309  15.2320504  59.0364790  75.2813721
  14.2504907  58.2024765  74.4864130 109.2796898 104.1400528  30.6553292
 108.8554668 104.4813728  31.4425826 110.0169945 103.6258793  30.9843397
   4.0625590  69.5913363  39.4625306   4.0862739  70.4307127  39.9220037
   4.2471701  69.8126411  38.5497475   8.0412090  75.2351379  50.1209354
   8.1421524  74.8253155  50.9800577   8.9242154  75.2374697  49.7514439
  12.5571489  68.3658171   9.6637094  11.8026125  68.7625694  10.0990176
  13.1023967  68.0394983  10.3795660 104.9543858  80.4835701  49.3756580
 104.1115093  80.1419258  49.6740913 105.2052975  79.9059105  48.6548328
  20.4616666  52.1357584  43.1514835  20.6198955  51.7369509  42.2958279
  20.9934831  52.9316092  43.1468296 117.6627490  67.4555635  49.6985865
 118.1284669  66.8408155  50.2655268 117.4095347  66.9341612  48.9368391
  20.3646946  49.3294764  63.6813641  21.0738182  49.4470692  64.3134642
  19.6408272  49.8467112  64.0345192  89.6611977  73.9260864  80.7422543
  90.0440693  74.7339821  81.0842133  90.2976227  73.6127138  80.0996017
 100.1854992  41.6149712  77.2341728 100.7573223  42.0980024  76.6375685
  99.4650269  41.3112497  76.6819906  99.3821239  59.0084076  21.4313483
  99.5909023  58.3255768  20.7938647  98.9133358  59.6725845  20.9260321
 110.5769253  85.2527237  67.3893213 110.4657745  84.3813229  67.0091438
 111.1770248  85.6997013  66.7923927   0.4409333   4.4697005  26.3787937
   0.1198466   5.3646678  26.2684822   1.3647968   4.5146224  26.1324430
  34.1338491  81.1562729  32.9550052  33.2358861  81.4471722  33.1139660
  34.5935059  81.3392735  33.7744308  40.2975607  56.1771250  51.9938040
  40.1233673  55.2364874  51.9608212  39.6657562  56.5156126  52.6282167
  14.8513806  83.3324814  66.9440985  14.4946873  83.2957840  67.8315973
  15.6715870  82.8416824  66.9951296  54.6600342  88.3888912   9.2187011
  55.0511360  87.5518894   8.9683133  55.3839064  89.0137482   9.1762257
 116.8626022  11.7692816  41.1623669 117.5563431  12.3667979  40.8832121
 116.7840099  11.1413276  40.4442263  95.1222515  58.5650635  34.1923118
  94.2349625  58.8904762  34.0404296  94.9969006  57.7227688  34.6294117
  20.2138662  40.7023144  28.3733845  20.4475737  39.7760820  28.4343123
  19.8722291  40.9206676  29.2404699  15.5916321  75.2059889  21.2033176
  16.1579800  75.1226711  20.4361534  15.8234477  74.4585133  21.7544723
  91.2044525  41.9845390  67.2549343  91.2882233  42.6437330  67.9439020
  91.9066906  41.3594627  67.4348497  25.4801393  77.2083378  50.1946926
  24.5615911  76.9470644  50.2598095  25.4492927  78.1345224  49.9549770
   8.4983194  49.2622852  26.4676285   9.1411716  49.2713070  25.7584786
   8.4547937  48.3456278  26.7398024 108.8327122  65.5572891  24.4556832
 109.7764015  65.4668713  24.5879531 108.5163498  65.9680653  25.2603030
  45.2102280  68.7982798  33.5085678  45.8899927  69.4403648  33.3039284
  44.4690609  69.0503407  32.9577827 109.1253948  57.5184107   5.3091896
 109.2611885  57.5783110   6.2548137 109.9994278  57.3633099   4.9510658
   6.6208392  36.8809366  32.1884918   7.1333408  36.0962057  31.9941473
   6.2222707  37.1200252  31.3517046  96.7478180  69.9055433  24.8087049
  95.8061218  70.0716543  24.7657299  96.8176746  68.9981270  25.1052713
  56.3238811   5.7834399   9.2597592  55.5058765   5.9886861   9.7124976
  56.0491800   5.3316283   8.4618640  30.4483366  94.0196609  18.3806491
  30.4781246  93.0740452  18.5261035  30.9192538  94.1503429  17.5576127
  87.2003555  45.7578754  27.1462393  86.8359852  44.9534893  27.5155973
  86.4347267  46.2875271  26.9237232 107.8010654  84.5384884  50.1504564
 107.4447060  83.7041664  50.4556513 108.7382889  84.3746090  50.0455999
 101.1072731  72.9925203  53.0902433 101.9336319  73.4381342  53.2768011
 100.4854488  73.7009096  52.9236555  15.5231357  77.2120380  81.9062424
  16.3326800  76.7722034  82.1658897  15.8046997  77.8868866  81.2885571
  12.3579848  86.8600941  83.9701080  12.9287040  86.7759514  84.7339344
  11.7243421  86.1489582  84.0650654  28.1048203  67.5550270  45.8564854
  27.6776481  68.0384445  46.5636349  28.3007050  66.6984653  46.2361717
  44.6629095  22.5850153  34.4853783  44.8192739  21.8219709  33.9290118
  44.0951490  22.2597337  35.1839972 104.4656944  62.1585512  53.3911705
 104.1613960  61.3265324  53.7536287 104.3695641  62.7826405  54.1105509
   2.0902729  65.8601665  26.3989329   2.6048258  65.7596111  25.5980849
   1.3482268  65.2667475  26.2829423 103.9866066  74.9745464  46.2475634
 104.4701672  75.0669050  47.0684624 103.3780766  74.2532825  46.4078951
  89.2320347  80.6982422  20.7756042  89.9183178  81.2293720  20.3716922
  89.0782452  79.9898911  20.1504540 116.3417053  62.2925520  52.1005678
 116.1113739  63.1916380  52.3346949 117.1907139  62.3684740  51.6650629
  11.6963840  13.2521486  31.5077281  12.1199834  13.1093252  32.3541284
  11.9020236  12.4663234  31.0013437   3.2414171  65.6468916  28.8378787
   3.0454433  65.8107901  27.9154015   3.4507030  64.7136354  28.8761330
  30.2150321  48.1206560  36.0076237  29.3036079  48.4093428  35.9607649
  30.2056241  47.3988390  36.6362166  18.9338827  50.7018948  84.0064144
  17.9940963  50.8330917  83.8806343  18.9935219  50.0600147  84.7139931
 117.8623101  77.3164988  66.3171959 118.7025374  77.6682901  66.6112947
 117.2083328  77.8340626  66.7869568  34.4100809  56.2731838  21.3161707
  34.6282196  57.1850395  21.1233854  33.4833121  56.2938976  21.5547085
   6.1766368  75.0137997  22.0875669   7.0554650  75.2891493  21.8266511
   5.9725440  74.2814636  21.5059638  44.0043879  48.8932514  69.1936255
  43.3364201  48.7634420  69.8668242  44.8308277  48.9098167  69.6762800
  18.7013853  60.3447294  67.4659252  18.4089732  61.0133123  66.8464708
  18.0117679  59.6812248  67.4454308  10.8831584  83.5699749  61.9880629
  11.5702093  83.6971951  61.3338375  11.1496449  82.7843571  62.4655771
   7.9106104  58.0540848  63.7332439   7.8979921  58.6565924  64.4769192
   7.2289914  58.3827925  63.1470871   9.9368453  35.5451941  75.1037073
  10.7356930  36.0670328  75.0278044   9.8996925  35.2970934  76.0274458
  10.1730895  73.1022787  26.2982154  10.7441628  72.5383854  25.7765532
  10.1891375  72.7153111  27.1735597  41.1460352   7.6096809  64.7640705
  41.5050697   7.2697467  63.9444590  41.5691996   7.0876074  65.4456902
  22.7875352  78.4435558  41.3046789  22.3544407  78.1727457  40.4951572
  23.6369753  78.7810946  41.0205126  72.0961046  12.9106772  93.0682945
  71.8032503  12.9088652  93.9795971  72.8537655  12.3257923  93.0590343
   2.6925790  84.3946552  19.5843875   3.4860182  84.1067028  19.1329765
   2.8998128  85.2763367  19.8941064 104.5053959  72.1859694  32.1234989
 105.1875687  72.7046585  31.6970873 104.7619629  71.2772942  31.9662952
 110.9947014  58.6777258  56.9501734 110.3651047  59.3932819  56.8617439
 110.6938171  58.0156755  56.3277674 107.4783325  38.2875538  42.5638914
 107.0493221  37.4508452  42.7430439 107.7187920  38.6231756  43.4274673
   6.5870392  25.6333876  69.9878550   7.0707560  25.0328708  69.4207287
   6.0179847  25.0658178  70.5077314   9.0011102  88.5114479  43.5984850
   8.3395481  89.1105175  43.2525349   9.5995712  89.0736961  44.0903759
  16.2248743 109.2303658  50.5591869  16.8513048 108.5068321  50.5766630
  16.7681301 110.0160885  50.4979944 118.2601166  55.2871990  61.3549185
 117.6789665  56.0426283  61.2664938 117.7093983  54.6050024  61.7390299
   5.5868375  40.1115847  52.1913576   5.0385070  39.5226002  52.7096844
   5.5253941  40.9541273  52.6414490 108.4509087 108.8200188  11.6422963
 108.7434101 109.6302891  12.0595956 107.5282764 108.7447166  11.8858147
 117.9588604  80.5495644  72.3817253 118.0920315  79.8517704  73.0232716
 117.4363422  81.2042713  72.8449392 111.7218399  31.9685006  18.4861267
 110.9376717  32.1893787  18.9886475 112.0448875  31.1622453  18.8883972
 105.0777245  52.7574444  28.3220148 104.5373058  53.5277128  28.4977174
 104.5271587  52.1986532  27.7735043 109.4381046  51.1052608  39.7577548
 109.4524860  52.0027208  39.4251990 108.5281277  50.8264875  39.6554732
  21.1822557  40.8405161  83.3420753  22.1374226  40.7799053  83.3274555
  20.9570789  41.2731266  82.5184345  36.4621735  65.2734232  30.6583691
  35.7985115  64.7748280  30.1817274  36.0602045  66.1300039  30.8030152
   3.6422759  37.9223752  37.2365379   2.9500234  37.2703791  37.3457170
   4.4544077  37.4165726  37.2654533  92.0413399  33.4977555  89.0115166
  92.8430748  33.6264849  88.5046673  91.4149761  33.1401467  88.3822250
  37.8338742  77.7762651  33.1763458  37.1733403  78.2793093  32.7000380
  38.5005450  77.5742960  32.5198460 113.5606098  88.4683704  11.6064119
 112.6218224  88.4295082  11.7891634 113.6459064  88.1249142  10.7170331
 114.3178177  79.0359592  83.7731934 113.9748001  78.6525488  82.9659939
 114.3514824  78.3048916  84.3901539 113.5076904  90.5772781  37.3149252
 112.7149391  91.0935307  37.4607778 113.1902695  89.7442627  36.9662619
  99.0265846  70.9305859  40.2239847  98.4969425  70.8668852  41.0187531
  99.5839787  70.1526928  40.2446318 110.2144432  79.0820408  67.4976110
 109.5614147  78.9683628  68.1881618 110.8479977  78.3807278  67.6492882
 117.0930481  61.9032049  26.5123534 117.1780777  61.0745335  26.9838452
 116.9892311  61.6476917  25.5957484 112.4890518  60.4462767  47.3400021
 111.6236019  60.8315134  47.4771929 112.8438282  60.3341103  48.2219219
 114.6115017  93.7843990  81.4253616 113.9872551  93.5446930  80.7404613
 114.2692757  93.3695698  82.2172070 101.3348484 106.3129711  45.6501198
 100.4864407 106.0380459  45.3024817 101.5426254 107.1139812  45.1690340
  31.1781454  54.0462351  40.3231573  31.2001204  53.9928055  41.2786102
  30.5591583  53.3654261  40.0593710 118.2177755  82.3556519  56.1388016
 117.5309058  82.7533913  56.6738129 117.9412116  82.5154018  55.2364588
  25.8404660  78.2549238  25.8054256  25.1730108  77.6579189  25.4673195
  26.6541600  77.7524805  25.7643676  16.9413292  49.5305967  50.8061981
  17.5187862  49.3061161  51.5358400  17.5182045  49.5543003  50.0427294
  20.0657988  80.2927208  28.1195641  20.3787565  79.4027328  27.9576850
  19.5341396  80.5030060  27.3518705   9.1352582  54.0026951   9.8746347
   9.5304894  54.2006540  10.7236552   9.8731190  53.9855051   9.2651284
 114.7818089  78.0921459  38.2161093 114.5814228  77.5420141  37.4588561
 115.5276585  77.6617956  38.6341333  29.0711379  73.2423782  61.4649725
  28.3569479  73.6175680  60.9498024  29.6852207  73.9665747  61.5860987
  88.5910988  71.0385227  15.0979269  88.3802319  71.1637497  16.0231769
  87.7446079  71.0737562  14.6524620  43.9971924   1.9534686  12.4845159
  44.1219091   2.4617924  11.6830897  44.8825979   1.8163440  12.8213942
  75.9383488  10.2153480   1.8014218  76.2659883   9.9286962   2.6538968
  75.7317019   9.4032305   1.3388270 113.6597729  60.8680058  40.7660532
 114.2686081  60.1961899  41.0729933 114.1792870  61.6717482  40.7478380
   7.0850557  93.6413193  34.1746020   7.4984747  94.4952202  34.0474343
   6.3536698  93.8151836  34.7671223 111.5993595  87.5173187  44.6239996
 112.0822334  86.8662548  44.1148901 110.9479332  87.0087051  45.1068974
  29.5427918  78.0968094   4.0694007  29.6287417  77.8659868   4.9943680
  30.3720474  77.8244066   3.6765087 105.1554585  74.6484423  42.8789902
 104.6555138  74.1912365  42.2027874 105.1414585  74.0548182  43.6297560
  16.3366520  80.9657192  59.0152740  16.9734049  80.5350208  59.5856047
  16.6361749  80.7663059  58.1282854  14.3581032  66.0299843   0.5772943
  13.6989045  65.5517273   1.0802526  13.8607525  66.4695995  -0.1123457
 102.3884583  78.9283895  70.4167747 102.0735645  78.7788248  71.3082361
 101.7211723  78.5310698  69.8572302 116.3011456  81.0210896  12.0408201
 116.5436459  81.9238663  12.2467577 115.6790829  81.0992241  11.3175249
  48.3751488  95.7558537  44.7238827  48.6690283  96.3858986  45.3818369
  49.1612959  95.5559826  44.2156887  39.1110826  98.8739014  86.7797565
  39.2694759  98.2277966  86.0914993  38.7210059  99.6193600  86.3232899
 103.6616516  82.4208927  61.9065619 102.8418922  81.9658470  62.0993042
 103.7037659  82.4439144  60.9505653 110.1618385  79.7993517  70.7057476
 110.1582432  80.5424786  71.3090563 109.4429302  79.9792242  70.0999022
  15.6908977  82.4593353  83.9664745  16.5501833  82.1936131  84.2939663
  15.8575714  83.2714844  83.4880733  21.6289902  99.0148830  35.9152985
  21.3862705  99.5747471  35.1778173  21.0401678  99.2805672  36.6216516
  18.5603082  64.8695421  59.8095226  18.5077620  65.3092861  60.6581068
  18.0786502  64.0516758  59.9333572  89.1178226   1.7770909   4.2593604
  89.2358685   1.5411751   5.1794916  89.4677925   2.6655504   4.1930965
  12.8613949  66.5019560  41.1850643  11.9726276  66.1521339  41.1222219
  13.3184564  65.8920670  41.7641735  28.5344243  83.9657879  18.3430505
  28.0951977  84.0802670  19.1857874  29.4253182  83.7004471  18.5713792
  22.9833817  91.6483307  52.8793001  22.1494055  91.9790363  53.2129908
  23.1214476  92.1276188  52.0623207  15.9234297 102.4615097  53.8116932
  16.5745556 101.8042755  54.0572786  15.0888550 102.0906258  54.0983295
  89.3092155  72.5083590  10.8444631  89.1154003  72.1485806   9.9788868
  90.0027752  71.9452143  11.1880994  92.4673843  65.4231453  63.0235958
  91.9974136  66.2570286  63.0221558  92.2417068  65.0224781  63.8631010
  34.9805212  77.2495890  63.2709265  34.7775483  77.7975750  64.0290451
  34.7428441  77.7877665  62.5158739 106.3361645  76.9101000  73.5438442
 105.7196903  76.2062883  73.7459660 106.1734486  77.1138620  72.6228428
  20.3367114  50.5200386  27.6307535  20.4659963  51.4240456  27.3438883
  21.2104702  50.1306629  27.5966692  35.8892727  77.2584820  59.6686935
  36.3300943  77.0286131  60.4866552  36.3685870  78.0209112  59.3443584
  21.5216064  79.8097897  58.0772400  20.7193565  79.6582031  57.5775862
  21.7077971  80.7406807  57.9547167   7.1657413 101.1956787  51.7192650
   6.4359593 100.6498146  52.0119715   7.5882596 101.4845371  52.5281334
 114.9452782  60.2298594  29.1091108 114.7778034  61.1631584  29.2400122
 114.1885090  59.9180222  28.6128354  97.5482559  92.7540302  27.2087002
  98.4438896  93.0400467  27.0290756  97.1672630  93.4672260  27.7209735
   5.8235931  80.3361988  38.1500936   6.6528594  79.8583698  38.1654000
   5.1851177  79.6977377  37.8323579  39.8771381 103.1952667  39.5423126
  40.5693054 103.8407421  39.3991256  39.7648668 103.1712818  40.4926014
 103.9752388  96.0424042  37.4554968 104.1892052  95.9051132  38.3783197
 103.2288456  96.6415215  37.4692535  23.2205367  91.6175556  68.6148834
  24.1445518  91.3748264  68.5556555  23.1027055  92.2797108  67.9337788
  29.6450615  93.6022663  62.3855543  28.8758111  93.2868004  61.9112444
  30.3673315  93.4994602  61.7658854 105.8603573  93.0715179  75.2655745
 106.6286564  92.9899979  74.7005177 105.1589966  92.6368713  74.7803831
 109.3654728  71.5173101  43.8856983 109.6241474  72.4009514  43.6239719
 108.8273048  71.6467047  44.6666384  30.1125836  36.1840534  46.1182308
  29.1918373  35.9570146  46.2482786  30.5849576  35.3656793  46.2710571
  80.7077789  43.4263039  85.8674145  81.1361694  44.2395258  86.1345863
  81.3067150  43.0385113  85.2293491  34.9446940  83.0473804  39.4566631
  34.4878983  82.2267532  39.6414304  35.8211112  82.9207230  39.8200965
   5.7950920  78.2274342  40.8219194   6.6029161  77.7506065  40.6314278
   5.8551985  78.4377861  41.7537832  51.0662699  80.7884407  24.5745516
  50.3891468  81.3798809  24.2460132  51.7381144  80.7912540  23.8927507
  23.0563354  30.7660055  64.4169569  23.4195566  31.1458445  63.6169434
  23.7874985  30.7643819  65.0347185  24.8004651 111.6828346  23.9098382
  24.0015697 111.1889267  24.0943623  25.4157853 111.0282898  23.5794091
  14.8194015  67.4941540  60.7682180  14.0334511  67.3783636  61.3021755
  14.9269664  66.6575336  60.3157568  66.0129976  19.8895335  96.3296223
  66.7274857  19.3019187  96.5754890  65.2186632  19.3776751  96.4821625
  24.1539240   4.0072465  58.4220123  24.4714189   4.6362382  57.7740908
  23.3301330   4.3809542  58.7349701 108.8673306  80.4759216  53.9081097
 108.6649132  80.9643269  54.7060490 108.0233383  80.3762722  53.4676790
 100.7642269 102.8508663  29.9274993 101.0517597 101.9452763  29.8114610
 101.5756035 103.3578300  29.9572873 101.0498714  25.9298921  60.0471449
 101.9267273  25.6298065  59.8077583 100.8320141  25.4298162  60.8337164
 104.3516541  63.1479216  79.4253778 105.1541996  63.4555626  79.8467064
 103.7939167  63.9243221  79.3767214 118.2938766  13.1867850  21.8925524
 118.9082050  12.4862897  22.1119690 117.5019741  12.9742920  22.3864841
  62.5195885   4.6703461  18.2995582  62.4456930   4.2618775  17.4370480
  62.2221136   5.5701047  18.1647420  14.9403346  85.5346394  55.7207441
  15.1849246  85.0142288  54.9555159  15.7751167  85.7990360  56.1073589
  19.8738551 105.8932018  46.2827492  19.9525571 105.7066059  47.2182798
  20.0689530 105.0594330  45.8549690  14.5764804  94.4055653  94.5476437
  13.8475728  94.0992737  94.0080929  14.1928136  94.5408344  95.4140854
  86.5750122   7.5898635  41.0248518  85.6623173   7.3585373  41.1972189
  87.0118427   7.4874181  41.8703747  25.9238124 100.3939724  42.3394251
  26.7534494  99.9422264  42.1849585  25.6223202 100.0590229  43.1839037
 110.5583763  97.5343418  15.7475376 110.9083748  97.6491928  16.6310203
 111.0929108  96.8374825  15.3668761  22.0809579  57.2367382  68.0546045
  21.8193293  57.2361279  68.9753580  21.7954564  58.0888653  67.7250576
 108.4423923 103.8065910  28.0512738 108.8420677 104.0615177  28.8828421
 109.1844749 103.6255074  27.4744272   9.7080958  29.6960831  31.6352820
   9.8253268  29.0489006  32.3307276   9.1608417  29.2538333  30.9863138
  24.7297311  79.3042183  35.2217889  25.3533435  78.9228249  34.6038222
  25.0454736  79.0277004  36.0820675 112.9948235  89.8445415  33.7877035
 112.3135185  90.0196934  33.1385636 112.6087856  89.1896343  34.3693352
  53.4811258  90.1573563  62.6011753  52.8154707  90.7994843  62.8477621
  52.9989719  89.3354893  62.5100899  19.6099627  62.0254564  51.8715477
  20.3072810  62.6571465  52.0474625  19.1724443  62.3631382  51.0900211
  28.4842539  81.7512798  48.5034180  27.6317978  81.3174438  48.4668779
  28.9561439  81.2938786  49.1993618  10.6674945 107.0830154  48.0396795
   9.7481710 107.3474503  48.0736160  11.0367274 107.5922775  47.3181915
  17.7517402  67.7760410  46.9141817  18.5948145  68.1206799  47.2086000
  17.9250360  66.8556118  46.7166853 116.9417953  64.9141121  11.9442904
 117.7260590  64.6097946  11.4876151 117.1261215  65.8300209  12.1525264
  34.4367027  69.9333668  50.3651905  35.3129601  69.5626736  50.2603436
  34.0185404  69.3774033  51.0226679   9.6281695  98.2391071  24.9405193
  10.0965488  98.0379772  25.7507038  10.2979410  98.6007309  24.3601155
  90.8590126   2.8771538  81.4620495  91.3085842   2.0335826  81.5121365
  90.1101685   2.7848235  82.0510674  14.4045925  72.6650238   0.7152260
  15.0227559  73.2921982   0.3400553  14.9272001  71.8787479   0.8729774
  16.4988244  72.7692318  21.8093729  16.0678506  71.9156504  21.7658949
  17.4298763  72.5730467  21.7050409 103.6156654  59.5025444  62.8549623
 102.9055977  59.0675163  62.3829651 103.5924053  59.1171837  63.7308550
  41.3582230 108.9897251  65.6941938  40.7305384 109.7013474  65.8199978
  41.3708735 108.8460064  64.7479296  17.6760519  69.5737886  19.2628145
  17.3808300  70.4047108  18.8904667  17.6039886  68.9489460  18.5412836
  29.8070717  97.2639370  66.0502052  29.4870114  96.5085506  65.5570650
  30.3392267  97.7521133  65.4219389 103.2482815  77.8418446  56.8185091
 102.5316429  77.8768921  56.1849213 103.3683300  78.7503958  57.0948315
  17.7693522  91.9800568  33.0712366  17.5258672  92.9056740  33.0842376
  17.0033681  91.5259457  33.4223580   0.6584468  72.9825449  37.4905539
   0.4796094  73.7454414  36.9407940   1.4659685  72.6135397  37.1328187
 115.2954865  67.0133686  23.2689309 114.5376396  66.4485598  23.4202385
 115.4576683  67.4285936  24.1159987  15.4004574  97.7957535  34.0948486
  15.1346171  97.3617935  33.2841468  14.5945942  98.1864262  34.4327736
  23.0613947   1.4803028  29.6711969  23.6344910   1.4140736  30.4350066
  23.6581159   1.4742269  28.9227867  23.2414007  58.1871939  64.1599560
  22.8564501  57.4105358  63.7539482  23.5856771  57.8744078  64.9965382
 103.0006027  53.0745697  53.2776737 103.2491398  53.8356113  53.8023472
 102.0435143  53.0887938  53.2734442  29.8838615  61.8286753  48.9271927
  29.0959191  61.4986706  48.4953594  30.0220060  62.6949072  48.5440540
  52.3850536  14.5781410  27.1735311  52.7205229  13.7019598  27.3632646
  51.9925451  14.8678553  27.9970813 111.3830471  36.1969399  75.4563761
 111.6436195  35.5991507  76.1570740 110.4292965  36.2431002  75.5232430
   7.0231086  86.2236309  58.6500883   6.8730742  85.3660965  59.0480328
   7.8645992  86.5089417  59.0060663  15.5395365  98.4768772  28.6912560
  15.2240038  99.1857433  28.1307435  16.4230800  98.2940292  28.3716488
  33.9565492  81.1088085  63.9500952  33.5839558  80.7047462  63.1664276
  34.9018073  81.0958004  63.7999296  20.9905767  75.1113367  29.3581128
  20.1690459  75.4146147  29.7445631  21.6633177  75.6545162  29.7687316
  10.1464295 106.8449020  51.8970871  10.5917656 106.2708569  51.2738895
  10.8034980 107.5006676  52.1304607 113.7123775  85.8887768  58.2281733
 112.8358936  85.8198261  58.6066675 114.3040466  85.7774734  58.9723206
  17.9943526  91.4043045  51.5582514  17.8360200  92.0784664  52.2190619
  17.1684289  90.9235477  51.5038872 113.3324623  93.1137562  89.0548611
 114.0419579  92.5333405  88.7792397 113.2385063  93.7362957  88.3338547
 104.7793484  35.8698797  78.7933207 104.7767830  35.4306698  79.6438026
 103.8591957  36.0740829  78.6264372  13.0218875  64.7073507  29.0724969
  12.9146183  63.7561846  29.0742183  13.4354699  64.9002218  28.2310796
  38.8508844  75.8275890  37.4880362  38.3146667  76.0873508  36.7388844
  39.0206575  76.6451406  37.9560280 100.0919914  32.4326777   6.7558885
 100.5873299  32.0215893   6.0474545  99.2913151  31.9122696   6.8216497
  94.5903206  58.7345028  65.8442688  93.7042046  58.9239407  65.5358219
  94.7508335  57.8311157  65.5715847   1.0206002  99.2124367  38.4133315
   1.8845204  99.5554829  38.6417842   0.4129460  99.9091244  38.6615372
  42.0671272  93.4326744  64.9218750  41.8329954  94.3411636  65.1117754
  43.0150366  93.3977795  65.0502539  19.9525750  93.1732368  58.7497950
  19.7399676  92.2671223  58.9733791  20.2432513  93.1332302  57.8386784
 109.1799641 100.9204483  39.2089796 108.9843369 100.3134823  38.4951448
 108.6031151 101.6681099  39.0525007  10.2035367  93.3802414  20.3887868
  10.4387665  93.7267685  21.2494946   9.3764871  93.8119411  20.1746488
   6.2367797  55.8194971   1.4609671   5.7171631  56.3196707   2.0902976
   5.9723854  56.1611795   0.6068128   0.6177008  14.3800587  96.3243548
   1.2039816  14.1104264  95.6173861   1.1936247  14.5048661  97.0786515
 112.9177475  67.2552729  41.8513012 111.9806194  67.2938395  41.6601562
 113.1358147  68.1350088  42.1591091   7.8581160  93.7321186  58.8995790
   8.3841544  93.4221268  58.1624079   6.9681299  93.7885380  58.5517693
  17.1668208  91.9633007  48.2010984  17.4800348  92.8651905  48.2698393
  17.8771853  91.4959049  47.7616167  82.1902561  58.0282068  16.3847327
  83.1245136  58.1008291  16.5799820  81.9436932  58.8968945  16.0672200
   8.0265468  70.8027220  64.4918776   8.4400332  70.7745314  65.3547001
   8.2252473  71.6781092  64.1595459   1.4077131  76.6686392  33.1698799
   1.4950766  77.4849510  32.6777077   0.7636975  76.1597824  32.6773930
 106.7935371  70.9265089  36.4351940 107.2406769  71.6757059  36.8289042
 106.1765099  71.3147354  35.8148789  50.6383276  10.0719321  48.1627750
  50.0740099   9.5484394  48.7317514  50.0831366  10.2969134  47.4161959
  95.3935146 103.5761166  21.2740827  94.5138264 103.9061832  21.0912228
  95.7755661 103.4211826  20.4102182  90.5036354   0.1304927  39.9312425
  91.3094330   0.6147493  39.7511911  89.8453712   0.8087151  40.0826883
 105.4583168  56.7288113  66.5745211 106.0655308  56.4608383  65.8848047
 105.6547928  57.6542139  66.7203474  57.2914839  81.7350292  41.9726849
  56.9445372  82.5713062  42.2833300  56.8548822  81.0782528  42.5151348
  13.2256162  49.3623590  30.0818634  13.6033154  49.8223209  29.3321872
  13.5363638  48.4615231  29.9915314  16.2058949  76.1926985  34.5453787
  16.5048194  75.7513618  33.7503338  16.7859113  76.9492292  34.6318579
 110.6490898 109.6884918  72.5128651 111.2104225 109.6791458  71.7375898
 110.7419395 110.5736446  72.8651428  38.7357116   2.0315383  69.8121119
  38.6268878   1.1326560  70.1225948  39.0007877   2.5230312  70.5895424
  23.9541054  67.8219175  55.0094604  24.0540004  67.3315668  55.8254337
  23.3103442  67.3224354  54.5071459  15.9183526 108.3510017  63.2176256
  16.8292308 108.5091496  63.4656620  15.4058218 108.8142109  63.8801813
 100.2972412  53.0444717  53.3927870  99.6240902  53.6258459  53.7464857
  99.9964809  52.8406572  52.5072145  93.7734413  70.8784199  57.8828764
  93.8873959  71.7908764  57.6170540  92.9985428  70.8876228  58.4447289
 109.0874767  94.1104126  18.9424109 109.1321373  93.2264137  19.3068218
 109.9157715  94.2189789  18.4751189  91.0491848  58.2590342  15.2105618
  91.2809467  57.9263973  16.0776663  90.6235313  57.5197792  14.7763383
  21.6029382 102.2534943  49.7427940  22.3337865 102.7242947  49.3422413
  21.6112328 102.5326061  50.6583595   1.9068070  94.2698097  27.9874659
   2.0334962  93.8969612  27.1150160   2.1216896  95.1969624  27.8852224
  40.2351046  83.1265831  40.1838398  40.6625938  83.9638424  40.0036478
  40.1478529  82.7125263  39.3252516  35.0307369  65.9319592  38.3615685
  34.6253443  66.7978382  38.3153081  35.3179193  65.8502293  39.2710066
  14.5048022  98.7187004  63.7629747  14.9598694  97.9191971  64.0274429
  15.1909828  99.3852901  63.7305212  28.9899087  12.7579010  54.2473745
  28.8159919  12.6423669  53.3132219  29.9377728  12.8799057  54.3012333
  33.7935805  59.1416121  26.5030837  33.4120512  58.7925625  25.6975818
  33.0572200  59.5473576  26.9606590  92.0507622  81.7814445  58.0146837
  92.3323727  81.0224915  57.5038910  91.7863846  82.4267292  57.3589802
 107.0051098 100.3166103  41.4585352 107.1381474 101.1760330  41.8584394
 107.4730873 100.3652859  40.6249523  10.6133783  89.5181847  59.1364813
  11.3454509  89.9831581  59.5415878  10.6158888  89.8142433  58.2262182
  10.8387649  66.5413952  68.7442923  10.9942341  67.2793341  68.1547928
   9.8889232  66.4233160  68.7348843  15.4577172  70.4428911  65.2730846
  16.3938081  70.6198883  65.1801395  15.1945484  70.0925636  64.4220591
  31.7219639  97.7482796  32.3969460  31.7536759  98.6982918  32.5096154
  30.7880449  97.5384617  32.3940969  38.0403638  92.5417233   3.6458072
  37.3536372  92.0114040   3.2415846  38.8291025  92.0035076   3.5791138
  11.1693072  82.8260422  58.2735443  10.7334781  82.2032547  58.8552904
  10.5179787  83.5116673  58.1254816  15.9125483 101.6341209  11.9875276
  16.3959849 101.4666462  11.1785316  16.2157512 102.4957371  12.2737384
  99.0384388  80.7335186  71.5557146  99.4976807  80.8996010  70.7324600
  99.1277313  81.5492153  72.0485592 117.8420867  54.9009752  32.1090722
 118.4672910  54.3117189  31.6870213 118.0664130  54.8621368  33.0388045
  16.8693709  85.8044434  42.7002621  17.5874710  85.8915043  42.0733786
  16.9977355  84.9410534  43.0931044  15.1591837  50.9388590  24.0088296
  14.3677974  50.4005957  24.0233517  15.8132017  50.3914881  23.5742331
   6.8973994  85.1887512  29.8364592   7.7924794  85.1243019  30.1694894
   6.4863598  85.8589172  30.3824973   1.1356319  72.6415443  59.8739004
   0.5386119  73.3232546  60.1822424   1.6720386  72.4294949  60.6377935
  11.9775617  73.4072924  61.5789127  12.1524024  73.0142593  60.7238197
  12.6141202  72.9982615  62.1651888   6.7336524  73.1530476  58.5593557
   7.4099535  73.3724070  57.9184771   6.5680879  73.9737749  59.0232849
  37.0681190  98.6041069  36.1383271  36.9473624  97.8304195  36.6888332
  36.3947797  99.2164516  36.4347720   4.5078641  84.3300343   2.2828539
   4.5555288  83.6776543   2.9816785   5.4203230  84.4900322   2.0419094
  10.7120824  76.0381460  52.5918627  10.3000176  76.5530491  53.2856274
  10.0621700  75.3712225  52.3703671 106.6113377  98.6103439  49.0351534
 107.2663307  98.0568886  48.6098194 106.9602203  99.4981861  48.9561319
   6.3072902 100.9847450  32.0448518   6.0040784 100.4486942  31.3120866
   5.5043244 101.2766647  32.4764299  23.7388229  83.0128765  71.5575361
  24.3375278  82.2792339  71.4177132  24.0388870  83.6865425  70.9473228
   6.6229039  90.9391594  73.6271858   7.0488989  90.1044083  73.4323883
   7.2741079  91.6006565  73.3935452  37.5129867 100.0907230  16.1578667
  36.8102169  99.5578766  16.5299118  37.7323604 100.7147408  16.8497598
  99.1760159  88.0350018  65.0752068 100.0327015  87.8898430  64.6736574
  98.5896111  87.4375534  64.6110678  23.4692717 110.9564781  54.4489861
  24.3361568 111.2109947  54.7651577  22.9023886 111.6898537  54.6878099
   7.9008573  62.5726700  22.5361609   8.7838972  62.3297834  22.2578120
   7.8495103  63.5147762  22.3748302  21.4495158  89.5049286  45.5588627
  22.3074007  89.1629696  45.3071976  21.6196823  90.0236225  46.3451385
   2.2422919  67.9226685  31.3892651   2.4657401  67.8661633  32.3183036
   2.6417363  67.1451902  30.9991336  91.7126274  57.9472685  44.8976183
  92.2272205  58.5982513  44.4204950  90.8024406  58.1847000  44.7204113
 108.8377285  58.4861135  17.8267109 108.1261826  58.2305145  17.2396815
 109.3935966  59.0560770  17.2953129  38.4700203  78.8922358  62.5052118
  39.4076610  78.7710857  62.6548386  38.1314468  78.0061150  62.3771858
 110.8880424 102.8539848  59.9142075 109.9993706 102.7784061  60.2617645
 111.1469746 103.7539482  60.1123190   0.2721774  80.3218174  75.2444077
   0.4965006  79.5416594  74.7372007  -0.1847661  79.9836302  76.0145092
   1.8164188  89.9590397  45.0188828   0.9375714  90.3373814  45.0456381
   2.0395631  89.9372292  44.0883112  22.8107166  76.6720343  35.5960274
  23.4955025  77.2346020  35.9577227  23.1194425  75.7814741  35.7628179
 104.0282345  73.7667418  29.1042447 104.0900230  74.6690226  28.7907100
 104.7103691  73.6980534  29.7722244  24.9261546  94.0913868  48.5540009
  24.3459797  94.3443966  47.8359365  25.4638386  94.8673248  48.7122488
   4.6061015  73.7060785  25.6325459   3.9509809  74.0956402  25.0535011
   5.1126474  74.4508791  25.9564519  18.3543706  44.4211817  35.1669359
  19.2720079  44.3731356  35.4350114  17.9287899  43.7063789  35.6404066
  19.0418148  95.3781891  66.7133093  18.1883335  95.1726532  66.3317871
  19.0773141  96.3347149  66.7194986  17.5201225  32.9564214  46.7883825
  17.4753416  32.0322609  47.0336437  16.7627144  33.3549547  47.2170305
  62.6744938   2.5475901  23.9601183  63.1658077   3.3671337  23.9036179
  63.1843948   1.9263244  23.4402514  18.9135706  93.7080097  28.9949608
  18.9425981  93.2683945  28.1451845  18.5656786  93.0478191  29.5944118
   4.9983010  93.6463737  28.9218426   4.3421152  93.0242062  28.6079144
   4.6388412  93.9790058  29.7442651  28.6389208  48.5803747  45.3365231
  27.7189803  48.4147692  45.1303244  28.9593387  47.7490616  45.6865025
   5.7362550 106.3431454  70.9568977   6.6293061 106.0930443  70.7199621
   5.8208233 106.7408371  71.8234587  39.6773767  21.1306715  40.6240177
  40.6144047  21.0279679  40.7903337  39.2689633  21.0288525  41.4837074
  16.1211085  90.7074833  66.9404316  15.3265810  90.2246952  66.7126894
  16.8360901  90.1534081  66.6273355  80.8903313  10.4699242  32.7650762
  81.6036892  11.0315895  32.4619627  80.7590961  10.7217419  33.6791873
 101.9668102  70.2859116  90.5487728 101.4484692  69.5284796  90.2770138
 102.8696823  69.9681187  90.5560493  17.4951422  78.9334917  94.1311169
  18.2765532  78.9835548  93.5805416  17.6780188  78.2197857  94.7421837
  30.8249068  98.8711643  71.2404919  30.4797769  98.5012913  70.4278946
  30.1725507  99.5200443  71.5043402  40.0597906   5.6597686  72.1265268
  40.4250050   4.8832512  71.7024183  39.3715763   5.3191936  72.6980257
  29.3880558  89.9286938  55.5013752  28.5989189  89.4053745  55.3612518
  29.2749929  90.3033733  56.3749075  93.0915833  50.3154421  61.0331869
  92.6055145  50.3078508  60.2086210  92.6101494  49.7133398  61.6005707
   6.6825968  80.1021290  62.4983835   6.2472755  80.0941753  63.3508253
   7.6136124  80.1826859  62.7056360  21.4138365  91.2558651   7.1512341
  20.7790899  91.2662220   7.8676277  22.1622896  90.7726765   7.5013518
  28.3794832 101.9331551  30.8076644  28.4702563 102.0158482  29.8583722
  27.5420642 102.3524094  31.0056162  36.0151505  15.0154126  24.7670960
  36.6732550  14.8621750  24.0891218  36.2224650  15.8847010  25.1100087
  17.8670430  85.4274559  52.3760366  17.2114801  85.6907368  53.0219078
  17.6394022  85.9216881  51.5885448  41.4998722  11.1980021  54.5011187
  41.7230844  12.0636165  54.8433495  41.2473154  11.3577938  53.5917711
   3.9017797  78.1370974  20.7215095   3.5478765  77.4672747  20.1364255
   4.8325169  78.1793308  20.5020189  28.3164692  64.0668821  35.2111506
  28.5088134  64.4556856  34.3578863  28.6843514  63.1846380  35.1607537
  29.9598575  98.5847187  57.6621866  29.7306299  99.1033649  58.4333467
  30.7660294  98.9843941  57.3357248  55.9284306  15.6321323  54.7477341
  56.6229010  16.2829065  54.8498821  55.4404497  15.9215927  53.9768124
  22.1688962  88.4979248  16.6242886  21.3271213  88.0523586  16.7197716
  22.7975559  87.9164314  17.0519376  20.9230995  74.0544653  48.6704111
  21.1916375  73.8381958  49.5633507  19.9682403  73.9891624  48.6850023
  29.8147082  90.7654190  41.0296488  30.2850580  91.1233616  41.7825603
  29.1650581  90.1752377  41.4115715  35.0897741  59.9946213  38.3347178
  35.5924797  60.6836843  37.9003048  34.9276853  59.3474388  37.6483369
 111.9497585  75.2933264  32.9850221 111.9250393  75.1921940  32.0335007
 112.7312183  75.8210421  33.1495738  53.8920593  22.5193548  62.1085787
  54.3142271  21.8050909  62.5858974  52.9546976  22.3549914  62.2113657
  17.8968716  95.3691673  77.5836086  18.0481386  95.3717041  78.5287762
  17.6132953  94.4759274  77.3888254  52.5467777  98.9324570  34.2216802
  52.6654577  99.7839546  34.6425056  53.1130123  98.3399105  34.7161531
  49.6716070  97.7042007  41.6534281  48.8676691  97.6334953  42.1681261
  50.1914549  96.9444370  41.9156170  35.3091741 107.9504681  38.8459206
  35.6112599 107.8231812  37.9466033  34.5760512 107.3423672  38.9406586
  56.2013054  89.3509865  55.1602745  55.8983660  88.8675690  54.3916607
  55.4665041  89.3123055  55.7724905 114.9329376 103.3232689  35.3720284
 114.8499107 102.8940010  36.2235403 114.8214722 104.2548656  35.5615616
   5.7750541  80.2313519  65.2524328   5.2585804  80.1508331  66.0543060
   6.5471232  79.6876955  65.4092121   5.1442987  99.7894669  53.4015894
   5.3004730 100.1132870  54.2887068   5.0780207  98.8397980  53.5014820
   4.2896774  85.8343124  46.4471054   3.5304454  86.0445976  46.9907761
   5.0429934  86.0988045  46.9751120  22.0089555  88.4303379  29.3108487
  21.8056297  88.4814453  28.3768892  22.1479011  87.4976158  29.4750309
  72.3604822   3.8436866  36.3622689  73.2191658   3.8354185  36.7851448
  71.9097710   4.5938581  36.7499948 117.7018547  64.4168949  48.8257217
 117.5261021  63.7160397  49.4535351 117.7150154  63.9785528  47.9748917
   7.7152061 100.3930283  83.6713219   7.7057916 101.3150215  83.9283657
   6.8494922 100.2412224  83.2922077  15.8006215  87.1476364  48.1395960
  15.0955176  87.2548199  47.5011826  16.0438442  88.0416107  48.3801699
  24.7742224 106.7157841  36.1826515  24.9655008 107.5125790  35.6879163
  24.9168015 106.9614029  37.0967507  12.6176119  88.9459610  35.4024172
  12.5027168  89.4102478  34.5732760  12.0530033  89.4127178  36.0185242
  89.5864391  83.3986187  46.3066769  89.4899464  83.5752010  47.2424841
  89.5050526  84.2571449  45.8912992  75.6161737  21.7089868  41.6049671
  76.1555576  22.4994254  41.6273832  76.1705160  21.0526395  41.1828947
   9.4215310  62.6824236  25.0256753   9.4627559  62.2784281  25.8924627
   8.5279202  62.5155830  24.7259188  39.1450024  20.6720781  26.9194174
  39.0046906  21.3651967  27.5645018  40.0429440  20.3789234  27.0743179
  45.9438610  90.3033733  62.0625353  45.8951187  91.2316418  62.2909641
  46.0172796  90.2951050  61.1081886  96.2830353 100.5512810  36.0728931
  95.9397507 100.1674938  36.8797946  96.2761211  99.8305607  35.4430223
  35.6232429  92.5518417  48.0782843  35.5408907  92.3454666  47.1472359
  35.9813166  91.7549896  48.4694862   7.3852921  96.6483402  86.0423660
   7.1854454  95.7750225  86.3794422   7.0960629  96.6249657  85.1302052
  14.5873845  95.1594067  32.6408958  14.4510376  95.4744816  31.7473817
  13.9847255  94.4209862  32.7290559  22.3893213  90.8887577  42.6637220
  21.8865561  90.0997639  42.8660536  22.9989123  90.9787273  43.3962059
  32.7060890  89.8917675  50.8778143  33.3194518  89.9248505  50.1436996
  33.2488251  89.6665573  51.6334248  16.9167590  74.7134733  52.2134066
  17.6637053  75.2691936  51.9909620  17.2068214  74.2174911  52.9789734
  64.7491264 109.9269867  55.7739258  65.5473518 109.6741295  56.2377501
  64.6506119 110.8610630  55.9584093   9.0457320  94.7905827  48.9293766
   8.3802968  95.4032803  49.2424679   9.8182058  94.9839401  49.4605350
  28.2384276  95.3382587  76.9791126  28.5776067  94.5652103  76.5279102
  27.3002744  95.1708031  77.0688915  67.2686577   9.5505476  50.1598549
  67.7811098   9.7957116  50.9302568  67.5447512   8.6553079  49.9635077
  15.0671339  34.0198398  45.7356644  15.2988851  33.2629824  45.1974344
  14.1137505  33.9779091  45.8100700  58.1965256   3.7742174  78.2865000
  59.0182734   3.4747508  78.6754560  58.4616327   4.2286140  77.4868298
  11.6115367  83.6060619  55.3314447  11.5368748  82.7282715  54.9570894
  11.0900474  83.5696316  56.1332893   2.4507648  92.1325684  52.5095463
   2.8948647  92.3537254  53.3281374   1.6892231  91.6201591  52.7810621
  22.0225096 103.4113216  68.3453798  21.9802594 104.3675518  68.3377743
  22.6304936 103.1928062  67.6390934 102.2197819  94.8223019  28.8574481
 101.7850113  94.1751575  29.4127965 101.8365765  94.6899128  27.9903507
  51.4704561   9.4844562  85.4501820  51.8816900  10.2083373  84.9778366
  50.8856106   9.0813237  84.8085690  50.0148344  69.3762589  19.5732081
  50.8861637  69.4612741  19.9602377  50.1684141  69.4047499  18.6288381
 106.8857384  66.6738701  22.8966832 106.1926746  67.2426891  23.2318592
 107.2887707  66.3001204  23.6803341  84.8448277  19.5457804  24.2529392
  84.8428059  19.1854572  25.1397276  84.6819496  20.4812050  24.3741226
  15.7460129  89.3098450  70.3474808  16.0027599  88.4280014  70.6170368
  16.3871574  89.5522594  69.6793461  48.9414978  53.6952496  26.5661097
  49.3554258  54.5424795  26.7307115  48.0068970  53.8930035  26.5056920
  33.3631086  76.0098410  60.8448887  32.8202796  76.7409945  60.5499554
  34.2545271  76.2601614  60.6021070  56.5483284  17.1558225  70.8001232
  56.1854506  17.9283011  71.2335110  56.2713242  17.2407436  69.8878241
  18.7065840  28.1256771  93.4604836  18.2688069  27.7327228  92.7053928
  18.4410274  27.5810480  94.2014980   8.3154249  77.4130774  42.4145222
   7.9091233  76.6089916  42.7379322   8.2915360  78.0108166  43.1617689
  75.6857014 100.2526951  41.5791368  75.0188637  99.5950603  41.3814688
  76.0657215  99.9663353  42.4096870  18.0681455  93.1581211  53.8658810
  17.5325298  93.9347744  53.7041187  17.5456607  92.6279449  54.4676685
  41.1114216  83.7911701  60.3675842  40.6596088  83.6865520  59.5302343
  40.7257032  84.5788097  60.7510948  19.1091084  11.7495108   1.8141869
  19.4791889  11.6283214   0.9397812  19.0225542  12.6981354   1.9082683
  10.9195936  74.5376539  22.8047729  11.2162483  73.7060547  23.1744599
  11.6943169  74.8978186  22.3731256  49.9364901   6.1408746  43.7027836
  50.5451250   5.8592665  44.3857861  49.6657419   7.0190924  43.9704800
  84.7097183 111.2495961  21.0398364  84.9654490 111.7509601  21.8140888
  83.7642566 111.3818999  20.9703374   0.7417236 102.8043270  53.6065531
  -0.0906223 103.2211971  53.8293791   0.6133395 102.4731445  52.7177000
  30.4469752  73.9652634  35.9538460  30.3803587  73.0106592  35.9310865
  30.3081632  74.2367458  35.0465107   1.5263037  96.3921261  38.0366468
   1.4833747  95.9224224  38.8695741   1.0707268  97.2173119  38.2032537
   3.7036267  78.9092636  34.3565035   4.4672358  78.3349323  34.4137621
   4.0107816  79.7505140  34.6944141  37.2833419 109.6767330  49.9155617
  38.1277657 109.8984337  50.3080225  37.1411729 110.3542805  49.2545414
  74.0238523   5.8796895  49.2692137  73.6572933   5.0564921  48.9463949
  73.2782936   6.4793694  49.2967749  48.4210968 102.7544212  62.5483084
  48.5345602 101.8043804  62.5204992  48.7687111 103.0617619  61.7110872
  42.3663568   8.5022491  52.5380325  41.8424082   7.9963994  51.9168854
  43.1708241   8.7072909  52.0615625 101.8571472  66.0634613  43.0136442
 101.1653614  66.7136669  43.1356859 101.7859840  65.8077717  42.0939732
  49.6095896  10.1165485  33.0393052  48.8949013   9.8245591  33.6051607
  50.3406239   9.5392096  33.2595420 110.8078289  97.5973701  90.2454376
 110.4031563  97.6154327  91.1127090 110.0743294  97.4826622  89.6412373
  10.0104284  74.2266893  66.0424995  10.8656716  74.5319510  65.7398367
   9.6133137  74.9949741  66.4527130  58.9281702 107.6464653  68.4653425
  59.7660780 107.3085213  68.7814617  58.8068628 107.2272205  67.6134396
  57.3003960  95.6433487  57.0466089  57.3013306  95.6474304  58.0037975
  56.3916159  95.4595661  56.8087673  17.0695257  79.7594595  66.1826992
  16.4070916  79.8384857  66.8691158  17.8938246  79.6499729  66.6568041
  17.1308100 109.0874004  44.7480202  18.0534625 109.0843582  44.4931984
  16.6597068 109.2890263  43.9395380  47.5357103 103.7303925  44.2839432
  47.5599098 104.4174480  43.6179161  46.7981434 103.9675808  44.8460484
  16.4214849  75.5668736  56.7977095  16.2056720  76.0539675  57.5929403
  16.1685121  76.1510897  56.0829210 110.0693989  94.1100407  42.7706861
 110.5547619  93.7331963  42.0367622 110.0131702  93.4001923  43.4103632
 103.2760525  70.1768827  66.9163609 103.0960655  70.9359121  67.4710798
 104.2284870  70.0841999  66.9389105  18.6197531  94.8813725  60.3764439
  19.2665410  95.1740170  61.0185146  19.0671933  94.1950703  59.8814583
  31.3114738  99.7303963  75.2984428  30.8486843  99.0206242  75.7437277
  30.7822871 100.5084896  75.4738522  54.2819262 102.5722980  65.1032877
  54.3194199 101.7706490  64.5815611  53.9336205 102.2913074  65.9494305
 105.1736355  62.9100847  59.9737644 105.8575439  62.2987080  59.7004032
 105.1224422  62.8031158  60.9235907  41.0755110 101.6403961  13.5202110
  40.2368450 101.3005829  13.8322854  41.6227293 101.6846275  14.3043208
  22.3838162  95.9079266  44.0979338  23.1891584  96.0488796  43.6001539
  21.9949555  95.1251411  43.7077141  77.8510332   7.0391601   2.5911298
  77.2282457   7.2022855   3.2994795  78.5906458   7.6149750   2.7851442
  52.0709753  90.2592850  56.2684536  51.7080975  89.7057533  55.5769730
  52.9072285  89.8492718  56.4893723  36.2149954  94.7082996  53.1158972
  36.6245723  94.8522854  52.2628164  35.7221961  95.5115700  53.2836246
  17.0168698  89.5509720  16.0503638  16.2045205  89.1493702  15.7420909
  17.3517489  88.9403725  16.7070651  36.8415260  68.9453268  49.2014790
  36.8267894  68.3547544  48.4483242  37.7089977  68.8208675  49.5864964
  50.0658798  84.5104694  42.8230238  50.6339502  83.7683773  42.6160908
  49.5287180  84.6267414  42.0393372  31.2555599 103.4770107  72.6741934
  31.9458604 103.3785629  73.3299589  30.6022191 104.0350151  73.0961084
   3.1400925 106.1879063  54.4288301   2.5717539 106.9557285  54.3682432
   3.6757833 106.2232971  53.6363554  41.7365694  97.5520515  30.9475493
  41.9392776  96.7087364  30.5426168  42.0098066  97.4517345  31.8594193
  11.9029260  74.9372959  72.3762131  11.3206720  75.3913546  72.9853487
  11.3220179  74.3751574  71.8635988  20.8826780  98.9619637  90.3449631
  20.6739044  98.9513016  91.2790585  20.3090644  98.2972336  89.9637413
  59.4023895   4.5055723  75.7410049  59.8865891   5.0115573  76.3935089
  59.1745472   5.1431078  75.0643444  18.0538034 105.1660538  50.5213261
  18.2177508 106.1090279  50.5092669  17.5046182 105.0282764  51.2931061
   3.2519218  54.2521095  70.4253531   2.9620382  54.3419886  71.3331652
   2.9770738  53.3708334  70.1722956  26.1293411  88.4238911  79.4760609
  25.2206516  88.3474731  79.1850710  26.6462469  88.1227207  78.7288427
  91.7234802  35.5037713  95.6293488  91.8113422  35.7407427  96.5525818
  90.9974289  34.8802996  95.6101608   6.5358341 101.8355083  61.2915897
   5.7067317 102.2796917  61.1140490   6.3185787 101.1779785  61.9524145
  31.2557244  91.8148232  32.2774577  30.7738900  91.0380459  32.5615072
  32.1766424  91.5609932  32.3383498  26.0683346  89.0397072  59.8988008
  25.1272893  89.1356182  60.0453186  26.2674832  89.6662140  59.2030573
   6.9786781  89.4310188  35.5067301   6.3523328  89.4388199  36.2305140
   7.1470219  88.5025978  35.3456712  28.9897728 102.8290844  48.1133032
  28.9982462 103.6180687  47.5714111  29.6096230 103.0160713  48.8183212
  43.6191797  63.5338116  34.3614411  43.7190485  64.4857550  34.3691587
  42.6748466  63.3925915  34.2942095  34.3618727  70.8447695  47.5665903
  34.3231606  70.7539368  48.5186863  35.2921343  70.9635925  47.3749542
  11.7472303 108.1153965  44.1089106  12.4267340 108.3353138  44.7462034
  10.9318650 108.4039593  44.5189571  48.5588121  20.5489516  39.9284124
  49.3671560  21.0613775  39.9132085  48.3452368  20.4110789  39.0055871
  48.7558842 102.7216625  49.3102264  48.5462427 103.4796143  48.7645245
  48.7669945 103.0653954  50.2035093  18.1984830  92.4265575  87.4405766
  18.8994658  92.5106525  88.0869389  17.6042700  91.7761707  87.8149223
  58.0622101  19.8458147  53.4082413  57.7009106  20.7320261  53.4261942
  57.5264740  19.3817341  52.7649307   3.6139914 103.0957127  66.2790012
   3.4052545 104.0295982  66.2563515   4.2970783 103.0190563  66.9451475
  43.8832092 106.1615944  29.0324116  43.8199186 105.4274464  28.4214735
  44.8140049 106.3845921  29.0432763  10.3178847  86.8314171  41.5816212
   9.9714923  87.6404572  41.9580460  10.5172873  86.2810421  42.3389578
  14.1163754  79.5750427  61.0576344  14.9123442  79.2163754  61.4500904
  14.3090343  79.6168852  60.1209593  12.6541471  95.6983280  65.2406311
  11.8558228  95.8361053  65.7504654  12.4589741  96.0763645  64.3831825
  22.3103499  96.4773560  49.1011524  22.3386455  96.3257217  48.1564665
  23.0076742  97.1128654  49.2627144  70.1343060 105.8038902  48.1542587
  69.8927689 105.9422016  49.0701008  69.7275448 104.9689198  47.9227495
  10.7272029 108.4426880  55.0189209  10.1405799 107.7480793  54.7195578
  11.4133060 108.4805012  54.3525410  55.9311008  14.2061818  60.5001688
  55.3539324  14.0851557  59.7462082  56.6031647  13.5323036  60.3979397
  16.2321150  97.5383091  25.4024601  15.4736841  97.4436474  24.8262215
  16.0141253  97.0143700  26.1733031  39.0014338  23.2613230  68.8725519
  38.3231401  23.8859630  69.1294050  39.7229457  23.4284210  69.4789600
   5.2370805   5.6567085  61.1869335   6.0695338   5.2627802  61.4478445
   5.4608583   6.5580529  60.9551287  24.4908690  75.1181746  30.1153588
  25.1138544  75.1535702  29.3895006  24.4001055  76.0282803  30.3976870
  11.3775384 104.7840405  50.7109118  11.1234236 104.4837952  49.8382664
  12.3220336 104.6336842  50.7503271 102.1458626  98.8822460  68.4692478
 102.6909256  98.1581306  68.7771463 101.3564777  98.4603882  68.1299353
 115.9636974  82.4946308   5.1954496 116.3319969  81.8955708   4.5460576
 115.5022430  83.1545734   4.6779835 114.0988255 102.4999523  81.2575436
 113.7818336 103.0002022  80.5055428 113.4412766 101.8160629  81.3846493
 110.9100819  85.2574253  49.4673109 110.8007622  86.2076759  49.5036840
 110.9217739  84.9824142  50.3840780  39.6161556 104.5789814  51.4257336
  38.9590335 105.1911545  51.7568874  40.0748825 104.2735291  52.2083616
  79.8925877  62.9028559  64.0053940  79.4685936  62.7879333  63.1549549
  79.1678143  62.9896832  64.6245813   6.0577899  97.0735264  66.4007902
   5.1345700  97.3150349  66.3261652   6.5055925  97.8965569  66.5965796
  86.3050842   6.7329741  43.8454580  86.0560989   7.6476568  43.9781094
  85.8040333   6.2505704  44.5030785  45.5675888  97.7939510  32.7685952
  45.0342655  97.0037174  32.6830459  46.2993097  97.6553440  32.1672630
  36.3985634  80.4550552  12.7753341  36.2213159  81.1592960  12.1517444
  36.1310697  80.8120823  13.6222160   9.7213262  94.3129826  46.0357380
   9.0951586  93.5906124  46.0839415   9.7036588  94.7039604  46.9092703
   4.9617815  97.7082634  34.3659925   4.9423400  98.0400944  35.2636242
   4.2654788  97.0520496  34.3380904 107.6287079  19.4640827  46.0465622
 107.3738670  20.3306079  45.7296658 106.8550873  19.1408896  46.5083933
 114.2710495  90.3935528  73.7967968 114.2397118  89.6914864  73.1469154
 114.6709347  91.1301804  73.3345175  30.5696511 108.6475658  27.1369076
  30.7879281 107.9906940  27.7980471  29.6802926 108.9237976  27.3582101
  55.7747698  19.0159440  39.6754646  56.2630844  18.6650157  40.4201984
  56.2894535  18.7606609  38.9098549  14.3637908  92.6355267  21.9316387
  13.6943471  92.7498341  21.2570953  14.4398010  93.4969330  22.3420525
 111.5028286  98.7325954  36.5380478 111.1940002  97.8579330  36.3017750
 112.4464226  98.7043190  36.3797069  23.0810452 101.0348988  42.2110844
  22.6553988 100.5797005  42.9376173  23.9738703 100.6899071  42.2024488
  32.2430491  89.6300030  56.0455942  32.2753572  88.6853886  56.1968660
  31.3964009  89.7761822  55.6236362 114.0160656  90.0041676  80.8175564
 114.7122765  90.2076817  81.4421463 114.2794704  90.4489803  80.0119495
  14.3183064 106.8817329  67.2727871  13.7474298 107.3169708  67.9059601
  13.7219632 106.3759804  66.7206812 113.1833839  67.4730921  83.7111855
 113.2318497  66.6337919  84.1688442 113.7168026  68.0658007  84.2407036
  23.6917901 103.8022614  42.3353815  23.4581852 102.8758526  42.2767115
  24.5881748 103.8447857  42.0023346  35.3382730  78.7201834   2.9892603
  36.1157131  79.2613125   2.8514281  35.2213120  78.2537413   2.1616235
  31.4790297  69.7153950  69.4672585  31.0010099  70.4328775  69.0513849
  32.0598197  69.3854237  68.7816668  58.5856295 107.3779106  61.0406399
  59.0118790 108.2211018  60.8870983  57.9846478 107.5421524  61.7673254
  54.7686720   9.8301500  40.8305168  54.6503496  10.6665051  40.3802490
  55.0815678   9.2339963  40.1501322  13.2192039  80.5377102  58.1587744
  12.2760522  80.6933308  58.1089973  13.5880685  81.0760307  57.4585056
  28.6391211 102.1954918  45.1162720  28.9104462 101.4753914  44.5469952
  27.9095697 101.8385315  45.6228018   7.2430813  79.6478510  91.5645409
   7.1088201  79.3064308  92.4486351   7.3030317  78.8677692  91.0130787
 101.8150806 105.4298401  39.4897199 102.6447773 105.8560848  39.2749214
 101.6308308 105.7034302  40.3882933   0.6363856 104.7445011  60.3870249
   0.5994307 103.8127613  60.1708651   1.4638220 104.8487377  60.8568382
  33.3707237  27.5644469  25.4407334  33.4701443  26.7738366  25.9710956
  33.5620356  28.2829046  26.0436010  67.1814108   7.9003727  73.8183355
  66.9817734   8.4264439  73.0439806  66.9669485   7.0038170  73.5606003
  40.3766019  -0.0410988  63.9667177  41.3170973  -0.0169041  63.7903214
  40.1683253   0.8402012  64.2768145  63.2267284  10.8160174  80.6166267
  63.3208990  10.2206111  81.3601685  62.4306440  10.5221319  80.1737785
  28.0243373 109.4157696  60.9257078  28.8600564 109.8697090  61.0340881
  27.5546980 109.9318027  60.2704334  43.6212111   5.7928103  61.5318680
  43.1025219   5.2748770  60.9162903  44.1127634   5.1442349  62.0358086
 114.1969013  61.1689425  66.8767405 114.8605251  61.6078091  66.3445425
 113.5247612  61.8354416  67.0190191  34.3958020 105.6452179  48.7060595
  35.0495410 104.9478626  48.7565994  33.5554838 105.1902390  48.7617016
  53.6198521  96.6841125  49.6857071  53.0265808  95.9673977  49.9106312
  53.8755798  96.5081406  48.7802362  73.7080717 105.5520439  58.0306339
  74.5291758 105.7838249  58.4645653  73.4508085 104.7221851  58.4323645
  26.7054677  83.0788136  57.4286222  27.5535107  82.6704407  57.2546005
  26.7076492  83.2428837  58.3716536  74.8416662  10.4290032  73.5512590
  75.0411844  10.7900465  72.6875067  75.6966782  10.3127623  73.9655972
  64.0195847  65.3315592  16.8455648  64.0963459  65.8053255  16.0173821
  64.3602324  65.9395218  17.5017464  38.8497710 106.3033581  45.9997797
  38.9715481 105.6684589  45.2938747  38.4871411 107.0762253  45.5668688
  29.0426707  69.0225410  36.8821192  29.0580559  69.0375900  37.8390765
  28.1954265  68.6351490  36.6622615  38.5653925  95.0610542  40.8239603
  38.3267474  94.4916439  40.0924921  37.7874875  95.0733852  41.3815832
   6.5611738  59.5822620  52.6139975   6.4545989  60.2486753  53.2927942
   7.2882605  59.8998976  52.0785666 110.7186222  55.1315308  44.8623896
 110.3589535  55.0907803  43.9762688 110.8850765  54.2182064  45.0955486
  22.8987694  61.9297552  15.8581495  23.6877632  61.4012671  15.9782207
  22.8549790  62.0837784  14.9144375  25.3735447  78.1982088   0.0112846
  25.9053516  78.7060308   0.6240879  25.1768994  77.3871040   0.4799751
  12.2270513  86.6743946  31.1451912  12.8041017  86.6810513  30.3815126
  11.6281223  87.4066544  30.9992146   8.2108736  65.6674814  68.1886721
   7.6841843  66.1443138  68.8301277   7.5692815  65.2184248  67.6382732
  84.1478432   0.2194641  80.8340836  83.8989532   0.2686260  79.9111176
  85.0685728  -0.0418903  80.8202744  31.5743446  79.3405151  33.4386539
  32.3959517  79.1297054  33.8822222  31.5873098  80.2935791  33.3507395
  16.9095290  90.0036526  37.6143003  16.3783109  90.7920265  37.7260756
  17.8133035  90.3174591  37.6450419  32.5466871  84.8819256  56.7325115
  31.8843555  85.0896168  57.3916101  32.4179101  83.9514542  56.5484667
  81.0629559  30.8520484  55.4631662  81.0807228  31.1137295  56.3837290
  80.4302597  31.4450002  55.0577784  38.2533145  87.6096153  24.8846841
  37.4150276  87.2505665  25.1755381  38.0734921  87.9618645  24.0130115
  58.0904436  75.1645184  43.8180923  57.6866007  75.2962351  44.6758795
  57.4191046  75.4376125  43.1928301  27.6264596  99.5080662  21.0208845
  28.1137705  99.6329117  20.2065301  28.0462790 100.1006126  21.6444755
  14.0037537 105.1978874  43.3684254  13.8011074 105.2335167  44.3032503
  14.8866045 105.5615044  43.3007002  36.3185406  70.9432077  40.6297398
  35.6621051  71.2929296  40.0272274  35.8119392  70.4552364  41.2789488
  39.8146653  66.5480804  37.0295405  40.6967545  66.9101763  36.9456434
  39.3442798  67.1853542  37.5669932  62.2245455   2.8944185  15.7736588
  61.8019295   2.4259876  15.0537980  61.6567850   2.7368259  16.5280092
  37.5301957  94.2724800  78.8662624  37.3305964  93.9979553  77.9712629
  37.2662139  93.5296249  79.4091463  56.7677736   3.2303259  73.0781889
  57.2019529   2.4001861  73.2746267  57.4352455   3.7494531  72.6296139
  45.6760073  83.2652378  33.2095146  45.3140020  82.3792171  33.1972909
  46.6244078  83.1363297  33.2218266  18.4026361  77.3538208  61.2033606
  18.9378452  77.8390694  61.8313074  18.9745724  77.2309923  60.4457092
  35.3674006   8.3007807  56.0357952  35.8246374   8.9861953  55.5485868
  34.5371914   8.1906414  55.5722761 112.1994400 101.2286282  58.4115362
 112.4614620 100.6748390  59.1469908 111.5583324 101.8339825  58.7840414
   7.2791386  55.8655119  44.2388868   6.7030525  56.5869236  44.4917059
   7.7479786  55.6404877  45.0424957  50.0531197  12.7949893  68.4184980
  49.7309446  13.6800671  68.2479954  49.3790722  12.2206151  68.0552006
  45.9116554  88.5797119  41.4749718  45.3061771  88.9084911  40.8104897
  46.3849211  89.3564892  41.7730856  35.2988386   5.8314598  37.6581955
  35.0429058   6.4075983  38.3784699  34.5059514   5.3351325  37.4551702
  27.5989723  81.2940979  38.4297466  27.7750587  81.4787865  39.3523049
  27.6051402  82.1533680  38.0080390   6.1732936 102.5653744  26.1315656
   6.4835525 103.1951046  26.7822623   6.3063091 103.0040550  25.2912664
  68.3258915  28.3381152  74.6896887  69.2408991  28.1757998  74.9191475
  67.8425217  28.1688476  75.4983473  47.8318882   0.7408966  68.3406973
  48.2303190  -0.0820819  68.6238766  46.8965578   0.5462717  68.2814789
  11.8633366 104.2577744  23.9623642  12.6862037 104.6442604  24.2619514
  11.3092518 104.2394257  24.7426748  32.5560808  95.2688408  46.7902851
  32.2014570  94.4519329  46.4393663  33.2537270  95.5086327  46.1803532
  35.3666449   0.5527403   8.0690968  34.4156814   0.6553075   8.0319679
  35.5176878  -0.0061263   8.8313866  88.0154419  19.0940249  34.8006463
  88.7160397  18.4426892  34.8345971  87.2120857  18.5782635  34.7310352
   2.8054276  64.1739893   5.0162661   1.9979471  64.6578407   4.8427922
   2.6374385  63.2965755   4.6725237  76.9054079  89.6631527  59.9404240
  77.0094585  90.6138134  59.9810362  77.6075077  89.3699646  59.3596315
  44.2392731 108.0531979  66.8326569  44.7364759 107.8913784  66.0308886
  43.3444118 108.2111168  66.5317965  59.6110630  14.4586647  90.0584602
  59.7703934  14.4777811  91.0021114  60.0309515  13.6515546  89.7609615
  37.5666475  78.0672693  15.7234144  37.8957605  77.9921341  14.8277187
  38.3269572  77.8811741  16.2743497  17.4454188 102.1049786  57.6449823
  17.5810659 102.0294666  58.5895061  17.0810771 102.9819107  57.5246859
  20.6463408  96.7516136  25.2842236  19.7986591  96.3203621  25.1761150
  21.1585522  96.4660645  24.5276952  77.0912981  14.4526386  65.9063721
  76.3635063  14.1889024  65.3433561  77.5447512  13.6347568  66.1105347
  34.1390276  92.9266644  67.5232697  34.2082620  93.7893867  67.1144342
  34.5072699  93.0462265  68.3986759  42.7802181 111.0360336  42.4897146
  43.6577034 110.9335995  42.8581667  42.2336435 110.4419136  43.0040216
  61.8855143 105.6481838  57.3781633  61.8872976 106.1975670  56.5943241
  62.5448036 104.9770355  57.2017527  56.6834927   4.7004256  38.7241030
  56.5350723   3.9066666  39.2380571  57.4829769   5.0775355  39.0913224
  89.0841389  21.3773537  47.9286671  88.6512947  21.8362260  48.6486053
  88.6475372  20.5263996  47.8901005  15.2139211  93.1281471  65.0710106
  15.8083534  92.5239372  65.5157757  14.4430971  92.5987434  64.8665762
  20.9501743  67.4341869  49.9383163  20.1167822  67.0036030  50.1288128
  21.3606286  66.8789244  49.2754173  19.8645425 105.2822781  38.2802224
  20.4792905 105.7932091  37.7536535  19.1085255 105.1529980  37.7075505
   1.3859883  21.2060142  15.7943809   1.5424140  20.2628422  15.8411801
   1.0165368  21.3445425  14.9222875  40.8577347   6.0820049  40.2453995
  40.5012655   6.4893448  39.4559455  40.2571630   5.3611863  40.4350567
  35.4630423  29.2482209  46.7276335  35.7024050  28.3237052  46.7925072
  35.0979042  29.4619107  47.5862646  51.9332552  99.9467468  50.4314232
  51.7919111 100.8782005  50.2621508  52.1624088  99.9041080  51.3598108
  18.8833416  98.3224678  66.3566494  19.6375084  98.6686325  66.8337584
  19.2262864  98.1091118  65.4888344  52.4156713  11.9405174  33.4383321
  52.2094297  12.8687584  33.5481787  51.9702291  11.5083277  34.1670465
 115.0242519  34.5119834  79.1762543 115.7629204  33.9039612  79.1460705
 115.0606823  34.9748492  78.3391953  54.7714567   6.4864349  68.8742161
  54.3017483   5.7239270  68.5363007  54.2475176   7.2355837  68.5904980
  23.0527306 101.4674187  20.3788447  22.4717093 102.2243881  20.3037238
  23.6881733 101.7188072  21.0491037  88.6810970  15.8037627  51.3265467
  88.7845612  15.8206558  50.3751040  89.2726898  16.4860356  51.6439581
  30.1934528 110.6800652  48.1900167  29.6378636 110.4212666  48.9252567
  30.2694178 109.8886299  47.6570225  71.4910173  45.0836134  70.9570789
  71.7382383  45.4474974  71.8071985  70.7295942  45.5978537  70.6887102
  77.0308828  10.1091790  50.8035040  76.1483955   9.8762029  51.0919046
  77.0935249   9.7569209  49.9156857 115.4879093  21.8912697  18.9916027
 115.2508354  21.8662167  19.9186420 116.2951756  22.4049139  18.9646196
  70.1181793   2.0472546  67.4473000  70.4328823   2.7114987  68.0604696
  70.8785152   1.4876093  67.2894382  73.7200642   0.5573330  51.4274740
  74.1371918   1.3638073  51.1244345  73.5869074   0.0427904  50.6313944
  92.5705147   0.5072749  42.8609324  91.6413879   0.6837685  43.0086136
  93.0130959   1.3116813  43.1316423  26.8768454  97.0623493  48.4259462
  26.9692206  97.9154682  48.0018187  27.7525973  96.6781998  48.3845234
  23.8488197 102.5664330  39.1392016  23.0120564 102.1344376  38.9676309
  23.9593339 103.1736469  38.4075546  49.5809221  36.2236214  50.4225683
  50.0038195  36.5942216  49.6479416  48.8358974  35.7321692  50.0766706
  47.7032137 104.5732021  32.1285033  48.1597281 104.5903206  32.9696536
  47.6595068 103.6450577  31.8985534  88.7168121   3.3642462  75.6661177
  88.4223557   4.1707397  75.2429199  88.1439877   2.6845175  75.3110409
  10.2116573  97.8362942  56.9642782   9.6500391  97.2115135  57.4230433
   9.6572614  98.6055660  56.8335009  10.9166896  79.2252779  31.9250441
  11.5030813  78.8282967  32.5690794  10.1216197  78.6938000  31.9653773
  65.2534723  13.2576954  36.0688591  66.1979628  13.4106529  36.0410237
  64.9629211  13.6982751  36.8674207  46.7251015 104.5137978  36.5025759
  45.8716583 104.1642666  36.7588758  47.2347689 103.7427521  36.2536621
  88.1332207  37.3650432  16.2454844  88.9475250  37.0348573  16.6251123
  87.9837990  38.2002759  16.6885340  90.9758949   9.9686855  48.4182358
  90.6401253   9.8986620  47.5246000  91.2118530   9.0721124  48.6563778
  50.8481359  30.9136510  34.4492960  50.4244280  30.0573492  34.5080471
  50.1240158  31.5338445  34.3641734  65.3369379  11.5866351  50.4040909
  65.1927376  11.9069588  49.5136786  66.0047960  10.9075332  50.3091049
  17.9189491  98.2790470  44.8939085  17.7266538  98.4094906  43.9653397
  17.9647946  97.3286057  44.9977922   3.7417573 102.4188423  16.8502522
   3.1002480 101.7879868  17.1769285   4.5429873 101.9079304  16.7352259
  29.7626209  94.0654469  68.3403063  29.9936628  93.8775349  69.2499971
  28.8963223  93.6742592  68.2274961  28.8242769 104.4277000  73.5954762
  28.4747481 104.6715927  72.7383995  28.2871938 103.6846638  73.8705587
  55.4837227  94.3761730  40.3996420  54.7175026  94.0685177  39.9154043
  55.7861996  95.1403522  39.9089622  76.0547447 101.9976044  49.1416693
  75.7579708 102.8824711  48.9291525  75.4786253 101.4239597  48.6364508
  78.0767488  31.2748981  36.6364908  78.9612722  30.9092450  36.6486478
  77.8159523  31.2404203  35.7161498   6.6146356   9.7447753  52.4653816
   6.0353565  10.4871356  52.2934294   7.4914563  10.0746357  52.2688866
 109.9131393   2.8847313  50.5644798 109.7066307   3.0920109  51.4758635
 110.3805256   3.6559090  50.2434397  44.6187401  14.5758259  53.4736109
  44.8959446  15.0889540  54.2326164  45.3926134  14.5428145  52.9112387
  10.9804261  95.2888680  59.4645214  10.3503346  95.8756733  59.8826981
  11.8188727  95.7443619  59.5404482  56.2776375   5.7365721  75.1804352
  55.4445124   5.7844996  74.7115612  56.7319059   4.9920037  74.7861147
 112.5934410  97.7680874   9.9013156 113.3601379  97.3285866  10.2690613
 112.9562092  98.4639072   9.3531621  47.0753431   9.2968154  73.7199926
  47.8884315   9.2912209  74.2250538  46.5849543   8.5426986  74.0471888
  10.4450357 108.8461494  71.7998600  10.8300507 109.6867752  71.5522003
  10.5781901 108.7912273  72.7461624  16.9685805  72.8441000  30.5461931
  16.9879794  71.9346571  30.2482462  17.6172948  73.2887697  30.0006032
  83.9414215   8.8130599  63.2660341  83.0273247   8.9621496  63.0243254
  84.0291309   7.8603321  63.2951641  17.4133277  98.0668831   9.5067340
  17.1008182  97.5900841  10.2756500  18.2625258  97.6719952   9.3088460
  53.4928179  24.5910382  59.0151644  53.8244152  24.9070811  59.8556376
  53.3569336  23.6529922  59.1487360 104.7643710 110.7046678  28.6989093
 105.0626255 111.4109508  29.2720079 104.6479202 111.1218671  27.8453207
  35.6474268 110.7233391  40.3263187  34.8348152 110.8586928  39.8389053
  36.1318648 110.0790613  39.8101211  26.6455221  95.2425575  22.1101642
  26.3438487  96.0272980  21.6525578  26.9553304  94.6634483  21.4138269
  30.3674531 106.8830395  14.9636257  29.9204159 106.0439587  14.8525500
  31.1221623 106.6809750  15.5166316 100.7862759  96.1629868  40.3660297
 101.6989708  95.8909702  40.2699995 100.4401207  95.5999374  41.0584116
  70.5544281  16.3406312  54.9347925  70.8872557  16.1582017  55.8135271
  69.8128366  16.9289124  55.0769091  21.5608668  94.4186878  72.4686909
  20.7057071  94.0683746  72.2192621  22.1650171  93.6866760  72.3445940
  97.7827263   9.0091592  41.8377924  96.9547749   9.2384845  41.4157343
  98.1745434   8.3563507  41.2576628  39.1669393   5.7434505  11.2127388
  39.3020773   6.6910237  11.2213433  38.7116742   5.5589730  12.0342827
  27.8748655  74.5174551  54.4156933  28.7641120  74.7986889  54.6310520
  27.3935175  75.3326273  54.2741728  32.7576709  81.9980335  54.8412657
  31.8263698  82.1920967  54.9473238  33.1143308  82.7691936  54.4004250
  55.0178576  12.5325537  40.2517605  54.3742990  13.2403111  40.2179050
  55.5434513  12.7237010  41.0285759  46.3488960  11.6475761  49.3692255
  46.1170530  11.2818062  48.5155916  47.0494556  11.0800409  49.6907091
  68.7591839  14.1602790  52.2685003  67.9219818  14.6212149  52.2149992
  69.1363525  14.2463326  51.3929605  20.6061196  77.2834063  47.1677589
  20.3275490  77.4281359  48.0720186  20.1287699  76.5007353  46.8924427
  44.3238688  92.2765255  46.2277603  44.9024248  91.6699696  45.7655907
  43.4425640  91.9449806  46.0556841  16.1057305  81.4824867  73.1937599
  16.2304330  82.3908424  73.4686661  15.3122699  81.2011623  73.6492920
 106.7989635   4.0567866  32.7761674 107.2797108   3.8626784  33.5808015
 106.0046959   3.5261530  32.8377819  70.0151443 110.5829239  12.2371316
  70.1226330 111.2187195  12.9445481  70.3995705 109.7760677  12.5798070
  88.9683628  34.0162110  16.3660312  89.3049812  34.3010306  15.5164421
  89.2422581  34.7025132  16.9744766  63.0355263 109.8787594  41.7884684
  62.2755289 109.6723366  42.3325539  63.5938120 110.4158306  42.3506975
  86.8087387  24.6477294  43.2109880  86.5854549  24.5977330  42.2815371
  87.5654221  25.2330041  43.2443857 110.5033779 105.2126026  39.3215275
 111.1504745 105.8375072  39.6486473 110.2201557 105.5778122  38.4832907
  47.5035906  96.8926239  18.7388837  47.8498507  96.9637680  17.8493476
  47.3727942  95.9535980  18.8706017  66.9467258  66.5934944  55.2479506
  66.6902828  65.9653521  55.9231615  67.8736544  66.4125395  55.0921106
 106.8228340 109.9050331  56.7810106 107.4811745 109.3138123  56.4159298
 106.4028263 109.3966770  57.4748373  58.1882620   2.9921994  63.0684137
  58.1103802   2.2135019  62.5172377  58.7829828   3.5676342  62.5873661
  55.8549309 109.7339153  50.9189129  56.3753462 110.0889683  50.1982641
  56.1098194 110.2570915  51.6788769  56.7514563 107.4541569  30.9808230
  56.7181492 107.8583336  30.1137757  57.2992516 108.0437469  31.4990282
  39.9430227 106.3062096  57.9520607  40.4851055 107.0896816  57.8595972
  39.6824789 106.0882473  57.0571613  67.6752472  15.5647743  42.4003649
  67.4929523  16.4995313  42.4964333  68.4503984  15.4150546  42.9416227
  44.1325808  86.7654037  45.6404972  44.0516806  87.6506138  45.9955931
  43.5267878  86.2409782  46.1641693  53.4230375  84.1366863  62.5933123
  53.8916731  84.6720409  61.9529915  52.5245571  84.1022873  62.2650194
  10.8988380 108.3339024  28.4522200  10.1992023 107.7102184  28.2578850
  11.3879955 108.4080887  27.6327968  23.4102249  82.1984291  40.4334974
  23.4895825  82.4522305  39.5139766  23.2648516  81.2526512  40.4092312
  28.3894873 102.0437050  28.0082011  28.3245158 101.1726952  27.6165915
  28.2032394 102.6450157  27.2871161   3.3925071  90.0255013  64.1155386
   4.1669866  89.8002434  64.6309757   3.7315267  90.5514526  63.3911991
  45.3386402 107.6133537  47.0823526  44.5736122 107.1636677  47.4411726
  46.0618544 107.3450089  47.6490784  17.6182115 103.0871010  38.5048699
  17.2794032 103.9743423  38.3854961  18.0278349 102.8723717  37.6668191
  53.3649063  41.4940739  71.7089748  53.2605982  42.3810768  72.0533228
  52.4698830  41.1727715  71.5997267  54.8048353  95.6535721  60.7926130
  55.0609064  94.7384167  60.6779289  53.9236593  95.7039452  60.4221725
  87.1304035 111.0451984  51.8058825  87.0352364 111.8788815  52.2664881
  86.3364220 110.5579662  52.0259714  52.2979736   6.5438777  57.5845671
  51.9300747   5.9664851  56.9156170  53.2206154   6.6307014  57.3449230
  71.3992977   6.1654317  55.1559401  72.0708895   6.6520041  54.6779823
  71.2748766   6.6610503  55.9653330 103.9203262  26.1845374  24.2136669
 103.6711502  26.1854005  23.2894683 103.7848473  25.2804565  24.4974160
  82.6600933  22.2322822  47.7410221  83.1558609  21.4355659  47.5521040
  83.2396889  22.9446769  47.4712229  79.7930861  17.7039492  61.7642307
  80.3450680  18.2169092  62.3545074  79.8249388  18.1785715  60.9335995
  34.4388318  92.4257374  35.4273772  33.8045645  93.1124401  35.6332469
  35.2856970  92.8023911  35.6665015  22.6241112   9.4131553  58.2122183
  22.0952868   9.3947625  59.0098667  22.1226382   9.9571055  57.6048708
  60.9865761  60.0908566  83.2582664  60.7330751  59.2033052  83.0048466
  60.4463005  60.2847719  84.0242481 102.6937008  68.8629484  13.6893487
 102.7660847  69.0723181  14.6205616 102.1800518  68.0556107  13.6645997
 105.9959698  42.4132872  20.4225254 105.4898357  41.6418791  20.1676035
 105.4826355  42.8158092  21.1230206 102.0388508  36.9009399  42.0164680
 102.3318863  36.0966420  42.4447966 102.8475666  37.3430443  41.7581081
 103.8617229  64.5069027  36.9595504 104.2089844  65.3254557  36.6051412
 102.9562759  64.7118998  37.1927094   9.5754582  26.6971397  26.9473553
   9.7850472  26.1980033  27.7367663   9.0953565  26.0805774  26.3945580
 112.4883842  18.0304158  40.8194065 112.3604107  18.9713633  40.6991053
 111.6169071  17.6529646  40.6998730  71.9169140   8.5022581  47.9532766
  72.2377110   9.3020099  47.5364828  71.8097210   7.8825325  47.2316933
  98.5528660 103.1079960   4.3811756  98.2020092 102.7417374   5.1929539
  99.0184593 102.3790836   3.9711222 101.2961388  40.1986647  37.2851872
 100.3934479  39.9588561  37.0757484 101.7985916  39.3988490  37.1300364
  68.7028837  38.8893294   9.2743593  69.0271139  37.9965854   9.3931788
  68.0999279  38.8285375   8.5334271  84.4800568  19.5950460  75.8581543
  84.5636654  19.1642880  76.7088556  85.2185059  19.2627025  75.3477955
  11.2452185  22.2428584  60.3797483  11.6424406  21.5873909  59.8063326
  10.4984069  21.7936921  60.7756710  46.0139847  47.4283552  39.6332765
  46.6719389  48.0200720  39.2683125  46.4897156  46.6145945  39.7997379
   8.7689495  48.0105257   6.0461074   9.0230674  47.7091742   6.9183695
   8.0106664  47.4726057   5.8183408  11.9393027  17.6441836  22.9574776
  11.0752809  17.3150718  22.7097201  12.1503937  17.1777570  23.7662530
   3.7364268  46.6558123  35.8447409   4.1903952  45.8238220  35.9786654
   2.8223848  46.4097500  35.7025790  11.7966127  42.2780609  17.7791941
  11.9111657  41.4432907  17.3250294  10.9962857  42.6464462  17.4050260
  69.5211172 106.9003391  30.5296206  69.5514441 106.6946697  31.4639711
  70.1438713 107.6192856  30.4222918  97.2980309  51.4608335  45.6224585
  96.4299870  51.2866545  45.9863138  97.8698349  50.8245754  46.0519409
 105.9988689  12.3819697  33.8361716 106.2451458  11.8620241  33.0711627
 105.1486778  12.7573478  33.6070251  15.0538051  51.7177773  45.6314325
  14.5931745  50.9900284  45.2137756  15.3840172  51.3526726  46.4523411
  34.0447640  52.5573921   7.6052731  34.7005057  53.0393028   7.1012926
  33.9498520  51.7255640   7.1412820   2.6649177  64.5903921  56.6388369
   2.5166500  63.7632990  57.0972729   2.1302481  64.5248604  55.8475924
  24.0751863  37.3382521  77.2115326  23.3834839  37.0472264  77.8057432
  24.8664165  37.3452306  77.7501774  18.2285285  24.2858815  48.2347059
  18.5593510  25.1832008  48.1946278  18.9587951  23.7475252  47.9295635
  17.9218769  39.8932266  18.1162524  17.4273682  39.9030685  17.2967434
  18.5414207  40.6178665  18.0308640 115.5714035  82.2519684  43.5077333
 116.1438274  81.6808891  42.9954624 115.5987740  81.8873501  44.3923426
  94.1796780  26.5685797  46.2437582  93.9960861  26.6898656  45.3121901
  95.0680256  26.9059968  46.3587141  36.6101456  71.2257814  46.0103846
  36.3910174  71.8625402  45.3301239  37.4283981  70.8286524  45.7120943
 102.8028584   3.3157870   6.8413138 103.6649895   3.2904112   7.2564143
 102.9879379   3.4611169   5.9134912  57.5798893  12.3003078  59.7001982
  58.1539059  12.5457275  58.9745903  57.3286343  11.3961363  59.5115757
  11.5926600  53.2231855  29.8509741  11.8032181  53.8301706  29.1414189
  12.2956908  52.5740147  29.8273730   8.6353862  17.8022671  46.4790058
   9.0894127  17.5588322  47.2857428   9.1927236  18.4724033  46.0833740
  99.4724655  44.1299486  31.7988253 100.1694965  43.5164165  31.5665483
  98.8394547  44.0547943  31.0847664   1.3215518  47.9376745  67.3256588
   1.8775421  48.7063074  67.1979427   0.6274451  48.0331182  66.6734791
 116.8974209  56.4309502   4.2376739 116.8971252  55.5739212   4.6639800
 117.8237152  56.6312122   4.1031215  20.1212621  33.8421583  29.1062808
  20.4811788  33.0525398  29.5102549  19.5176935  33.5159111  28.4388208
 107.3848438  54.3017578  79.1571379 107.3368740  54.8818064  79.9170542
 106.9774532  54.8005629  78.4489965  22.9985094   6.6946107  37.7077627
  23.8612413   6.5660089  38.1019497  22.5676060   5.8440214  37.7917457
  10.7168353  52.2628117  45.8226395  10.7792783  52.8696060  46.5602922
  10.2684975  52.7614784  45.1395893 114.4768429  35.6371379  33.0413175
 113.7909222  36.1124969  33.5101247 114.0633488  35.3667283  32.2214818
 111.9992733   1.6164446  86.8104362 111.8322372   0.6752735  86.7601681
 112.8236866   1.7388594  86.3396931  62.5988722  22.9597402  86.5013504
  62.3686600  22.7889633  87.4146271  62.3925543  23.8853621  86.3714027
 116.4676666  21.9754052  72.8065681 117.3414707  22.3660612  72.8158951
 116.3329506  21.6684675  73.7031603  29.1017675  47.5391960  30.8594298
  28.1525755  47.6507759  30.8063745  29.4404864  48.4256172  30.9849453
  11.3511884  24.4459891  14.5904779  11.1683476  24.7107553  13.6889791
  11.5588462  25.2636123  15.0428057 111.9042873  53.4872055  26.0829663
 112.2297573  54.0927744  25.4169416 110.9541607  53.6023188  26.0675502
 113.7357712  18.6044192  29.7823787 113.4467506  18.6919379  28.8740635
 114.5881939  18.1731880  29.7219944  47.5703812  84.0606785  91.2190533
  47.7495480  83.1411934  91.0223866  47.5144815  84.0948677  92.1740150
   7.2420108  77.3343468  23.7077665   6.7548513  78.1148434  23.4436941
   7.0472002  76.6890669  23.0281377 108.2615566  40.3575325  55.3412819
 107.3221302  40.1786137  55.3823376 108.3194256  41.2700939  55.0582266
  96.1737442  14.4133723  36.6608524  96.1782074  14.6744049  35.7399416
  96.3194466  15.2282345  37.1414804 109.5944977  18.1263673  19.2250288
 109.1024208  18.7193060  19.7929263 110.0673485  18.7050319  18.6268711
  23.3548880  34.5193052  26.9561028  22.5101042  34.6274447  27.3929977
  23.4933877  33.5724497  26.9335175  39.4018960  85.7237816  85.3865528
  39.9894571  85.8129692  86.1369228  39.2205238  84.7853565  85.3345776
 114.2776966  57.2226238  10.9711802 113.3813858  57.5226879  10.8201146
 114.4186497  57.3518133  11.9090891   2.9993102  37.0908356  46.5705252
   3.7400147  36.6581225  46.9952011   3.2559535  38.0116749  46.5213156
  11.3012624  67.8479004  66.1556864  11.7617166  68.5725260  66.5789318
  10.8418953  68.2530546  65.4201174  35.2051735  52.2552776  10.0030494
  34.7659206  52.5715971   9.2135996  34.6580362  51.5314198  10.3078473
  59.9335194  10.3148055  51.3972330  59.0012169  10.1303649  51.5113401
  60.3664494   9.4800264  51.5759659  16.0112357  31.9535351  43.8167858
  15.2650332  31.8615603  43.2243729  16.3779998  31.0715604  43.8787317
 108.7961388  74.5349026  56.8704748 108.3615685  74.4063759  57.7135992
 108.1428051  74.2728043  56.2218618   8.5948330  51.6618824  84.5670128
   8.1716937  52.3053837  85.1354218   7.8753531  51.2691164  84.0727329
   7.1945626  30.6779933  17.2411764   7.9871744  30.2138638  17.5105870
   6.4923310  30.0370336  17.3519647  26.8271399  23.6433411  46.7864418
  27.2540402  24.4033217  47.1819401  27.4973059  22.9599643  46.7965508
   7.0773733  56.9664574  17.8077745   6.4964169  57.1273041  18.5513151
   6.7907345  56.1228323  17.4579704 103.9229488  45.7703686  59.7625875
 103.8255119  46.7046165  59.9467564 104.4008350  45.4260731  60.5171156
  66.9763565  74.1134024  33.7210846  66.6965580  73.8231421  34.5892406
  67.8058338  74.5654631  33.8754797  22.4883628  63.9429855   1.6700450
  22.0753717  63.6593008   0.8544505  22.4229622  63.1831837   2.2485365
 104.5933723  43.8300228   6.9756144 105.3330612  44.2007589   6.4943117
 104.7349930  42.8839970   6.9409001 106.3462543  51.1887884  79.8474741
 106.0216713  50.3583050  80.1955795 107.1878433  50.9685469  79.4481659
  96.6194439  89.4447899  31.3315964  97.0948696  90.2567482  31.1557055
  95.7547283  89.7322369  31.6246390  41.6109705  29.8781443  76.2677240
  41.8051577  28.9810252  76.5392113  40.8632994  30.1351500  76.8073177
  93.8170433  48.4562349  32.7479911  94.2952061  47.9664516  32.0788836
  94.4233799  49.1453409  33.0195093  88.5770416   3.4142682  94.9368477
  87.9777050   4.1303685  94.7265434  88.7850094   3.5400656  95.8626747
  98.4711933  43.5365343  34.2498040  98.6049080  43.6825514  33.3133054
  97.6913548  42.9834938  34.2970324  22.0594811  67.7696657  31.0002971
  22.9922819  67.5619411  30.9458423  21.7887902  67.4337912  31.8547845
  76.6924047  21.9635201  16.3044810  75.7682133  22.1831799  16.4221454
  76.9073629  22.2918725  15.4314339 114.2263603  58.9692211  34.2880344
 113.9036751  58.9129782  35.1874447 114.0887070  58.0926752  33.9289355
   2.0826462  11.9471383  32.7103758   1.3764027  11.3796091  33.0191851
   2.8008851  11.7909515  33.3235407  22.0452809  62.2492838  71.7896223
  22.0163321  61.6847038  71.0171938  21.1958313  62.1212482  72.2118473
 113.5809708  40.1894903  24.2773819 114.4745445  39.9368596  24.0451407
 113.6855888  40.7844019  25.0199246   7.5985104  22.0248461   3.7804472
   8.3921599  22.3559952   4.2007929   7.7765834  21.0964274   3.6302328
   5.2736157  51.6177130  34.3831635   4.9886182  50.7047844  34.3434930
   5.9346652  51.6323996  35.0752831 107.8185081  30.0446010  18.8788688
 108.4218025  30.6074810  19.3640852 108.3805180  29.5467877  18.2850993
 116.4051437  30.6265545  16.0245705 115.9396458  29.8557544  16.3492441
 117.2810459  30.3050280  15.8109307   2.8048682  17.4237847  17.7658737
   3.7309313  17.5880086  17.5879133   2.5043973  18.2121289  18.2180512
  34.8810315  55.5745411  71.1233902  35.6615758  55.8253098  70.6293297
  34.8669267  56.1740732  71.8694448   4.7138572  25.7826686  58.3907223
   3.9451289  26.1504292  57.9547882   4.7718748  26.2609696  59.2178202
   1.4737234  46.1175585  10.5293071   0.7303098  45.6456375  10.1539934
   1.1978517  47.0341301  10.5341041 103.5691643  25.6239510  32.1113896
 102.7423954  25.2980399  32.4669909 104.2426968  25.1381111  32.5873613
  34.4374037  39.6745133   1.8499705  35.2248955  39.5912623   2.3877051
  34.7580886  39.6404958   0.9487290  98.8487530  25.7394242  29.5539427
  99.4618416  25.2136803  29.0401840  98.1028938  25.8764815  28.9698720
  31.2962890  26.2509155  83.2715988  31.7709970  25.9939051  84.0620613
  31.2626505  25.4538703  82.7426147   5.3497529  27.0825219  47.4280214
   4.5106235  27.5339746  47.5190401   5.6333876  27.2817802  46.5357876
 117.4354458  13.8341177  44.6797228 117.3360634  14.4840419  43.9840555
 117.9836082  14.2662644  45.3347015   7.0762813  77.8421259  48.3391523
   7.3030597  76.9471645  48.0864763   6.9598854  77.8008127  49.2883492
   6.0019088  57.2031260  30.1846051   5.6533331  57.9995298  30.5851936
   6.5667772  57.5175571  29.4787097 117.1012592  59.6009684  23.8814068
 116.2566757  59.1910934  23.6945558 117.6769543  58.8706541  24.1082335
  16.2874925  36.2004066   1.0373061  17.0784605  35.8188987   0.6564479
  15.6664217  35.4731822   1.0778867 103.2137394  33.7933731  72.6345491
 104.0946865  33.7254310  73.0027008 103.0418968  34.7342610  72.5966501
  73.2570219 102.1907139  40.4983664  74.0018463 102.7260208  40.7720661
  73.5805702 101.6977787  39.7443390  39.6434069  67.7559137  21.5641046
  40.0404835  68.4595251  21.0507870  39.9479175  67.9105854  22.4582958
   1.9933960  30.0078630  31.8340039   2.7982789  30.4440093  31.5544105
   1.5844825  29.7148085  31.0196710 114.2577648  14.0766346  39.2748642
 113.7314320  13.2926250  39.1182351 113.6757183  14.6633184  39.7578311
 108.2872868  19.7919035  29.5397067 107.7159214  19.9583721  30.2894139
 108.6086273  20.6573129  29.2866445 117.1407700  14.0684450  68.9357805
 118.0883408  14.1593182  68.8353729 116.7778111  14.4438267  68.1335449
 100.7366276  19.6179926  32.5709224 100.1152325  20.3300238  32.4189115
 100.4320621  19.2024386  33.3776355 107.2081089  51.0734224  12.1642554
 106.5335369  51.6073942  12.5838542 107.0349503  51.1618185  11.2270069
  89.1326904  12.5376892  24.1672182  88.7122059  13.3960068  24.2193508
  90.0639820  12.7191281  24.2937613  85.1881313  25.4840398  61.8103456
  85.3678799  26.2313247  61.2398338  84.4436455  25.0435042  61.4005947
  31.2031102  38.5772705  65.6150484  30.8003759  37.8126287  66.0265827
  31.7515230  38.2140088  64.9196959  27.1469164  67.0261145  15.5814207
  27.4534988  67.6550770  14.9282408  27.9478192  66.6806889  15.9757137
  50.4458094  49.0265322  23.8815475  50.4037142  48.1300020  24.2142534
  50.8320522  48.9406633  23.0099535  13.0054867  60.7149696  12.8177392
  13.4827399  60.6582117  13.6455321  12.5626874  61.5628099  12.8542089
  28.2938719  22.7000260  36.0398412  27.6552248  23.1985950  35.5301452
  28.8199615  23.3662415  36.4821243   4.1802916  27.9524398  39.5542789
   4.5711130  27.1343398  39.8612070   4.1291612  28.5017252  40.3365183
  88.5083580  22.5657201  27.5405169  88.2093525  23.2823730  26.9808412
  88.6257744  21.8276906  26.9423890   9.9092042  34.8312354  40.3426313
   9.0228158  34.5512724  40.5710363  10.0777185  35.5815721  40.9125710
  28.5989761  81.4362907  92.2728157  28.0836391  82.0165825  91.7125320
  28.9392853  82.0079327  92.9610443  16.3119459  48.9872694  55.1347733
  16.8155229  48.4658527  55.7598877  15.5051434  49.2065239  55.6008530
  53.8146877  68.9317083  27.1250963  53.9834261  68.3242702  27.8453565
  53.0014563  69.3733263  27.3697591  22.4088120  62.1802664  26.4865923
  21.6231394  62.1664858  27.0331836  22.7205944  63.0838013  26.5380955
 113.2131863  36.6789126  73.3730125 113.3004284  35.9660125  72.7402449
 112.5986481  36.3451648  74.0266085  63.5048008  18.6255991  90.2162266
  62.6108027  18.3181846  90.0662422  63.5143518  18.8955784  91.1345100
 116.8495560  69.9264288  32.5007963 116.0141659  69.8300886  32.0435476
 116.7634583  70.7466364  32.9866743  38.3651900 102.9267788  72.2216511
  38.9554667 102.1742344  72.2601080  38.9197469 103.6772919  72.4347878
 108.3504391  81.2395000  62.6738787 108.0569649  81.3714504  63.5753727
 109.2839718  81.0429955  62.7522373 112.0001030  52.6107597  59.6242046
 111.8316364  52.7222109  58.6885595 112.3183441  53.4658003  59.9137878
  77.3127424  25.2311654  96.7444722  76.9748461  25.3153367  95.8528607
  78.1364214  25.7187218  96.7354755   4.4805783  36.5649724  34.4200659
   4.8508096  36.8536162  33.5858917   3.8072756  35.9297848  34.1762781
  26.8597603  57.4909019  58.5837460  27.5487232  57.6059246  57.9292727
  26.9134355  58.2761049  59.1285467   9.2093337  33.0529737  71.4660978
   9.6571523  33.7595606  71.0008812   8.5361701  32.7529907  70.8552837
  25.0576925  28.2455659   0.8014339  25.1568103  28.1311774   1.7465916
  25.8121729  28.7753296   0.5438641  14.1282320  49.5051003  50.8664179
  15.0419545  49.6284723  50.6092739  13.6507702  49.4567823  50.0382090
  11.0390556  53.8666582  47.9877615  11.7351389  54.4279861  48.3292437
  11.0723174  53.0831194  48.5365772  94.9960232  47.4634314  30.5616665
  95.5672932  47.3769188  29.7985172  94.2575455  46.8837500  30.3749919
  42.9327488  50.9509563  14.6314955  43.2412958  50.0450897  14.6523070
  42.2503853  50.9870195  15.3018022  16.0988176  28.6576700  55.5720139
  16.6533506  28.2199359  54.9261713  16.1561763  28.1045604  56.3511276
  16.5112805  56.5181351  79.0954018  15.8970737  56.8278646  79.7610235
  16.7180920  55.6215000  79.3590307 116.4928246  73.0660677  49.4322920
 116.7372894  72.1889734  49.1370344 115.9033680  72.9144669  50.1710701
   0.3698680  53.5981607  25.1953936  -0.3107892  54.0724564  24.7179174
   0.8034769  53.0657148  24.5285225  35.3566933  76.3360786  28.8116574
  36.2700915  76.5443850  28.6153221  35.3602600  76.0922670  29.7372770
   9.6557194  77.1971846  63.6396790  10.1934755  76.5951347  64.1540575
   9.7386831  76.8828773  62.7393675 102.4495506  33.0822396  75.4900932
 103.3364773  32.7728081  75.3061485 101.9702816  32.2952819  75.7493925
  66.6630888  48.4955740  88.1699085  67.5529432  48.7815237  88.3763599
  66.1270714  48.8494873  88.8795948  37.4869895  57.9552698  32.4331808
  37.9914904  57.2069263  32.1142888  37.0243692  58.2790947  31.6602969
  20.2549744  93.0327797  62.3509455  21.1096072  92.7348995  62.6625538
  19.6411943  92.3678207  62.6629353   9.9433476  56.4718008   7.6490468
  10.1447153  56.8983030   6.8161124   9.5333451  57.1574831   8.1762725
 105.8560371  46.0217571  36.3874984 105.0162220  46.4095116  36.1413550
 105.7332325  45.0815153  36.2567306  13.9472759 109.3429470  46.2960243
  13.3509696 109.5909405  47.0025301  14.8100615 109.3148518  46.7095995
  58.6494112  70.5797911  21.9600201  58.5158539  71.4158964  21.5135622
  59.2519712  70.7837534  22.6752496  50.3465366  73.8552284  27.9530549
  50.4651928  73.1645298  28.6050391  50.9868097  73.6531544  27.2708154
  27.5560904  65.4832697  65.6722784  27.9881549  65.9062958  66.4143038
  26.7691469  65.0876808  66.0470581  19.0492976  60.5693340  42.8190470
  18.9955831  59.8618412  43.4615421  19.2814469  60.1318789  41.9999170
  89.3142605  91.3845539  52.7571917  88.8171101  90.7787514  52.2075701
  89.4522572  90.9073925  53.5754251  25.9495044 103.2305622  48.6190891
  26.8830633 103.3567429  48.4494686  25.7432556 103.8637924  49.3066311
 111.0994530  77.4043798  42.3165989 110.1525974  77.3057652  42.2167397
 111.2118626  77.7553511  43.2000113  22.8812718  71.0699177  44.9878550
  23.8159251  71.2743616  44.9586296  22.7061796  70.8807850  45.9097052
  16.4289224  57.6675034  21.2611985  16.0014236  56.8605471  20.9743190
  15.8443546  58.3659554  20.9667921  15.5210745  82.5678444  61.6745758
  16.1823320  82.0365810  61.2310362  14.8912632  82.7884007  60.9883356
  34.8265362  34.8976731  55.5940485  34.3553281  34.0678573  55.5192327
  34.8497152  35.2413130  54.7009611 106.6618252  29.8174143  29.2622089
 106.7640781  30.7454586  29.4731784 105.7853508  29.7531819  28.8828635
  15.9588110  43.1844711  26.1398649  16.2812674  43.0239582  27.0267081
  16.7361474  43.1134176  25.5858517  19.7518146  61.0488605  16.0541999
  19.4169819  61.8611050  15.6742346  20.6621289  61.2453604  16.2754440
   3.4405446  67.8673458  59.5794773   4.1450080  67.7148294  58.9496326
   2.7220201  67.3136520  59.2738962  94.2577171  11.1608374  34.7713161
  93.6431408  11.8180931  35.0977254  94.5797443  10.7220900  35.5587363
   9.4864708  52.1097469  34.6721458  10.2384973  52.5983286  34.3375182
   8.7835705  52.7574682  34.7233272 109.5082664  47.1241188  44.7564793
 110.1231861  47.6916409  44.2916965 108.6529922  47.5292206  44.6128321
  92.3643780  22.8982925  23.2876611  91.7108250  23.4450459  22.8515863
  92.4211979  22.1128798  22.7434826 109.7670841  43.8442373  24.7944999
 110.5363083  44.3584490  25.0396776 109.0253830  44.3484545  25.1289749
  12.6773953  72.5486374  10.2292717  11.9757760  72.0204163   9.8485595
  13.2933962  72.6834774   9.5091373  27.2778988  52.1981955  16.8137944
  27.1667910  51.8042755  17.6790762  27.2014570  51.4637756  16.2046802
 113.6351776  57.9661608  86.7784977 113.7797546  58.0293512  85.8343887
 114.0851974  57.1616793  87.0363998 109.8611164  38.9826083  30.2793622
 109.5754433  39.7619462  30.7560778 109.4675922  39.0749383  29.4116926
   5.3061402  46.6489887  20.3074503   4.7804251  47.3333263  19.8932815
   6.1004502  47.0986509  20.5957389 108.2478714  72.6943493  13.6145997
 108.2020664  73.3091164  12.8823435 107.3353672  72.4687719  13.7953734
  13.1824493  49.2862749  24.1620064  13.2421744  48.8229990  23.3265162
  12.5632107  48.7702751  24.6782613  27.4869657  51.9888496  22.3940039
  26.8960738  52.7383184  22.3206854  27.9766583  52.1479702  23.2009196
 110.5357552  49.4349909  25.7321811 111.4810848  49.3606853  25.6015134
 110.4320145  49.5368481  26.6782761  33.4213018  55.9174776  50.9015560
  33.2671928  54.9799061  51.0174894  32.6050425  56.3309288  51.1826420
  17.7192318  83.4345150  43.5391951  17.9052949  83.3208370  44.4712257
  16.8887663  82.9783249  43.4033585  49.2314053  78.4021616  35.0321555
  49.9745798  78.4168434  35.6352377  48.9036655  79.3015003  35.0339818
  12.5172603  59.3064356   3.6565441  12.5924873  59.4880390   2.7197447
  13.2685137  58.7467813   3.8531080 112.9182053  44.7395468  60.7402945
 112.4983215  45.4770231  60.2975178 113.1799412  44.1520596  60.0313616
  -0.0965990  49.8774481  50.3936625   0.3829848  49.3878317  49.7254515
  -0.0764860  50.7839632  50.0869656  41.5883827  45.4357147  29.6290374
  42.3063469  45.6114531  30.2372098  41.5506124  44.4809294  29.5725536
  77.3856258   8.8520050  81.4244747  77.7136564   9.7438294  81.3092422
  78.1732130   8.3198190  81.5372467 102.5256634  80.4650593  33.8815165
 102.2522926  80.5790138  32.9712892 102.1138573  79.6452045  34.1544294
  28.1105781  38.9370918  43.7294960  28.1688523  38.6894822  44.6522760
  27.2158527  38.7096953  43.4765339  22.6055121  54.3815327  58.8098097
  21.6567016  54.5063496  58.7895918  22.9465318  55.1966858  59.1778660
   6.8847120  65.6487131  49.0164471   5.9975880  65.9354877  49.2332506
   7.4290854  66.0009098  49.7206116   9.5228410  26.0261798  68.1158161
  10.2734208  26.6165543  68.1815529   9.5675915  25.6802034  67.2244501
  11.3192475  55.8179712  16.4138830  12.1501982  56.1372757  16.0620344
  10.6661868  56.4343786  16.0825503  24.4721341  22.8097439  59.2936754
  24.8456407  22.1695018  59.8993301  24.6794820  23.6585426  59.6845484
  99.5758724  11.2480474  63.9742994  98.9886379  11.1835313  64.7274446
  99.2918968  12.0391023  63.5162401  77.0531225  87.2893333  95.4931355
  77.4965572  88.0594635  95.8487988  76.1291170  87.4275208  95.7013321
 111.4605522  53.0387878  37.3106670 111.0081482  52.4766350  36.6817427
 112.1768761  53.4297895  36.8104339  88.8265705  38.8812923  96.2028503
  88.7372780  37.9353762  96.0866547  88.3377934  39.2595816  95.4719353
 109.8229504  73.9356279  19.6694028 108.9352894  73.6283445  19.4853973
 110.3901100  73.3262491  19.1969442   3.9955151  81.5401077  43.7817574
   4.3079281  80.6385326  43.8577652   3.2915151  81.4959049  43.1347179
  96.6079807  57.3887014  26.4287281  96.5193367  57.0334625  27.3131394
  95.7254505  57.6782608  26.1973619  19.0818632  70.0083208  31.6995859
  19.3480980  69.4686842  30.9551764  19.3001485  70.9026384  31.4373255
  40.3291845  74.3038273  17.4589801  40.2012634  75.2480412  17.5502157
  41.2714052  74.2016411  17.3247600  98.7629128  56.1171818  57.8476381
  97.8620911  56.2661934  58.1349659  98.8445854  56.6268015  57.0415068
  18.0286431  54.3758821   9.8023081  18.4178746  53.5777140  10.1596069
  18.5153568  55.0870037  10.2190161   2.9994759  70.4503250  27.7747130
   3.4332630  69.8039532  28.3317256   2.2313961  69.9937487  27.4314594
  22.5137424  72.8979445  15.9454823  22.2116446  72.4233294  15.1710749
  22.0275664  72.5064278  16.6711402 115.3293800  39.6256137  18.0725539
 115.1906872  40.3062725  18.7311137 114.6807384  38.9536738  18.2823145
  12.9353607  97.6671410   5.4881620  13.2639468  98.5244179   5.7589722
  12.9473424  97.6973248   4.5315132   9.0194738  18.0501819  51.8236113
   9.7110850  17.6860821  52.3761845   9.1057062  18.9980459  51.9253492
  34.5558500  51.7493200  59.8756552  34.3026686  50.8412361  59.7097778
  34.4904828  51.8464756  60.8256674   1.9540907  54.7492886  12.1019876
   2.5082794  54.9720335  11.3539946   1.1963881  55.3283596  12.0195436
   6.1652464  43.0354881  41.8055725   6.3907510  42.1132231  41.9272661
   6.9112670  43.5141611  42.1669006  33.1940627  73.5630274  19.4679832
  33.3782578  74.3469286  19.9854815  33.8803101  72.9443073  19.7179377
  35.8537221  41.7952204  84.6035004  36.5924025  41.1880112  84.5601940
  35.1007223  41.2419415  84.8111153   6.4673132  17.1649182  81.4647102
   7.2027528  17.7304792  81.7002964   5.8287627  17.7560365  81.0658836
 106.4384079  41.7063427  43.7610674 106.2514210  40.8925772  44.2291021
 106.1192322  41.5502167  42.8722572  37.3197293  35.5311155  21.6482306
  36.4500880  35.1451540  21.7530704  37.6475954  35.6291914  22.5421643
 103.3151340  75.3787231   6.0739720 102.8041744  75.0973749   5.3150290
 103.8123417  74.6016836   6.3293630  97.0160866  63.7711906  43.2120466
  96.2353516  63.7301636  42.6597691  96.7496967  63.3598948  44.0342999
  30.9317398  68.5501242  34.9799800  31.0414338  67.6250648  34.7598290
  30.2178502  68.5615778  35.6175256 101.4808464  69.1202497  36.6238213
 101.8379974  68.5900211  37.3362303 100.5316830  69.0403986  36.7184258
   2.7219832  81.4879894   9.9452454   1.8432522  81.6021824   9.5832729
   3.2238865  82.2224712   9.5918828  79.6440029  40.5107737  19.0342009
  80.0694656  40.9474754  18.2962930  78.8566256  41.0298204  19.1980827
  11.8666852  74.3534517  43.0236101  11.6990602  75.2472305  43.3224154
  12.8151155  74.3162012  42.8998184  28.0059409  59.4925117  54.1629553
  28.7386084  59.8372889  54.6734047  28.0191541  58.5503149  54.3312502
 111.0746479  61.0011435  41.1516094 112.0141029  61.1386585  41.0301590
 110.9570026  60.9763861  42.1012259  46.3252735  99.1307926  44.4159555
  47.0985031  99.6947289  44.3978310  46.0860252  99.0820408  45.3414917
  10.2717590  83.3475113   8.2570761   9.3377572  83.2741928   8.4532803
  10.5906761  82.4450874   8.2695407  15.6236005  30.0497103  41.9290781
  15.4793727  30.9439445  41.6196012  15.4078043  29.4982600  41.1770344
   9.4319218  84.7132301  57.3556328   9.5414817  85.6329155  57.5973129
   8.5592806  84.6706676  56.9645882  15.9329367  52.6321602  49.3547297
  16.1664355  53.4688902  48.9527464  16.0489273  52.7769375  50.2937794
  98.7198925 103.8514709  92.3630905  99.1842461 104.2745876  93.0852985
  97.8724957 104.2954063  92.3303986   3.9910045  31.0427690  40.5351496
   4.7187340  31.3567781  39.9984550   4.4106939  30.6312108  41.2906027
 112.7739429  54.9416447  65.1542377 112.9253864  55.3574371  66.0030079
 113.5964489  55.0603199  64.6792316  25.7469702  37.3491478  45.1256132
  25.2998471  37.9545975  44.5342159  25.0814366  37.1085572  45.7701397
  35.9608054  75.2539539  57.5160599  36.3160419  75.8013439  58.2163477
  35.0113630  75.3325653  57.6088572   5.6382877  61.0898781  19.6298110
   5.8702153  61.9901228  19.8578501   5.7710725  60.5960417  20.4389620
  90.0699139  21.0137892  31.2525249  89.1547680  21.2366128  31.4231086
  90.0391102  20.1203847  30.9103107  18.5769522   1.8632428  42.1972275
  18.2400918   2.1805215  43.0351353  17.8660011   2.0242053  41.5768480
  13.7050080  59.1387320  67.0699310  12.7667582  59.2713737  67.2052956
  13.8083601  58.1882334  67.0240164   2.2474746  41.6932774  11.7572892
   2.9049957  41.0173845  11.5927780   2.1368514  42.1303749  10.9129310
  25.1799536  83.5951519  73.7334776  24.5778370  83.5332966  72.9919529
  24.6491528  83.9560986  74.4435501  19.4112611  40.3211164   6.2770659
  19.0778482  39.4258857   6.2168020  18.6572874  40.8390284   6.5590584
  22.4993348  28.6371017  39.1742778  23.3857203  28.3399820  39.3798876
  22.6048541  29.1855693  38.3969235  11.8234777  55.1078653  41.1117125
  11.7890429  56.0330534  41.3547659  12.7576017  54.9173594  41.0259771
  20.0391507  50.3588057  40.6534719  20.3067660  50.9221697  39.9273610
  19.0977919  50.2382898  40.5287600  13.2483089 102.1149731  44.7976494
  13.2139480 102.7335739  44.0680027  14.1147876 101.7137337  44.7308826
  16.4591205  74.0232372  42.3239708  15.5893457  74.0359640  41.9245243
  16.9423676  73.3648825  41.8247032   4.0435472  34.6961474   8.4790540
   3.8316712  33.7654495   8.5507548   3.9673436  34.8878169   7.5443411
  34.7511911  89.3040085  81.0254860  35.0067163  89.7541332  80.2202988
  35.5259466  88.7999439  81.2742901  16.1378145  23.0956078  43.9298344
  16.0038877  23.4858155  44.7935629  16.0123634  22.1569276  44.0690184
 115.1118660  35.8423495  56.5395737 114.8741341  36.2848449  55.7247639
 114.3464470  35.3094172  56.7548466   0.3677423  41.9418812   7.3512030
   0.1668835  41.2001657   7.9219466   0.1276482  41.6414881   6.4746463
  97.7763844 104.7725391  10.1987541  98.4825516 105.2653599  10.6167030
  98.1526852 103.9079952  10.0338328  49.3955994  27.2884750  81.5217400
  49.1568947  26.3710880  81.6545868  50.3066397  27.2590137  81.2295532
  77.9092312  17.7395749  94.7775650  78.0414534  17.2445345  93.9690590
  77.9396534  18.6565399  94.5046520  16.7380691  31.2519550  50.7884216
  17.4146450  31.8280196  51.1442709  15.9893703  31.3725114  51.3725042
  94.8376465  60.3911161  41.1995697  94.8016453  60.0759602  40.2964592
  95.4368973  59.7883987  41.6398668   9.8037314  64.9204493  21.2342095
   9.5553344  65.4521084  20.4779887   9.8626870  65.5450535  21.9571376
  83.2050037  45.0025415  69.5679665  82.4690247  45.1505899  70.1618147
  83.0145454  45.5532503  68.8085747 111.1183453  39.0285707  51.0509205
 110.2449799  39.4122243  51.1301947 110.9914207  38.2558036  50.5005074
  51.8650675   1.4853796  61.7701387  52.2983456   0.9193696  62.4089909
  51.5179205   0.8825549  61.1126280 112.6131821  41.5239716  15.0284946
 111.8820763  42.0108986  14.6482062 112.2786236  41.2056112  15.8669138
   4.8412716  49.3460277   1.3590021   4.6520054  48.4341338   1.5800828
   4.1389000  49.5978549   0.7594270  13.4367490  76.8287802  11.1264539
  14.2484450  76.8644142  11.6325295  13.6380899  76.2498093  10.3912747
  10.4767752  36.8670750  42.1995020  11.3424599  36.7439175  41.8100739
  10.3775847  36.1291766  42.8010798  28.2938349  43.4759620  -0.2139025
  27.7996790  44.2093566   0.1523847  29.0787613  43.4200576   0.3310651
   2.9696643  38.5419106  43.8660860   2.0657763  38.7781453  43.6577320
   2.8923577  37.8901982  44.5628834  21.1372352  57.1114111  23.3430076
  21.5637565  57.2890091  22.5046921  21.2073445  57.9345274  23.8265324
  96.1924648  64.5566654  36.3681412  96.8041039  64.1154003  35.7787251
  95.7715988  65.2212811  35.8228064   2.1578024  87.1934414  27.6418519
   1.8584748  87.4105835  26.7589664   3.0237982  86.8066311  27.5127888
  30.6710935  44.6713638  10.4986751  30.9681249  44.7191334   9.5899826
  31.3672543  44.1974258  10.9536171  74.9955702  73.9258480  28.7821507
  74.6166229  74.2407227  27.9614902  75.5522346  74.6451378  29.0804505
  30.7225466  88.6842918  59.7269535  31.5100002  89.1494083  60.0094604
  30.7623601  87.8452206  60.1858854  22.2788668  55.9792328  12.7710354
  23.0193877  55.8890533  12.1712613  22.3488688  55.2228355  13.3534384
  18.5367846  40.7843637  52.7166033  18.3576632  39.9097610  52.3713255
  19.1888690  40.6420755  53.4027338  35.1830530  82.3654461  67.3717928
  35.0519514  81.4583778  67.6479816  35.9363198  82.6644135  67.8811407
   3.4176698  69.6580076  70.3631639   4.2469084  69.4442511  70.7908344
   2.7556774  69.5163441  71.0398674  84.7741985  64.6281576   2.2882797
  84.9301243  65.5701256   2.2203004  84.2757130  64.4104481   1.5006590
  16.7425799  47.2534037  20.7165885  16.5215504  46.6978168  21.4640546
  16.7554307  46.6554689  19.9692321 106.2812328  69.6219349  52.4623680
 105.6813049  69.6351910  53.2081223 107.1527195  69.6716928  52.8551292
  34.3727469  81.4188671  27.9709387  33.4912896  81.5412235  28.3234906
  34.4467211  80.4745007  27.8333497  10.6150687  28.7953925  52.5233078
  11.1150360  29.2427254  51.8405485  10.8069956  29.2871141  53.3218098
 111.2988758  35.9939623  87.3298168 111.4853287  36.9206047  87.4808121
 111.4698792  35.5747151  88.1731510 114.3138790  81.5022850   7.0482528
 114.7728348  81.7082310   6.2338960 114.0160561  80.5998421   6.9337046
  -0.1990617  56.8053198  11.9564426  -0.0060285  56.5607452  12.8615105
   0.5351721  57.3619032  11.6969359  97.7966022  46.0607481  35.0065231
  97.6983452  45.1531696  34.7186279  98.3093357  46.0021210  35.8126831
  19.1574478  38.6886239  24.5324564  19.2138207  39.5670748  24.9084592
  20.0505996  38.4909701  24.2505980 112.6753139  79.1578436  31.5121412
 112.2587013  78.3946180  31.9123363 113.6112976  78.9585924  31.5336347
  22.0983100  79.1183472  68.4192276  22.3879266  79.0433073  69.3284702
  22.7098632  78.5706043  67.9270840  86.7040634  27.5047779  30.3288698
  86.2273979  28.1993747  29.8743844  87.2730732  27.9676127  30.9438848
  77.4247456  40.6194878  95.1878643  77.6777840  40.3122759  96.0583878
  76.5523005  40.9937954  95.3101921 114.8082447  61.7551613  49.2502213
 114.8813152  62.6738596  49.5088482 115.6195354  61.5747786  48.7753439
  42.7799511  48.8793039  35.2003884  42.5839472  47.9990435  34.8795247
  43.6778116  48.8207865  35.5269647 104.2044258  69.2080784  31.2878180
 104.3454361  68.3853912  31.7563653 105.0152683  69.3470335  30.7984710
  23.3939075  93.7454128  50.9255505  22.6051068  94.2282009  50.6786919
  23.9299130  93.7407970  50.1325130  51.6859913  64.6052408  32.3128724
  50.7464743  64.5387030  32.4835181  51.8677568  65.5447292  32.3364401
  97.3185062  73.4211159  50.9405994  96.6189194  72.8950024  50.5532694
  96.8713093  74.1880465  51.2984705  27.9505563  62.6941776  62.8312588
  28.6313248  62.0347357  62.6973963  27.1323490  62.2362566  62.6387119
  24.9397397  83.9268494  41.7621613  24.3014073  83.3236885  41.3814354
  25.6549025  83.9513874  41.1264181  63.9063883   7.4322599  96.3213158
  63.1998730   6.9686890  95.8716869  63.4802723   8.1927210  96.7167377
  39.0202594  98.7923527  82.1339798  38.3232260  98.7632179  81.4785957
  38.9920402  99.6866512  82.4740601 108.1599903  93.3800983  32.2623229
 107.2310925  93.5358524  32.4329805 108.5939789  94.1843128  32.5471520
  37.5555944  67.4081516  14.4229913  36.8324256  67.9964781  14.2058909
  37.7142358  66.9161844  13.6173666 105.6869316  37.6168609  17.6700437
 105.5963802  36.9851613  18.3834755 106.6321850  37.7154040  17.5559247
   8.9415032  47.0075893  51.1708212   9.0296227  46.5740585  52.0196581
   9.7085273  46.7213011  50.6748915   5.3065288  71.9842100  69.7628021
   4.5865411  72.2249937  70.3457880   5.2171892  71.0378790  69.6500635
  17.8699303  48.6132812  47.1725512  17.5616789  47.7518034  46.8913555
  18.3384335  48.9596558  46.4131069  19.3131530  47.8017998  55.5949926
  20.0955343  48.2128906  55.2274132  19.3576682  47.9964495  56.5311337
 117.9413036  22.0854855  62.6396704 118.2957904  22.9455757  62.4142456
 117.1561869  22.2769690  63.1526613  21.4697695  55.7361889  35.1249957
  21.4365816  54.9977827  34.5168161  22.1165061  56.3307047  34.7448492
 106.3055992  79.5320606  12.5192177 105.4658127  79.1922092  12.2101879
 106.7628860  78.7644529  12.8625894 104.6927738  90.9456253  45.3989172
 104.3203545  90.8243847  46.2723207 105.6088448  90.6836510  45.4906750
   7.9227602  54.1615820  67.9479599   8.0762005  53.6973810  67.1250343
   8.5439146  54.8896837  67.9316616 110.0261688  58.3323956  27.8855705
 109.7981167  57.5677872  28.4143376 109.2499733  58.8911295  27.9251719
  25.1245332  44.8333788  15.0948000  24.9635410  44.8552895  16.0381091
  25.6426334  44.0401220  14.9586105  14.7118104  77.3590899  48.3274269
  14.2928326  76.5054512  48.4369278  14.8455501  77.4408913  47.3831558
  21.5024257  77.8672409  19.1671503  21.7050409  78.7856674  18.9891791
  22.0530128  77.3777342  18.5560322   4.6216762  37.7502751  50.7280779
   5.3945422  37.2017407  50.8623171   4.8180100  38.2510948  49.9363327
  24.8574901  33.6621141  44.4896555  24.8324013  34.4614768  45.0156069
  25.5782557  33.1534863  44.8611736   2.2540560  70.4593229  17.6809561
   2.7253377  70.0460863  18.4043932   1.8741912  71.2503386  18.0633521
  16.4924467  54.2490053  55.9665442  17.1815073  53.5962486  55.8427095
  15.6895030  53.7356615  56.0559511  22.9135871  96.8236923  68.8220263
  23.6891532  96.2729454  68.7151718  23.0420446  97.5412273  68.2016516
   2.9206857  25.3629327  15.7359636   3.6709619  24.7802806  15.6183517
   3.0319268  26.0353255  15.0638437  44.6533632  69.7531176  29.7077203
  44.4033051  70.1997757  30.5165458  45.3660822  69.1691732  29.9670911
 117.2348939  83.1608772  30.0576806 117.9982949  82.5988960  29.9248862
 117.2300807  83.7420177  29.2971039 113.2506275  61.8344498  35.4626703
 113.6461449  61.4246988  36.2320232 113.8205814  61.5809298  34.7366452
  11.2822402  59.9278402  27.5415516  10.5257034  59.6541739  28.0601931
  11.0704231  59.6577454  26.6480136   9.0194142  56.5638924  61.8292332
   9.2654991  55.7571983  62.2819090   8.9433348  57.2158432  62.5259399
 115.3203392 102.6513958  51.7249918 115.1184559 102.1479034  52.5136423
 114.5177650 102.6136112  51.2047243  32.8972340  43.3033752  11.2528288
  33.4314251  42.7701759  10.6641221  33.5261798  43.8695192  11.7001963
  39.7981596  20.4352975  36.0280108  39.1206455  19.7639191  35.9476280
  40.4521132  20.0472379  36.6093755   8.7262249  74.9452639  38.0083847
   9.3342501  74.3954897  38.5026336   8.5759151  75.7035303  38.5728931
  68.2487154  80.5795002  43.7585306  68.9529371  81.0589314  43.3221340
  68.3227205  79.6864128  43.4221363 109.5576859 108.4284782  49.1901636
 109.5695400 107.4713612  49.1944933 110.3524208 108.6799812  49.6606588
   1.6953041  68.4983492  26.2743521   1.8962371  68.7336779  25.3685498
   2.0230055  67.6038551  26.3677549 108.2878113  78.4635019  50.3284168
 108.8591766  79.0351439  50.8412504 108.6919785  77.5984049  50.3953600
  15.4060125 100.1557922  38.6622143  14.8418128 100.8977127  38.4443355
  14.9203002  99.6740246  39.3317032  43.9893293  73.2641935  40.6399870
  44.3027258  74.1151094  40.9465075  44.7659492  72.7047539  40.6510305
  37.0281363  72.5237846  43.2466459  37.7544260  72.9753923  42.8167772
  36.3171434  72.5500584  42.6063108   3.2371214  85.3563023  38.2899785
   2.3135145  85.6069279  38.3092618   3.3927131  85.0845337  37.3854542
  99.6014690  44.1387892  87.1361160 100.0424957  44.7399807  86.5358734
  99.8129654  43.2675362  86.8008327  49.3705130  80.9613609  61.3882256
  50.0515032  80.2939796  61.3040733  49.3120623  81.3550186  60.5176783
   4.0998930  81.4543915  48.4670019   4.4371662  80.8020020  49.0809011
   4.8223168  81.6058159  47.8575706  25.8705139  65.1006222  47.4994564
  25.9008265  64.3555832  48.0996466  26.7890811  65.3197575  47.3431015
  44.1387272  72.9998827  33.4438252  44.4258356  73.9122057  33.4055018
  43.6034155  72.9503202  34.2357945   5.8601868  75.2015257  32.5538182
   5.1306272  75.3357697  31.9488764   5.5218011  74.5862961  33.2043672
  22.8036761  70.1170063  26.8793249  23.5945559  69.5854521  26.9698095
  22.2736120  69.6497345  26.2336302  26.8344688  25.4437971  25.4673433
  26.4541912  25.1533175  24.6383429  27.2468352  26.2825704  25.2608299
   1.7825621  78.3110046  60.8565426   1.5284535  78.4694099  61.7656994
   1.0422882  78.6319542  60.3415489 101.5559292  81.5512657  44.3437481
 101.9135952  82.3849392  44.6492052 101.5568638  80.9913921  45.1201296
  36.9154453   0.0894394  85.9962177  37.8599310   0.0418548  86.1442471
  36.6135001   0.7734444  86.5938854  32.9702401  43.7983084  50.7168055
  32.9543114  43.2188225  51.4785004  32.6950836  44.6494198  51.0575771
  25.6129527  62.7452612  44.4716597  26.2809539  63.3089876  44.0815115
  26.1091638  62.0544529  44.9107361   6.0658634  94.2773342  71.7325640
   5.3602111  94.5890141  72.2992563   5.7488000  93.4401798  71.3936281
  14.6271014  59.9165726  62.7232027  14.6832347  59.7871733  61.7764521
  13.7082207  59.7503614  62.9335928  18.0482459  54.5315170  15.1805305
  18.8767719  54.0850496  15.3550088  17.4684525  54.2448235  15.8861339
  19.6090662  51.0962248  35.0569868  18.7100804  51.3595438  34.8602176
  19.5483065  50.6488514  35.9010243  38.1507969 102.2225571  49.9633360
  38.5337853 102.8985691  50.5224133  38.5757160 102.3447990  49.1143751
  85.3384209  20.0304055  95.8951664  85.4903126  19.6993816  95.0099564
  86.1622524  20.4533339  96.1373615  12.3298562 108.5984516  52.8376293
  12.7026379 107.9636383  52.2258472  12.7828026 109.4177818  52.6381969
 110.9002399  68.6615896  31.1968470 111.3473892  67.8560686  30.9371901
 110.2508736  68.3782578  31.8404961  43.0698252  45.2262545  15.3585756
  43.0177879  44.3835831  15.8096135  43.2645702  44.9995613  14.4492257
  41.0960674  95.4398823  34.8838830  41.7690325  95.6668758  35.5256200
  40.4184723  94.9962902  35.3941059  21.7839956  85.3565502  41.9069529
  22.3596263  85.1898289  41.1605692  22.3568058  85.2893639  42.6708889
   0.5967477  64.6315002  39.1759777   0.5135082  65.2102709  39.9338198
  -0.2464553  64.1813898  39.1245985  99.9337578  95.8170605  42.8788614
  99.8922825  95.6474781  43.8200092 100.0676537  96.7624474  42.8115082
  22.6161051  72.9150629  57.7131653  22.7244592  72.8204584  56.7668343
  22.9725432  72.1047401  58.0772495   1.3700910  65.8744860  59.1416121
   0.7382220  65.9678268  58.4286880   1.2045682  65.0006390  59.4954872
  55.4614496  72.6830101  17.8197062  54.8071003  73.0864382  17.2493517
  55.0291824  72.6174498  18.6712217  11.4133394  82.2653294  50.8255816
  11.2926519  81.4543724  50.3315926  10.5517149  82.4479389  51.2003994
  24.0242839  72.5809669  25.7676220  23.4820104  71.9802284  25.2564597
  23.3976030  73.0951977  26.2766099  18.5891533 100.9384918  51.6341591
  18.9695311 101.4337349  52.3596144  18.3449292 101.6045284  50.9915209
 112.0703793  45.0682497  95.4133511 111.2994003  45.2292824  95.9573174
 112.7845573  44.9489594  96.0394192 109.7587204  88.1241512  36.8168354
 109.4696331  88.7160683  36.1223650 109.8052025  88.6757374  37.5977468
  15.5033517  89.4379044  41.9476748  14.5712304  89.2222214  41.9770527
  15.9328043  88.6136818  41.7186356  62.1788692   7.8800666  34.7760797
  62.8305817   7.1838307  34.8582768  62.5393724   8.4684855  34.1127300
   5.7523829  66.6898346  24.1240954   6.6051310  66.6597080  24.5578527
   5.4268897  67.5732708  24.2968154  60.1386499  76.8912554  48.3535480
  60.8578730  76.2979794  48.5702896  59.7977257  76.5607452  47.5224257
 117.7537936  84.2609406  33.0299187 117.6254556  83.8026905  32.1993947
 117.9777170  85.1566029  32.7771688  10.9430385  73.7412214  39.3044829
  10.6577790  73.3867502  40.1466274  10.8239734  73.0188465  38.6878538
   7.6621741  99.9345875  34.5972991   7.8969622  99.0840626  34.9684000
   7.5887966  99.7734451  33.6566186  20.4894018  81.6016197  49.0486288
  21.0895157  81.8869114  49.7376156  20.9644556  80.9095192  48.5886812
 113.2439613  88.1312180  36.0557318 114.1204166  87.7516651  35.9925699
 112.6521492  87.3872852  35.9437251  23.8089800  66.3111973   1.6858748
  23.4479666  65.4295063   1.7781577  23.5819983  66.5706968   0.7929177
  15.4357052  59.2529154  82.4589729  15.4692078  60.0917101  81.9990540
  15.1881385  59.4808292  83.3550739  56.7955923   3.1052619  32.3966503
  57.0120907   2.3210993  31.8922210  57.5803566   3.2801726  32.9160547
  53.6372328   6.3555759  28.5132313  53.8874340   7.1142375  29.0405512
  52.8264570   6.6220391  28.0797935  98.8675308  91.4800835  16.4567792
  99.1878700  92.1018887  17.1102095  98.2234097  90.9499645  16.9261611
  24.8252797  40.5585289  32.7246618  25.3562760  41.3549328  32.7214479
  24.5452094  40.4610634  33.6347675  32.3441815  73.2827568  25.2796650
  33.0793285  73.4896135  25.8567309  32.3316145  72.3264122  25.2411985
  14.2516780  59.1439772  30.6101441  13.3702898  59.4467831  30.8285379
  14.1959512  58.1896353  30.6586957   8.2737845  69.1428661  23.4046936
   7.8608716  69.9167633  23.0215287   8.2551563  69.3037701  24.3480873
  80.1898289   0.5080085  33.6237001  80.2981377   1.1272848  34.3455029
  81.0834885   0.2917215  33.3575487  28.4936523  85.8790970  33.7783194
  27.7471685  86.4626980  33.9139724  29.2042494  86.4588833  33.5042286
  21.9117951  86.3169575  33.9031100  22.3649931  87.1164989  34.1706371
  21.1567354  86.2622070  34.4888735  28.4542871  58.3167505  12.4487960
  28.5632634  58.1815147  11.5074849  28.8921070  57.5664759  12.8508282
  56.4826393  71.3583946  47.9628754  55.8888674  72.0225143  47.6127243
  57.3507023  71.7571163  47.9018354  37.9534769  77.0872641  25.1644206
  37.4439478  76.6076899  24.5112586  38.7329769  77.3800898  24.6923327
  48.7809515  96.8038940  89.5951748  48.0275154  97.3345947  89.3365002
  48.4783268  95.8999443  89.5083618 117.1208286  37.4053168  38.0285907
 116.5434551  37.0905614  37.3330379 117.9819775  37.4673367  37.6152921
  23.3678389  77.8573895  61.2147379  23.1662107  77.2281027  61.9072533
  22.9227018  77.5125170  60.4406929  22.9549861  77.8613949   8.3221477
  22.2820926  77.4617529   8.8732624  22.5459313  78.6582136   7.9845291
   8.8259703  60.4271746  31.7118621   8.8137978  59.7460890  32.3843288
   8.0147898  60.9158516  31.8511915  15.4230869  59.8429632  17.1718490
  15.9434772  60.2795172  17.8462744  16.0686874  59.4047022  16.6174507
  24.9253607  77.6594973  37.8527927  25.6382346  77.5839615  37.2184944
  24.9947429  76.8679190  38.3864784  49.5116377  44.8977804  47.7158546
  49.1136026  44.0280533  47.7530050  49.7975445  45.0688601  48.6131954
  39.8524070  69.7637701  18.9295399  39.3178010  70.5487108  18.8099861
  40.7133865  70.0966597  19.1827810  18.9616501  50.7695341  24.8809624
  19.3016768  50.4888439  25.7305670  18.9499080  49.9716997  24.3522334
  12.5816333  71.1668777  40.0396490  11.8860078  71.3427687  40.6732130
  13.1640160  71.9235182  40.1071644  13.6273253  45.0972462  34.8086524
  13.7895298  46.0234451  34.9877715  14.4971514  44.7258997  34.6612239
  15.9731424  91.6993618  29.0892148  16.2607718  92.5890064  28.8841939
  16.5799892  91.4016533  29.7669601  22.6060152  80.1828957  25.2340007
  22.8035927  79.6320581  24.4765234  23.2832265  79.9625111  25.8735681
  16.8538761  57.0952892  15.5683076  17.2216392  56.2215328  15.4359090
  16.0110962  56.9384193  15.9941554   2.9567286  94.0100002   3.1959975
   2.5251937  93.1804466   2.9914248   3.3579546  94.2812538   2.3703641
  18.4481144  62.2082329  56.7594814  17.5544059  62.4928236  56.5683651
  18.8322294  62.9366207  57.2474766   3.4422705  93.4337044  31.3065624
   3.3056498  92.6217079  30.8184719   3.7056270  93.1462479  32.1807742
  23.5573101  99.4807434  37.5937796  22.8764272  99.4197083  36.9237757
  23.0963349  99.7811031  38.3770561   8.3890426  91.8171215  35.9679151
   7.9429221  90.9712791  36.0097480   8.0269474  92.2406578  35.1896214
  70.2408600   1.2823716   8.3138376  69.5568228   0.6385633   8.1299013
  70.2466679   1.8520615   7.5446486   1.7216790  80.1408958   0.3399745
   1.5610529  80.8728313  -0.2555974   2.6200685  79.8704576   0.1502623
  11.7649698  75.2783823  15.4228723  11.1178541  75.6215429  16.0390806
  11.3229883  74.5449591  14.9951100   8.4741551  40.5590057  61.2736225
   7.9770815  40.2296925  60.5248165   7.8160858  40.7014990  61.9539690
  19.9765575  77.7041578  55.1305866  20.3283501  76.8174696  55.0515223
  20.4955888  78.2234049  54.5164013  48.0042076  72.9694843  41.1745214
  47.4535084  72.3798466  40.6594610  47.3888445  73.4471321  41.7307711
  89.8467255  76.4863157  54.5402956  90.6667042  76.1208057  54.2082405
  90.1119137  77.2675562  55.0256491 114.7801018  82.2621441  38.6645484
 114.5383072  81.7754364  37.8765845 115.4951096  82.8330898  38.3834434
  21.7036867  64.3545151  47.6708698  22.0357704  64.2130947  46.7843294
  22.1785784  63.7207127  48.2084608  56.5240860  96.6971397  39.1464996
  57.2179556  96.7643356  38.4905553  56.0943127  97.5522518  39.1289783
 106.4992142  57.0613194  34.3929720 105.9308910  57.7946234  34.1573858
 106.5887547  56.5580750  33.5836744  33.3038330  84.5241833  34.0562034
  32.8617477  85.3720760  34.0994835  34.1116166  84.6495533  34.5542002
  26.7580175  65.0942421  31.3335299  27.0753312  64.2111397  31.5224028
  27.0356011  65.6148052  32.0873165  13.9160264  71.9523907  87.5965595
  14.5637918  71.3338280  87.9342270  13.0735588  71.5915251  87.8727150
  13.2181132  38.9793134  30.3176188  13.3287704  39.1530418  31.2523961
  13.7501216  39.6473265  29.8852324  16.9538558  99.0345764  42.4070168
  17.2723007  99.4820118  41.6230345  16.6110706  98.2010841  42.0845127
  47.1402884   9.7428554  55.8224297  47.9833698   9.8462957  55.3811264
  47.1805763  10.3501129  56.5612411   1.3873656 100.5277920  43.8760138
   2.0191795 100.6923389  43.1760359   0.6069583 101.0161686  43.6139297
  21.0421181  51.6352367  67.4372721  21.6999412  51.3737726  66.7929602
  21.4391661  51.4269972  68.2829762  10.3193021  54.1047764  43.5101986
  11.0504878  53.5116386  43.3376122  10.3871596  54.7733068  42.8285122
  12.1690893  47.0777369  57.7721167  11.7210782  46.2840652  58.0646896
  12.2592330  46.9668150  56.8256474  17.6262939  56.6885185  38.6969995
  17.6053810  57.2099447  37.8945589  17.1545625  55.8861446  38.4736156
  42.6795578  98.6816502  36.6152477  42.1337318  99.4331360  36.3837790
  43.5175657  98.8528919  36.1855340  13.2048714  80.0001526  43.8464260
  13.5991240  80.8711147  43.7993145  12.3842239  80.0821209  43.3605719
  33.2531834  38.1573796  69.4637394  33.1017423  37.6800942  68.6479616
  34.0511703  37.7699041  69.8233366  23.4069061 105.2815151  45.6499147
  23.1296778 106.1676884  45.8824253  22.7414441 104.9764347  45.0332117
  16.5485120  95.0614929  70.5465269  15.8424985  95.7056236  70.6000566
  16.2454724  94.4274330  69.8966312  22.1295476 108.9213943  34.4302940
  22.2175360 109.1326332  35.3597379  22.2167897 109.7636509  33.9839435
  61.6648340  86.9919872  72.1692038  61.6138172  86.5659142  71.3135815
  62.5618172  87.3223877  72.2191334  50.5855083   2.4336965  56.1113644
  49.8284197   2.3830444  55.5278540  51.3304901   2.5694788  55.5258799
  44.1024971  99.3395710  46.7620707  43.3054209  98.8096809  46.7512512
  44.7600031  98.7748909  47.1683359   9.6738768  76.0991335  28.0483437
  10.1847982  76.8985891  28.1750822   9.5559859  76.0379839  27.1004009
  19.1768277  77.1954584  49.5406580  18.9999104  77.1051073  50.4770136
  18.5078752  77.8046465  49.2282057  33.7027884  80.7550812  39.3138480
  33.3727551  80.4820156  38.4578419  33.6459732  79.9674559  39.8548269
  19.1685510  79.6697760  38.3546209  18.9003170  79.7746658  39.2674637
  20.0672603  79.3441677  38.4049654   2.4900863  42.4628639  33.8863158
   3.1020737  41.8684244  34.3203020   1.8586795  41.8853235  33.4573579
  26.5033960  83.2922363  36.9322610  26.4529061  83.1554413  35.9862328
  26.9447398  84.1360855  37.0290279  72.2694349  16.4371383  85.4585648
  73.0439568  16.9891202  85.3505898  71.5311813  17.0382893  85.3593922
  23.7894964  87.9716969  46.1452675  23.4448051  87.4992657  46.9030476
  24.1836929  88.7618828  46.5146589  15.0523353  71.4522028  69.5595694
  14.6794522  70.5999327  69.3341160  15.0310385  71.9471741  68.7405539
   0.2259574  29.7351837  64.0974522   0.3460974  30.6828022  64.0356827
   1.0367213  29.3675327  63.7457085 103.5372353  50.9140396  46.8643093
 103.8223457  51.7885017  47.1293879 104.0242386  50.7370567  46.0594845
  57.2169924  99.7578430  57.1105480  58.0882406  99.5626163  57.4555731
  56.6239452  99.2292595  57.6445198  47.5093794  97.1607590   7.1056652
  47.3730135  98.0928135   7.2756803  47.6463699  97.1073532   6.1598247
  49.6020889 101.4904022  29.6251225  50.1493502 100.7089615  29.5471597
  49.1443777 101.5469265  28.7863517   6.1976343  64.2792559  59.9390936
   6.3585073  65.1904821  59.6941090   5.5152565  64.3281221  60.6085777
  21.0983062  90.6356144  19.7492862  20.6058359  91.0221100  19.0251768
  22.0119905  90.6780148  19.4671261  47.9766560  98.0197906  30.4466319
  47.7674389  97.2030163  29.9934912  48.9195395  98.1280041  30.3221846
  17.2123396  75.9843159  23.3722687  17.7312922  76.7842674  23.2886052
  16.7516315  75.9092045  22.5366020  54.3927288  55.9975195  32.3811698
  54.9078894  56.5704966  31.8132472  54.5742416  55.1146936  32.0588207
   8.0323201  73.1769657  46.2850904   8.7844849  72.5974321  46.4060116
   7.4949932  73.0378962  47.0649433  66.7275715  71.1878252  35.0878906
  66.6374016  72.0468712  35.5003738  67.3668814  70.7271338  35.6312847
  26.7463970 100.3794765  38.3195305  25.8872247  99.9868107  38.4740376
  27.2953439  99.6495056  38.0331182  40.7598925  14.6676886  25.3334379
  41.4132547  14.7953379  26.0212302  39.9420857  14.5120156  25.8058691
  15.9642327  66.4394999  27.8678966  15.2524698  66.1652803  27.2895980
  15.6281245  67.2204113  28.3077168  67.8717566  58.2184696   1.3700604
  66.9174242  58.2922411   1.3633412  68.0403376  57.2820616   1.2654425
 104.2265415  48.1314659  52.7230787 103.3992004  47.6855707  52.5416708
 103.9674950  48.9833260  53.0744505  19.5056832  52.7449179  20.9674215
  20.2557111  52.5913477  21.5419698  19.5734954  53.6689091  20.7268453
  15.3478348  59.3718529  48.1036043  16.2750304  59.2632866  48.3151531
  15.2373934  60.3156376  47.9882669  45.7715416  58.7936258  42.5520563
  46.4490938  58.3226252  43.0371475  45.1739502  59.1157198  43.2268667
 110.5302238  56.1514139  18.4331310 109.6880531  56.5579462  18.2288671
 111.0851955  56.3595009  17.6815140  19.4399524  38.9812946  20.7147050
  18.9906490  38.7048888  19.9159813  20.3702545  38.8797951  20.5135417
 103.0961895  55.5738020  38.2800412 103.5085583  54.8266649  37.8464794
 103.4610462  55.5685091  39.1649604  58.3412695 108.0674648  28.4129834
  58.4264040 107.2136116  27.9888153  59.2420053 108.3352947  28.5951376
  31.8341231  67.6945829  44.1716433  32.4656844  67.9684877  44.8367310
  31.1862111  68.3989000  44.1521311 112.2591877  70.2473116  19.4619358
 112.4106789  69.9268675  18.5727811 112.2071552  71.1984825  19.3681169
  12.6072693  83.4409714  48.1006002  12.0981812  83.1620312  48.8616848
  11.9645393  83.5096359  47.3946142  24.0752292  73.8772011  60.2920151
  23.3307338  73.8441563  59.6912909  23.7368155  73.5192823  61.1127472
  71.3890171  17.7292311  39.2103624  71.1850309  16.8524349  38.8850141
  71.3440800  18.2888389  38.4350872  10.9816706  65.5423450  37.2093654
  11.8501675  65.4110765  37.5897765  11.0895431  65.3215694  36.2842393
  36.6316319 100.9619236  52.0560551  36.5195251 100.1192951  51.6159964
  37.0291018 101.5270805  51.3936043 111.2420177  64.3889475  54.4366646
 110.8514595  64.1810656  53.5878515 110.7287693  65.1286221  54.7617626
  95.1534939  80.9029198  52.0367432  94.5806789  81.6644382  51.9461775
  94.7930622  80.2583218  51.4278030  25.1595449  87.1237659  49.8687601
  25.2389216  86.1806297  49.7258902  24.2265940  87.2638035  50.0307083
  62.1291733  82.0841026  43.2998705  61.3714790  82.6404285  43.4805107
  61.7618752  81.2067795  43.1920338 116.5944386  74.4782019  47.0591164
 116.6361713  74.2955017  47.9977894 117.4283791  74.9041176  46.8607044
 113.7884617  94.4551659  66.0607243 114.1132641  95.2403927  65.6201029
 113.9424896  94.6213341  66.9907188   5.6431305  67.4659395  75.8556271
   4.9080682  67.8453016  75.3739643   5.3571892  66.5775394  76.0682631
  38.8720846  76.2557364  49.2560816  38.8723135  76.9028234  48.5507393
  39.2546535  75.4717779  48.8620281  37.9160404 108.9067745  39.9616528
  37.3334694 108.1472778  39.9632835  38.5841250 108.6947823  39.3097663
   1.3133910  60.7429934  38.7901759   1.8738532  60.6399775  39.5592666
   1.8233134  61.2913656  38.1939387 116.2996197  54.8276711  70.6371737
 115.4336929  55.0102854  71.0019541 116.8005753  55.6273985  70.7975054
  38.9917541  43.6389494  50.3548622  39.6667504  44.3033457  50.2163315
  38.9873576  43.4956884  51.3012695  14.1606176  43.3316994  17.1960950
  13.3588362  42.8509617  17.4016976  13.9214551  43.8915777  16.4574683
  19.6645904  46.1583233  51.6782379  19.0751863  46.8387175  52.0036650
  19.0879631  45.5292034  51.2447166  25.1731324  59.1350651   5.9008002
  24.3685746  58.6191130   5.9528691  24.8933315  59.9802446   5.5492091
  46.6417170  77.1607828  29.5103478  47.4163342  76.6309166  29.3220925
  46.5641165  77.7473450  28.7579155  39.4359064  44.0840054  83.5974216
  40.2133369  44.6010637  83.8083267  38.9037776  44.6632147  83.0519009
  80.6556797   3.3609393  20.3252506  81.5644264   3.5656816  20.5454683
  80.2517509   4.2126897  20.1591301  38.0365491  59.4418097  34.9834895
  37.8187513  59.0224934  34.1510415  38.8906431  59.0789557  35.2182102
  13.0294645  60.5175257   0.3600508  12.3911309  61.2271214   0.4324149
  13.1629860  60.4105997  -0.5817398  56.9051552  73.8684464  40.4017591
  57.8021479  73.5418749  40.3311110  56.9609880  74.7834349  40.1262426
  20.9170604 107.9259968  52.3120022  21.1864471 107.0859528  51.9405365
  21.6371512 108.1733036  52.8921223  25.7462931  47.8908300  16.8452537
  25.1134396  48.1329823  17.5213385  25.8650303  46.9474077  16.9551957
  36.3569856  94.8968697  28.6464810  35.7606459  95.2445316  29.3096113
  37.2043514  94.8470592  29.0888834  40.6638765 103.3409691  56.8851423
  39.8775530 103.6704636  56.4499903  40.3664351 103.0904484  57.7597857
  13.0288196  66.9463062  83.3981419  12.9675639  67.7390766  82.8652287
  12.2076786  66.9239807  83.8895321  44.2002296  94.1238499  23.2127571
  43.7064743  93.6991215  22.5113010  43.7943554  93.8044739  24.0186691
   0.4695693  77.0370245  56.0646772  -0.4406485  76.8949699  55.8047581
   0.6863829  76.2760687  56.6033506  96.3166237  64.5633364  22.0822668
  96.0930729  64.9339056  21.2284899  96.4937115  65.3246069  22.6348424
  11.4160609  53.6813688  23.6366367  11.0189915  52.9362345  23.1857038
  11.5547955  53.3731651  24.5321774 113.9766502 104.4984722  48.3280945
 114.5480442 104.7259712  49.0615702 113.2558060 104.0119553  48.7279797
   3.6791709 101.1623955  38.7662363   3.7053043 101.5524864  37.8925228
   4.0379950 101.8383598  39.3411684  77.6762199 108.3019161  48.7329817
  77.8944921 109.2077255  48.5136843  77.5352955 107.8778362  47.8864956
 106.1001587  94.8239136  36.0008979 106.5085793  94.0150928  36.3095045
 105.2955246  94.8969078  36.5141964  48.6634827  56.7874956  34.3443727
  49.5716143  56.5579653  34.1472793  48.7242842  57.6106310  34.8291206
  13.9562297  42.5498629  47.1740866  14.6984661  42.0348215  46.8577814
  14.2384541  42.8771925  48.0281591  11.6557407  44.3511868  37.0948339
  10.7680094  44.1848135  36.7778397  12.0546901  44.8948383  36.4154863
   9.8399216  90.6093979  33.3440495   9.4379836  91.3960361  32.9754138
   9.1998637  90.2886581  33.9794064  21.9028020  80.6370258  19.0884721
  22.3002219  81.5005302  18.9759314  20.9850025  80.7625198  18.8473737
  14.2949975  60.5245876  24.6707559  14.0374243  59.9945211  25.4250240
  15.2454066  60.6069899  24.7492671  26.1653686  81.4902115  53.4502792
  26.9128585  82.0579433  53.6378336  26.5438914  80.6147766  53.3692455
  34.8674703  60.4525042  11.1502039  34.4886947  60.9153652  10.4028630
  35.7528353  60.2242661  10.8668828  31.3952780  76.9169664  45.4380226
  31.7369938  76.0379744  45.2741909  30.5048442  76.8969822  45.0873613
 116.3612434  75.7044125  39.1158986 115.8624751  74.9098158  38.9259696
 116.8031425  75.5175781  39.9441791  19.5708692  53.1725168   2.7426890
  20.1822448  53.6741209   3.2819882  19.2110598  53.8133574   2.1294276
  29.3579412  99.7750664  32.0698595  28.7005115  99.3398476  32.6126289
  28.9514327 100.6050396  31.8206048  19.1758740  75.1826668  37.2400522
  18.9769161  74.7829151  38.0867195  18.3323276  75.5061197  36.9237638
   3.9897919 101.4298534  30.0236750   3.9576650 101.4631176  30.9797573
   4.7045246 100.8236504  29.8289871 110.3618813  77.8261995  94.9827385
 110.7166481  77.9087019  94.0975475 111.1317253  77.7088308  95.5393314
 104.2334557  45.8983850  76.1043358 105.1835346  45.7939625  76.0526466
 103.9553165  45.2453947  76.7465782  12.6807547  54.8558283  27.9413342
  12.3351991  55.4497194  27.2749162  13.3848643  54.3823481  27.4983025
 114.4271183  68.0374908  54.9151039 113.7623692  67.8940630  55.5887318
 114.4312859  67.2267580  54.4062567  11.4755237  60.3261948  68.1150436
  11.5688848  60.2176332  69.0614748  10.6244826  59.9378395  67.9122114
  52.5171471  69.6375465  20.3931451  53.3911133  69.2509222  20.4473829
  52.4256086  70.1373959  21.2043190  31.1077452   6.1410850  24.8980546
  31.7909670   6.3392466  25.5385017  31.5750813   6.0599524  24.0666413
 108.6721039  15.9399569  50.7096958 107.8667927  15.5460954  51.0452127
 108.7660027  15.5790699  49.8281193   3.0406219  67.5551033  40.8844233
   2.1290272  67.8204107  41.0062456   3.4453502  68.2918501  40.4265690
  13.0473959  83.6474228  44.6748495  13.2874262  83.5478687  43.7536001
  13.7492502  84.1799927  45.0490236  24.5955896  84.2652702  38.5526967
  24.9232936  84.6054745  37.7201700  25.2504921  83.6215496  38.8228083
  36.5126085 103.3013535  65.9448671  36.8675518 103.7989998  65.2082586
  35.5856180 103.1897354  65.7340145  41.8625975  98.6758423  39.8414397
  41.9425583  98.7737465  40.7902575  42.3191118  99.4369030  39.4828081
 112.6905155  42.2203732   9.6078378 112.6480770  42.9984760  10.1636994
 113.0508232  42.5371075   8.7795323  99.3582916  83.6617756  32.9571700
  99.4474220  83.4447861  32.0291591  99.7548103  84.5290756  33.0395079
  44.5756102  79.3885326  44.3287039  44.7393608  79.9559689  45.0819874
  45.4219294  79.3285608  43.8855553   2.4900174   4.9105623  79.9755192
   2.9452175   5.0624734  80.8037376   3.0858329   5.2518845  79.3086338
  35.0982332  91.7006111  65.4131794  34.5090079  91.9827175  66.1127901
  35.9607267  91.6639137  65.8266878  76.8500423  98.2852173  18.2497263
  77.3583984  99.0622139  18.4822631  77.0242786  97.6644325  18.9571917
  22.0067859 110.8572483  15.8333075  21.1364436 110.4670906  15.7526028
  21.9552374 111.6654110  15.3229678  27.8661609  90.3794670  25.3661942
  28.3632684  91.1625290  25.6026697  26.9499516  90.6389523  25.4634690
  -0.2038682   9.8609066  74.3588161   0.6090056   9.9538553  73.8619900
  -0.0156892  10.2682078  75.2043486  56.0940456  98.9369965  17.4887621
  56.8270493  99.5137978  17.7037883  55.3978872  99.5297813  17.2055650
 117.5822830  33.3370280  94.6303940 117.9346561  34.1130471  94.1946697
 116.6399384  33.3780336  94.4675064  14.6887124  17.8312659  76.4486599
  14.0257907  17.2790527  76.8631792  14.2048442  18.5992551  76.1448526
  89.1193104  76.2368059  20.0557733  89.7355461  75.9721947  20.7387590
  89.1920090  75.5532360  19.3896770  50.2900410  91.0755825  35.5886364
  50.4695511  90.5693722  36.3809514  50.2404070  90.4208088  34.8921943
  70.9431314  11.8055725  50.2755976  70.4178143  11.1123216  50.6751966
  71.7251587  11.3577199  49.9529648  87.7437687   7.3805851  46.3674164
  88.3917141   7.1095467  45.7170773  86.9919300   6.8097913  46.2087584
  18.2831347  91.4646244  13.7593901  18.9680886  91.9642544  14.2037237
  17.6447368  92.1235847  13.4865475  32.6659513  80.8021069  36.7759562
  32.4466658  80.9793091  35.8612180  31.8238163  80.6210232  37.1933889
  52.7416182  86.5750027  36.3069510  52.9376745  87.0365047  35.4915953
  51.7920256  86.4554501  36.2921286  24.8442221  73.0530119  51.6117191
  25.1469779  73.9602518  51.6502476  23.8913774  73.1154633  51.6781950
  59.2158270  81.9001484  26.6463590  58.3758259  81.9039822  27.1052885
  59.6122885  81.0606861  26.8794847  88.6311054   1.3850634  43.9272451
  87.9218292   1.1700331  43.3215046  89.1016293   2.1011533  43.5005713
  12.7119315  72.2312784  59.1182804  12.1168602  72.4203157  58.3927584
  13.5717654  72.5074005  58.8009930  45.5549860 107.5051308  56.4111853
  45.8645201 107.8350544  55.5676365  45.3367281 106.5882206  56.2442684
  20.4734612 100.0235176  43.9001274  20.3481269  99.1299534  44.2195892
  20.3086662  99.9667168  42.9589319  46.3904572  72.7558613  49.2670918
  45.8612728  71.9681549  49.3924427  45.8679152  73.4592628  49.6523380
  53.8523769  51.3348770  37.1779346  54.7703505  51.2708569  37.4414825
  53.7851954  52.1880865  36.7492747  65.1634455   4.5681173  41.9686365
  65.5008316   4.8692468  42.8122759  65.3909397   3.6388618  41.9375944
  33.9259410  71.6078997  35.4318166  34.4810796  72.0880318  34.8173857
  34.2124462  70.6980085  35.3527904  16.9394851  79.1130495  80.8165836
  17.2907853  79.8770905  81.2738132  17.6972425  78.5431290  80.6853199
  49.3766642  92.5944901  25.4535818  49.0658188  92.3580647  24.5796776
  50.1827717  92.0906067  25.5655122  12.6918101  92.3890305  19.8609006
  11.7883718  92.7047157  19.8800647  13.0360985  92.6989269  19.0232503
  88.1637192  79.9724865  60.2275753  87.6196671  79.9000072  61.0117817
  88.0909443  80.8914089  59.9696636  54.7088099  94.0188026  24.5806551
  53.7834978  94.2623615  24.6071911  54.7609663  93.3500576  23.8977981
  33.8429403  91.5858364  42.9835176  33.9834142  90.6558323  42.8057671
  34.6113539  92.0193768  42.6122904  34.9174929 105.5078793  21.7669702
  35.4646754 105.2218533  22.4984145  34.3357015 106.1665440  22.1463275
  34.2032886  72.4922895  43.1791449  34.0360165  71.7679882  43.7821674
  33.8775516  72.1809435  42.3346376   8.2492501  65.0063038  38.5775852
   8.9602959  64.3663979  38.5434866   8.4421194  65.6168032  37.8660178
  13.2454622  80.9456062  73.1111336  12.2927821  81.0351944  73.0865049
  13.4779251  81.1098194  74.0250444 105.3855419  57.4501848  27.9417467
 104.5632839  57.3646832  27.4592471 106.0135269  56.9318628  27.4385476
  48.3494473  84.6326923  19.9400902  48.2002354  85.2155304  20.6845784
  48.3346128  83.7532330  20.3176761  35.0345469  89.4196892  44.9914455
  34.4461656  90.1644611  45.1153326  34.5575738  88.8326168  44.4048643
  51.9915628  77.1845675  46.3163137  51.5842390  76.3201141  46.2612247
  51.9449377  77.4125719  47.2447920   3.1942242  87.4013805  20.2614665
   2.8652576  88.2350159  19.9252248   4.1421920  87.4508095  20.1383996
  65.3399563  88.6141109  49.1457176  65.4235649  88.8255215  48.2159090
  64.8878002  87.7705574  49.1598272   4.6831244  88.7061977  37.0187640
   4.4652081  88.0935192  37.7211642   4.3511003  89.5499897  37.3253751
  28.1886673  92.6745033  47.2587872  28.6656022  93.2687473  47.8381300
  28.4899426  92.9039574  46.3796902 107.6586151   1.1531842  65.4205132
 106.7302132   1.1799555  65.6519985 108.0804062   1.7329642  66.0546923
  45.1000452  62.2945118  36.1550188  44.6146107  61.8484163  36.8489838
  44.4271421  62.7402925  35.6405139  64.1394186  74.7676945  46.7534590
  64.1718674  74.4839334  47.6670504  63.9444304  75.7036591  46.8001509
   4.3471369  90.3738308  40.0028467   4.6027032  89.5363617  39.6161175
   4.1296417  90.9275150  39.2529321  41.6167688  85.1397514  50.8751249
  41.0902119  85.6561279  50.2649403  42.2123337  85.7742214  51.2738419
  42.4700356  95.0525665  29.8739767  42.6474333  95.2091789  28.9464879
  42.0684624  94.1839981  29.8976946  72.1929502  16.8316627  51.1067629
  72.1705103  17.5054145  51.7863131  72.7272797  16.1313736  51.4813519
  11.6509390 103.9988708  17.0064259  12.2940183 103.3326721  17.2490346
  11.2862599 104.2947388  17.8405166 112.6308537 106.4592361  44.6113968
 113.4872341 106.2500954  44.9843645 112.6635742 106.1048031  43.7228346
   2.3137310  73.2466316   9.9620491   2.7787939  72.7863932   9.2633897
   2.2995189  74.1607761   9.6785414 104.4377899   2.7646488  33.2050848
 103.8483715   2.3527977  32.5732636 103.9855099   2.6808086  34.0445185
  17.7124202  87.9838657  31.4468217  18.5307765  87.4874115  31.4542961
  17.3228121  87.8163528  32.3049450  23.2425141  64.3880653  45.2173424
  24.0949106  63.9590693  45.1424265  23.1819606  64.9385023  44.4365835
 102.4331665   2.8378618  69.0578127 101.9058704   3.6143130  68.8698959
 102.6375580   2.9071006  69.9903727 111.5332985  35.9891820   9.4001514
 112.0120907  36.2685800  10.1804912 111.3885689  35.0520349   9.5306957
  48.3411455  83.8833523  32.9667187  48.8654184  84.6690369  33.1218433
  48.3298540  83.7871075  32.0144367  14.5677626  71.0326099  26.7896843
  14.7325814  71.9330740  27.0693803  15.4252458  70.6089973  26.8285036
  62.7124119  46.4290857  16.4801526  63.0979395  45.7581806  15.9166908
  62.9655409  46.1717176  17.3666728  57.4768877  82.2504997  35.0261784
  56.5544653  82.2843456  34.7727442  57.7247095  81.3337326  34.9063516
 101.0382175   5.9426117  69.7399282 100.6755543   5.2306223  70.2669764
 100.7131004   6.7398423  70.1582050  22.1184206  60.3563595  37.8284359
  23.0196381  60.3078365  38.1473136  21.7670941  61.1541653  38.2237959
  37.5120068  96.6298771  44.1641283  38.2474709  96.0201168  44.1049194
  36.9040895  96.3386154  43.4845448  38.5665894  67.2048330  26.1713314
  37.8991628  67.8909492  26.1675978  38.6074328  66.9054794  25.2630639
  43.2688665  15.7321012  60.7585526  43.3492470  14.7996986  60.5575657
  42.3285675  15.8731341  60.8688927  60.7837486  73.0843735  53.3530378
  61.6481352  72.6906443  53.4715319  60.9429502  74.0274906  53.3906889
  34.2038131  79.1424942  25.7993126  33.8461328  78.4197378  25.2836418
  34.0457940  78.8890553  26.7087245  34.2465115  86.2646484  45.8282375
  33.4458256  85.9503555  45.4082966  33.9663935  86.5424156  46.7003679
  30.5029249  91.5170956  18.8568270  30.5169177  91.7590904  19.7828281
  29.9744821  90.7195950  18.8256395   8.5676408 107.7878761  80.6481361
   8.3471781 106.8627834  80.5393410   8.4527922 108.1656170  79.7761536
  83.2079601   7.1563947  52.0395374  82.6836300   7.7952743  52.5223875
  83.1989384   6.3737220  52.5905085  19.0952408  88.6304951  21.7970800
  19.2044759  89.4867992  22.2106647  18.2266366  88.3394814  22.0746922
  25.8044934  63.7059498  58.3858347  26.6210318  63.4037256  57.9881430
  25.4174900  64.2840672  57.7283812  25.3828192  60.3200722  38.5855794
  26.0955286  59.6816635  38.6123657  25.5685759  60.8541536  37.8132582
  59.1409969 111.0844231  30.0455689  59.7412205 110.3510666  29.9108362
  58.8049746 111.2826157  29.1714740  48.0712652  86.9793415  12.9704583
  47.8854799  86.6130733  12.1058393  49.0146065  87.1415234  12.9642141
  51.3070869  87.6501846  13.7909222  51.6762638  87.3217487  12.9711211
  51.0371923  88.5463047  13.5900259  64.5230389  16.2220597  81.7014694
  64.5728397  16.8264723  82.4420357  64.5086098  15.3529096  82.1022224
  95.9074593   4.6986690  78.6512995  95.2390862   4.0612197  78.3999681
  96.2736797   4.3533319  79.4654608  26.2482357 104.7450447  61.7815638
  26.2992191 105.0404358  62.6906157  26.3450551 103.7941456  61.8329287
  56.3293219  70.1521015  44.6790695  55.8963633  70.1604033  43.8254261
  56.2391233  71.0486221  45.0021029  54.2636490   6.9037288  36.8155503
  54.8909426   6.4386153  36.2620139  53.4126186   6.7249459  36.4155269
 101.5366840  42.3960638  95.2181149 102.4121666  42.7691746  95.1153851
 101.1770439  42.8373480  95.9876347 115.7939053  96.7759323  39.7661567
 116.1464310  97.2321892  39.0020943 115.1524830  97.3841381  40.1334476
  83.8032532   1.1067817  13.0909240  84.3493366   0.9810513  12.3148930
  84.2728329   0.6523895  13.7903976  54.2013931  78.1091595  55.5313492
  54.7494268  77.3768806  55.8135939  54.8133183  78.7245512  55.1275253
  44.4815588 102.7151394  20.6065893  45.3499222 102.3734760  20.8197665
  44.1463327 102.1172714  19.9384522  10.2260447  93.3214378  42.1414042
  10.3159046  92.5199223  41.6259146  11.1084318  93.4957981  42.4688530
   1.8935159  64.2041492  36.8417573   1.9526567  63.2717371  37.0499492
   1.4935926  64.5978069  37.6172090  44.0686464 105.0522232  53.8223600
  43.5076284 105.6050301  54.3663216  43.8485241 104.1578197  54.0828085
   2.9670250   9.9712844  96.5304948   3.2965767  10.8181185  96.2296600
   2.6720822   9.5319743  95.7328448  56.2827349  98.7661839  25.3283763
  56.1531401  99.6964550  25.5128479  56.3518858  98.7184429  24.3748713
  32.7387452  65.0806141  47.2138357  33.3275294  64.7586203  46.5312767
  32.8801274  66.0272455  47.2251129  15.2621949  94.2301655  45.1936245
  15.0956857  95.0260735  44.6886158  15.6634831  93.6283112  44.5667505
  57.6721811 106.8325424  86.0525227  57.5345707 106.7735004  86.9979382
  58.1264448 107.6658630  85.9281921  36.5417743  53.4820938  51.0741568
  36.4090276  53.7522507  50.1655197  37.1137190  52.7168131  51.0153818
  87.3754406  77.6183891  46.3383722  87.8180599  77.2547579  47.1052456
  87.6474190  78.5359001  46.3175011  38.0620146  79.3573332  45.5391216
  38.0675578  79.9413633  44.7807646  37.8703809  79.9304771  46.2814283
  39.0234208  72.1471643  25.2218795  38.3678937  71.9655323  25.8953214
  39.5906758  72.8116941  25.6128430  18.4722948  96.9593239  31.9191098
  18.5151005  97.6314926  32.5992489  18.2886970  97.4441433  31.1144519
  33.8723063  84.8395157  22.2589207  33.4891272  84.8883724  23.1347179
  34.0280342  85.7517624  22.0143962  43.1787968  91.9853973  49.7447968
  42.2720861  91.9123745  49.4468403  43.4105873  91.1002254  50.0258255
  20.9444141  71.1089945   3.1415674  21.4465356  70.6363773   2.4776891
  21.2231660  72.0200348   3.0491608  18.7295997  90.1242161  46.6963816
  18.4463859  89.2542458  46.4150286  19.6075141  90.2212524  46.3274860
  59.3195581 103.7028408  53.0521488  58.8549662 104.0175915  52.2767019
  58.9846611 104.2431831  53.7677622  14.7558701 103.8656998  48.1906176
  15.0215149 102.9474258  48.1411552  14.2490613 103.9251232  49.0004587
  56.7356682   0.6780384  51.0448551  55.8700216   0.9939239  50.7858086
  57.3204303   1.4170120  50.8769035  31.6553068  92.9752731  69.9872303
  31.7830706  92.6650906  69.0907431  31.1894345  92.2618771  70.4234076
  60.9233522  37.4370480  90.1293087  60.2811289  38.0698180  89.8077774
  61.2202597  37.8000832  90.9637451  38.2083392  69.6469450  42.1576214
  38.2319140  68.8545084  41.6212273  37.6464009  70.2494097  41.6702938
  46.7000008 104.4587517  52.8442383  45.8373308 104.0648174  52.7144527
  46.5180206 105.3827000  53.0158043  76.8871784  10.5634272  89.3121243
  77.2520828  10.6291664  90.1945972  76.2610197   9.8413765  89.3650436
  56.5599918  91.2156487  43.3905315  57.1676970  91.2141991  44.1300726
  56.1087132  90.3735828  43.4497023  35.0143719  71.8387175  38.5122967
  34.6287847  72.6823902  38.2761312  35.8496022  71.8179512  38.0451894
  13.7441516  97.6886368  73.2568169  13.7927938  98.5990715  72.9653120
  14.6160710  97.5016212  73.6046839 116.6044712 109.2425823  33.4314013
 116.9851875 108.4193420  33.1255150 117.1592522 109.9208069  33.0460906
  18.1716347  98.7799358  29.5923305  18.6158514  98.6945534  28.7487578
  18.5720801  99.5493793  29.9970984  19.2668700  91.0946178  23.5844946
  19.5786715  91.9394684  23.9088964  18.7241805  90.7510281  24.2941904
  52.0561457   9.5963365  37.2687817  52.9713154   9.3750942  37.4412680
  51.7456961   8.8985562  36.6917586  23.5297418  76.0144615  54.4008255
  23.4995031  76.9480133  54.1915560  23.6628914  75.9855795  55.3482771
  53.8549280 104.3736744  21.1019039  53.3117342 103.7740612  20.5903983
  53.5077858 105.2425957  20.9001613 111.9783688  51.9826460  32.8430319
 111.1906433  52.3450375  33.2484794 111.6822529  51.6576052  31.9927979
  11.4938974 100.4481983  29.3551779  11.1939025 100.6973743  28.4810257
  10.7165062 100.5301762  29.9076033  25.2311993  77.8289557  15.7875419
  26.0626197  77.4933243  16.1226928  25.2252197  78.7516117  16.0422957
  24.9931550  89.3054390  35.2794981  25.3787088  90.0437546  34.8078251
  24.0772915  89.5535946  35.4053593  17.3825037  40.4822969   3.6565584
  17.2416747  41.0633087   4.4041023  17.2274196  41.0353231   2.8908283
  31.4619470  54.3490982  37.4866605  31.7849278  55.1873636  37.8171468
  32.1177125  53.7115860  37.7691150  40.2034712  89.2147350   0.3387599
  40.2854443  88.2933140   0.5847220  39.7593522  89.1977310  -0.5090035
  26.4203668  70.5406904  21.0369921  25.9152889  70.9615326  20.3412795
  26.1630654  69.6196222  20.9961605  83.8627815  33.4179521  38.2369995
  84.5826912  33.3190012  37.6139593  84.2928314  33.5115004  39.0870237
  29.1682768  90.6656837  58.0397129  28.4102178  90.1078224  57.8654242
  29.3928576  90.4862213  58.9527273  42.1108770  80.6635952  34.5850229
  42.2574043  80.4238129  35.5000448  41.1635017  80.5931759  34.4677281
  34.1625857  74.1699314  27.6590323  34.0254450  73.7999582  28.5311246
  34.5208621  75.0423527  27.8225970  18.4144914  71.4650536  24.2106748
  18.6720729  71.4302874  23.2894373  18.5938025  72.3672104  24.4756246
  34.1840124  80.9796238  16.6931462  33.8967609  80.7016087  15.8234191
  35.1379347  80.9055328  16.6653728  13.1957042  88.0047131  25.3520370
  13.9533913  87.9389095  25.9332514  13.4437358  87.5004578  24.5771575
  24.5261335  87.4776554  37.1335244  24.8029518  88.1701851  36.5335178
  24.5933914  86.6735744  36.6185832  36.0010338  97.0462132  10.0333226
  35.7138062  96.4880371   9.3107051  35.6613874  97.9141331   9.8151809
 114.0293026  34.7088981  71.8061972 113.7495232  33.8005209  71.6930294
 114.3408871  34.9731588  70.9405708  25.6745148   7.0083296  95.6059456
  25.1752591   7.8238308  95.5619621  25.9761786   6.9608027  96.5131187
  36.7021799  63.6472368  40.2481270  37.6345468  63.8403320  40.3462839
  36.2640953  64.4752550  40.4448462  47.3486328 110.9627247  30.0396538
  46.9149780 110.5690384  30.7967448  46.7878580 110.7360649  29.2977715
 109.0088081 108.3845043  55.8567095 109.0033245 108.3705139  54.8996258
 109.9369049 108.3895302  56.0908604  63.2667685  15.3401089  69.3750048
  63.8285160  14.6889138  68.9547443  62.9902554  14.9260426  70.1925135
  58.5915709 102.9600620  18.7003529  59.0848446 103.7791348  18.6552799
  57.9161692 103.1231403  19.3587339  69.8247862  20.3356218   5.3496397
  69.3899488  19.5061255   5.1519430  70.6727314  20.0808144   5.7133621
 117.5648022   3.2567120  69.5899725 116.7297173   2.8214899  69.7615290
 117.6645756   3.2171199  68.6388063  50.8945704 103.0415249  22.5611401
  51.3078737 102.1791744  22.6030874  51.4787626 103.6116791  23.0610132
  16.4426053  91.1262894  55.0737286  15.9958458  91.4031887  55.8737087
  16.5079558  90.1746178  55.1530457  31.3274121  91.3089561  36.0210633
  31.6724110  90.5372238  35.5720353  31.4376879  92.0215797  35.3915858
  36.7310572  96.7935181  63.7065744  36.8513703  97.2889423  64.5167065
  35.9867692  96.2188625  63.8855362  12.5287306  96.9502449  21.0767794
  13.4175062  97.2766018  20.9360552  12.5093281  96.6987514  22.0001459
  89.3847942 105.5076981  23.5379601  88.5800266 105.8282852  23.1307554
  90.0877380 105.9292507  23.0436039  75.7616806  20.6606197  20.9255433
  74.8690367  20.3479791  20.7783413  76.2936783  19.8651469  20.9464145
  53.4792137  90.9689426  45.1505327  52.9542971  91.7188835  45.4303169
  54.1567087  91.3466835  44.5896912  20.5579138  87.3898888  80.6069660
  21.1843681  87.7292824  81.2461758  19.9592912  88.1195927  80.4475403
 100.2019405  10.8353734  38.1370711  99.8442650  10.1099110  37.6252055
  99.4891644  11.4728582  38.1795192  51.9077015  83.8259125  39.4016171
  52.2395229  84.7212410  39.4688559  51.9555759  83.6222553  38.4675598
  72.4527168  93.9883041  32.8710723  73.0893135  93.3473492  33.1875277
  72.3442888  93.7801361  31.9430971 111.8770504  22.2425961  31.7834759
 112.1277237  22.3372936  30.8645487 112.4864292  21.5919590  32.1321416
  54.6834517  80.9678841  45.7178497  54.9138880  80.8390141  44.7977829
  53.8059235  81.3494492  45.6937981   3.1889224  60.4015827  52.8300905
   2.4421906  59.8053360  52.8858805   3.4981942  60.3143978  51.9284344
  59.7862387  64.7559357  37.8533792  60.0451422  65.5348873  37.3609996
  60.5300236  64.5783281  38.4291172  31.7474914  83.2730293  43.6196947
  31.2574458  82.5111580  43.3104324  32.2745347  82.9401016  44.3460608
  68.8673008   1.3277672  37.7200174  69.3356860   0.6223057  38.1663036
  69.5583117   1.8854378  37.3626089   9.4087464  80.7520008  20.7934713
   9.7005612  80.9205246  19.8975515  10.1571739  80.3280163  21.2133861
 100.5448246   7.4132854  45.2323818 101.2968540   6.8936187  44.9484301
 100.3114796   7.0499837  46.0866642  49.6830273  81.7872906  27.7236867
  49.7728872  80.9556866  28.1890655  48.9867401  81.6307640  27.0857882
  60.7939148   0.3233410  34.2382884  60.3157377   1.0863162  34.5630169
  60.1122904  -0.2701379  33.9229965  64.9930286  76.1915684  18.7552583
  64.7682333  75.8800316  17.8785360  65.9235525  75.9883404  18.8503814
  68.7788677  93.2550430  32.2182536  69.3509626  94.0042496  32.0520282
  69.3756533  92.5473213  32.4616027  22.4317813  67.3708677  42.1343994
  22.2627640  67.5402546  41.2075901  22.6862478  66.4486837  42.1668148
 104.5841694   1.4762484  67.9926395 105.3933811   1.5578473  68.4973764
 103.9396191   1.9791582  68.4904957  36.7551470  73.8384533  63.0370569
  36.6636539  73.2983971  62.2520733  37.4214983  73.3914566  63.5589743
  54.3173552  85.8716202  47.0018578  54.7309256  86.6920471  46.7333651
  53.3789587  86.0333443  46.9044876  67.8195524  17.9431844  36.3207436
  68.4881878  17.3657644  36.6891766  67.0200682  17.4168336  36.3244843
 111.4844608  86.7143726  27.1588111 112.3832703  86.5112972  27.4179101
 110.9451199  86.3548279  27.8631330  48.6809921  85.1614189  59.9204636
  48.4633636  85.9178734  59.3758106  47.8444433  84.8894215  60.2978706
  21.6762543  85.3692818  29.0087652  21.2396932  85.4988670  28.1668329
  21.3708711  84.5127296  29.3075776   9.8694307 101.2047577  35.5515790
   9.4601035 101.9938755  35.9065056   9.2590153 100.8994579  34.8804450
  45.5005646  85.6520653  40.7020903  45.8316898  85.8053303  39.8171616
  45.0248289  86.4530563  40.9218836  34.8684478  99.0044975  43.5215473
  33.9807248  98.7752914  43.2465172  35.3888130  98.9512539  42.7199125
  33.8195705  92.5257015  13.0610836  34.6314955  92.9680157  12.8133595
  34.0229201  91.5932083  12.9880631  36.7501450  59.3981981  53.1786537
  36.9037271  58.7693071  53.8837385  36.4011168  60.1724768  53.6201334
  43.0093956 107.7851963  23.8311648  43.2765722 108.3562565  23.1109333
  42.0565462 107.8703880  23.8635564 111.1424541  74.1911936  52.0513773
 110.7817650  73.4672928  51.5394211 110.4855537  74.8839760  51.9824171
  22.1678805  77.6378822   3.4018600  22.6137495  77.3542118   2.6037595
  21.4455724  78.1839418   3.0915046  56.9282722  84.0472889  61.2984037
  56.4862776  84.8400688  60.9944725  57.2455263  83.6282825  60.4983950
 109.8521996  50.6450558  84.1077232 109.8644829  50.1613617  83.2818127
 109.1515446  50.2351427  84.6149540  66.6842127  81.4611149   9.9581391
  66.5472364  82.4036694  10.0532627  65.8101845  81.0816574  10.0493526
  48.5723543  78.3476973  38.0333447  48.4094095  78.4687138  37.0979118
  47.8888941  77.7414989  38.3190632  77.6410151  74.9436760   7.5280654
  77.5816011  75.7679367   8.0110693  77.0596027  74.3472433   7.9997259
  42.4992609 106.3619900  55.5621243  41.5683699 106.5423393  55.6931019
  42.8750849 106.3916683  56.4419603  60.4264784   4.5955497  42.0814085
  61.3739395   4.6214494  41.9477034  60.3162193   4.6703684  43.0292892
 100.3908920  45.8584261  74.5315123  99.8947525  46.1723757  75.2874947
 101.1878395  46.3886213  74.5310879  50.4738712  84.3898487  28.0601501
  50.2424479  83.5469723  27.6699853  51.1256552  84.1741467  28.7271452
   3.6833572   4.5442703  88.1038380   2.7281713   4.5160002  88.0485916
   3.9704663   4.7085387  87.2056103  48.3817911  65.9073210  40.5839014
  47.8221416  66.0934734  41.3378096  47.9248524  66.3045549  39.8425221
 101.0516644  43.6553431  84.2963123 101.8947601  44.1069555  84.2579460
 101.2774849  42.7252245  84.2858696  26.8579102  95.5265141  24.6579552
  27.5473166  96.1904716  24.6471071  26.7556357  95.2724266  23.7407780
   8.7517613  74.2003107  56.8528223   8.9715004  73.5257006  56.2102890
   9.5767790  74.3791103  57.3040533   3.9087746  85.1824856  54.8402119
   4.1235769  85.8592796  54.1983128   4.7581148  84.8670387  55.1490021
  25.6071162  53.7680292   5.3054971  25.6780171  54.6924496   5.0674671
  26.4868140  53.5273838   5.5961037  98.0687237   5.3944355  36.8354678
  97.5955105   5.2363878  37.6523638  98.9434433   5.6655872  37.1139932
  13.3994305  51.6691637   3.2353354  13.6822152  52.4968529   2.8464934
  12.7612007  51.9233656   3.9018762  44.6059513  81.1038876  12.3334372
  43.9054060  81.7551804  12.3692143  44.2129612  80.3093338  12.6946545
  28.9717555  70.8759642  50.0539637  29.2010641  71.5456390  50.6983137
  28.3492017  71.3088655  49.4697952  38.4591961 105.8840752   8.1599146
  38.5259724 105.1170540   8.7286460  38.9485955 106.5663528   8.6194974
  61.1693287  10.6935072  36.4480305  62.0655680  10.6206656  36.1198783
  61.0177851   9.8718852  36.9151521  73.6648512 100.2709866  38.7208080
  74.5593834 100.3360081  38.3864164  73.3255005  99.4605350  38.3410263
  62.4953413 107.9211807  80.0245667  63.0659866 108.6419678  80.2911377
  62.9458237 107.5216579  79.2804718  86.5788257   1.2311123  37.8454638
  86.1258209   0.3879211  37.8382730  86.2762201   1.6587494  38.6465764
  18.2616782  73.8572836  47.4249792  17.6501942  74.0186787  48.1435013
  17.9647613  73.0335712  47.0382452  49.7568226  86.5070438  18.3486652
  50.3508663  86.6436100  19.0866995  49.2616463  85.7217789  18.5818982
  88.1305599  27.6231337  38.7963152  87.9666233  27.5248075  37.8583980
  87.2920036  27.9109955  39.1571426  45.5813789  99.1630745  36.1648536
  46.4007044  99.1707230  35.6699991  45.6867456  98.4472466  36.7915273
  13.4738839  83.7048912  51.7660713  14.2331564  83.8271904  51.1961746
  12.8272784  83.2666397  51.2128353 105.8173656  14.4901919  13.8670969
 105.4409885  15.3636003  13.7587655 105.3876686  13.9593542  13.1964183
  79.5981646  31.4663482  29.8091722  80.3295898  31.0460377  30.2614903
  78.9697123  31.6651273  30.5032659  79.3026400   3.4712178  34.4902992
  80.2566910   3.5447985  34.4657874  79.1166592   3.0457854  35.3273487
  56.9524527  76.7807579  29.4756699  56.2634182  76.3507175  28.9691782
  57.7599096  76.3493586  29.1961265  41.8184912 111.0970728  13.5609603
  41.3254130 111.7083649  14.1081583  42.5636351 111.6072107  13.2435465
  94.7170067  20.1661396  32.8584599  95.1934147  20.8881593  32.4486351
  93.7973690  20.4268193  32.8080773  75.5213499   8.1222987  17.1784437
  75.2552128   8.1170374  18.0978858  76.4624166   7.9487062  17.2004986
  22.9153252  86.2208271  39.1785073  23.5673046  85.5294609  39.0637469
  22.9518270  86.7220783  38.3638620  76.7228031   0.9806493  56.9553804
  76.5086842   0.9683529  57.8882408  76.2916756   1.7671406  56.6210318
  24.2140126  99.6538734  12.4902487  24.4116354  99.7182941  11.5558910
  25.0705218  99.5852089  12.9120398  11.0819817  91.2554359  40.5972862
  11.6243267  90.6803703  41.1370945  10.7904112  90.7002640  39.8740935
   7.5217754 105.2568340   9.9990791   7.0287210 104.9026299  10.7391274
   7.2531569 106.1742210   9.9494016  64.3775034   4.9082690  23.7727475
  64.8805285   5.5802518  23.3127069  65.0287390   4.4325852  24.2883492
  31.1073971  69.7798014  61.5275526  31.2553406  70.5976629  62.0023632
  31.6464901  69.8588562  60.7405567  68.2700300  82.3202991  69.9622631
  69.0904856  81.8496132  70.1090574  67.7488375  81.7293644  69.4187641
 114.4549751   5.4712647  48.6335945 113.5196877   5.4375917  48.4327602
 114.8419571   4.7867984  48.0877161  93.6752605   6.9976300  45.3361845
  92.8510952   7.3174083  45.7032442  94.0876961   7.7752817  44.9601746
  15.0337291 107.2094917  31.9406939  15.7857621 106.6871929  31.6616035
  15.2874374 107.5568008  32.7958155   3.6952651 100.3522396  24.3781495
   4.1396540 100.5372810  25.2055001   2.8527814  99.9788570  24.6370721
  37.8238034  68.7964249  34.2312837  38.1108236  68.0746078  33.6719680
  38.5693693  68.9637899  34.8077846   2.0232493  23.4493637  33.8972998
   1.0972838  23.4008908  34.1349339   2.4430168  23.8616681  34.6523046
  26.2894344  89.1692543  54.5314121  25.4980922  89.7031593  54.4610548
  26.5653086  89.0293789  53.6255646  74.1297913  95.6416798  29.7087026
  74.8477840  95.2824783  29.1874671  73.8487482  96.4188957  29.2258024
  70.4421043   0.4875742  10.8657181  70.3721857   0.6091708   9.9188507
  71.3120461   0.8203740  11.0863459 100.2841091  76.0801935   7.3164606
 100.0263119  75.2158117   6.9961160 100.0631523  76.6764736   6.6010201
   2.1010368  69.0184593  89.7201538   3.0200785  69.2848444  89.6950245
   1.6222787  69.8268366  89.9033165  64.3248272 105.0829411  26.8668866
  64.8688459 104.8351288  26.1193180  64.6449995 105.9489155  27.1194935
  46.7057943  88.7112236  66.5178061  46.9975138  87.9496193  66.0167265
  46.1273527  88.3490944  67.1889973  38.9722466  83.9458656  54.2324734
  39.4550657  83.8430214  53.4123898  39.6504760  84.0795422  54.8945713
   3.3220237   5.2635235  33.7751079   3.1879300   5.1009464  32.8413939
   2.9995012   4.4713759  34.2048907  43.4077930  74.4316244  45.4306269
  43.5902834  74.1330194  46.3215637  42.5707483  74.0240765  45.2081633
   5.3788561  95.9989452   9.5707393   5.5497646  95.2995872   8.9399278
   4.4345140  96.1453915   9.5159572  67.0269156  10.0599074  61.8146896
  66.4261436   9.7310448  62.4833822  66.5664530  10.8021498  61.4231825
  90.7033348  93.3743382  32.0578766  90.7334137  94.1919804  31.5610981
  89.7747040  93.1436157  32.0833993 108.9411259  11.1912692  28.3779192
 109.1139793  11.9267058  27.7901387 109.6181965  11.2584853  29.0511823
  46.0653830 110.5084896  85.0750828  45.2793264 109.9636555  85.0363827
  46.5612459 110.2694988  84.2919922   7.0722717  39.5056295  92.4179554
   7.5290906  38.7064600  92.6804066   6.8763286  39.3757796  91.4900684
  93.4992409  13.0965233   9.1730213  94.1239929  13.2666075   9.8779905
  92.8448486  12.5196028   9.5669377  43.1275320  84.7064304  41.5103531
  43.9461088  84.6828747  41.0147667  43.3031464  85.3073120  42.2344637
  27.5357151  88.2153511  41.4796972  26.6274142  88.4952641  41.5931559
  27.5559282  87.3223877  41.8238354  73.7564898  11.9314706  31.2746501
  73.3094883  11.6665792  30.4707503  73.4577847  11.3038349  31.9327402
  68.8299131  22.8321242  56.4425898  69.5580149  23.4515476  56.4917803
  69.0537548  22.1487236  57.0743227 100.1545715   1.1220989  40.8346653
  99.9706841   0.4045433  41.4409113  99.5659733   1.8249752  41.1099005
  49.1285610 109.1329956  43.6926842  48.2320023 109.2387104  44.0108585
  49.0776968 109.3409157  42.7597237  33.2003117 103.9006996  41.6576290
  33.1398821 104.4630432  42.4298573  33.1091738 104.5002270  40.9170246
  30.1120949  91.4309692  13.9536572  29.8263121  91.1093616  13.0985951
  30.4292583  92.3176861  13.7822676  41.2280273  19.7379565  14.6911693
  40.9777403  20.3475332  13.9969039  41.6961288  19.0371490  14.2373157
  30.1167965  84.7949696   1.9272614  29.3306208  84.3256378   2.2063410
  29.8122740  85.3821182   1.2353387  35.6100273  93.8008404  22.5156999
  36.0381198  93.5874271  21.6865873  35.5064654  92.9571915  22.9558921
  28.4895873  81.1747169  29.2906380  28.1424761  80.9037018  28.4407568
  29.4379544  81.2030220  29.1640353  53.0692768  63.0047703  42.1192789
  53.0966282  62.4463701  41.3423157  53.9577341  63.3526897  42.1955824
  29.6315813  19.2335165  47.2089434  29.8868895  19.3715429  46.2968063
  29.0358829  18.4848154  47.1802568  33.6447716  92.4237823  28.6400628
  32.9188991  91.9007683  28.2997632  33.4912777  93.3019447  28.2915092
  57.1939468  75.2353144  46.5131760  57.7294827  76.0259533  46.4474392
  56.5143204  75.4585648  47.1491766  77.3468018  88.7525177  16.4006734
  76.6429949  88.1111717  16.3028502  78.1386328  88.2250309  16.5055633
  67.9873610   6.6912448  11.4508462  67.1712160   6.1982250  11.3667858
  68.2942104   6.4972913  12.3365426  35.2815795  28.0059648  33.7496877
  35.6552887  28.3952212  32.9590845  34.3555975  27.8823471  33.5411048
  61.4705467  61.5638065  54.1374350  61.9725800  60.8564425  54.5421886
  61.7280197  62.3480082  54.6221638  81.6918468  13.1164849   7.7533621
  81.8453979  14.0450406   7.5788993  82.5492573  12.7064359   7.6396674
  72.3559570  90.7982159  23.7390256  71.4329815  90.9669399  23.5496116
  72.7720356  91.6587734  23.6884713  20.6752753  55.4920721   3.9267132
  20.9107232  56.0054064   3.1538725  20.7797337  56.0997820   4.6588379
   0.2097308  99.1717815  28.5185575  -0.0078405  99.9612808  29.0141129
   0.1150595  98.4588337  29.1502047  21.8584418  82.1387196  11.5572405
  21.6574574  82.9148769  11.0343504  21.0118818  81.7110062  11.6861963
  51.6789436  86.5221691  43.9932823  51.0435295  85.9466362  43.5675573
  52.4881029  86.3931942  43.4984541  24.6805692  84.9953175   9.1215324
  24.8281765  84.4182873   8.3722150  25.1492929  85.8000088   8.9001530
  72.5284815   6.7632610  69.4956112  72.4231052   6.9732761  68.5677004
  72.0518208   5.9412086  69.6107578  58.1419897  93.5487080  41.4871645
  58.3460665  94.4623852  41.6866112  57.3907042  93.5946846  40.8958197
  67.1514845  12.0823622   8.3156002  66.4851284  11.4522552   8.5897696
  67.9811621  11.6817045   8.5750920 117.8758526   2.9486817  91.7655754
 117.5468540   3.8473493  91.7459393 118.8112640   3.0319783  91.5803814
  64.4310522 100.9179401  22.4960160  63.9663458 100.1022625  22.6829576
  63.7519741 101.5131092  22.1784353  33.7387609  73.2832956  16.4398503
  33.2334995  73.8897753  16.9812584  33.1045699  72.9377031  15.8116806
  36.4826274 107.5558853  36.4495158  37.4292684 107.4999714  36.3192201
  36.2259436 106.6749954  36.7222214  44.7569513 103.3720875  41.4691591
  44.8545218 102.9732227  42.3338079  45.6432390 103.6418724  41.2284517
  62.7194357  75.0681353  41.1253691  62.7035856  76.0149717  40.9857941
  62.0231628  74.9082613  41.7624521  43.7661123  73.3851147  48.1703663
  42.9432678  73.1547308  48.6017323  44.1252089  74.0948105  48.7029219
  39.5293522  73.4477329  14.4925392  38.9746213  72.6687527  14.4513130
  39.5798349  73.6567259  15.4252791  55.5935335 103.8455963  24.0883231
  56.4391327 103.4811974  23.8267684  55.5600643 104.7024155  23.6629105
  44.9562931  43.1932783  18.6275280  44.9961567  43.2336235  19.5830464
  45.2966022  42.3254538  18.4100389   7.8587115  78.5272551   6.5351075
   8.2749397  78.0606031   7.2598273   7.5913149  77.8372097   5.9280097
  75.1238585   2.0414680  31.8105817  75.4048443   2.9058176  32.1108794
  75.4209280   1.4418635  32.4950194   2.8884962  89.1685677  13.7742102
   1.9567128  88.9874744  13.6508584   3.2705790  89.0619946  12.9030704
  45.3729391 105.3719234  12.1905243  45.0988483 104.4548321  12.1978974
  44.5968246 105.8561325  12.4723470  85.8237076  10.0801146  39.6103454
  86.3142872   9.2591208  39.6495128  84.9975777   9.8868549  40.0535011
  96.5703678  42.2143936  32.9732561  97.1838665  42.0374393  32.2601414
  95.8900166  42.7571297  32.5747633  19.8195279  93.2024288  21.2670159
  20.0866532  92.2942257  21.1253953  19.0166593  93.1380653  21.7842102
   7.3491162  63.1855774  28.9992595   8.1846488  63.0366755  29.4419169
   6.7672020  63.5071278  29.6878934  60.2782488  86.2287712   6.5124381
  59.9308491  86.6441250   7.3017573  60.8457375  86.8934155   6.1220044
   4.7270730 105.5615902  37.4398422   5.3228074 105.2563381  36.7556238
   3.8538945 105.3532410  37.1076059  50.5855751 108.7466145  38.0155730
  50.9958124 109.6112728  37.9982829  50.7725382 108.3755207  37.1532702
  39.9892735 107.5479412  49.7116423  39.2335367 107.9677105  49.3006897
  39.7767830 106.6146374  49.7069550  38.6582613  14.3314707  26.6699314
  37.7137852  14.4850755  26.6453242  38.9698553  14.8712337  27.3964286
   4.3649128  27.8444386  30.2980995   4.4467235  28.1439161  31.2035561
   3.5036215  27.4285316  30.2602792  49.4499254 107.0949936  63.7222862
  50.3133917 107.0529938  63.3113194  49.5943785 106.7827988  64.6155405
  69.6702909  97.7900028  36.7129588  69.1787004  96.9777298  36.5913892
  70.4686403  97.6659107  36.1996627  79.6171045  97.0108986   1.9570103
  78.9672518  97.3546600   2.5699997  79.7524118  96.1048698   2.2345398
  33.3895540  89.5685291  64.0671825  32.5224781  89.9073696  64.2898798
  33.9963102  90.2408028  64.3772411  65.2803516   4.3703121  33.7283516
  65.1544619   5.2115637  34.1673040  66.1386967   4.0702122  34.0273714
  75.9994030   3.2946533  18.6024666  75.6148911   3.7217462  19.3679559
  75.2966404   2.7441019  18.2571375  12.2185683  97.6387310  50.8152008
  12.9295623  97.8226852  50.2012968  12.5130677  98.0178356  51.6433191
  40.5096292 102.3263645  27.2784543  40.0478172 103.1068707  27.5846791
  41.2156105 102.2015190  27.9126740  74.0921116  86.6063690  59.9572182
  73.2118177  86.4325714  60.2905416  74.0489292  87.5020504  59.6223831
  34.2995667 109.2467499  30.8068085  34.8774242 109.5862007  31.4902449
  34.5201397 108.3172607  30.7465172  67.1023560   2.2999160  34.6477199
  67.8386736   1.7238849  34.8532915  66.4034176   1.7064354  34.3729591
  23.2034492 108.3629417  67.3500061  22.5034761 108.6772156  66.7777252
  22.9181123 107.4901676  67.6203299  68.5457850  63.9468098  47.2109938
  67.6403666  64.0956211  46.9384050  68.5224295  63.1081295  47.6717567
 105.7237530   6.3841581  35.1957202 106.1829281   5.5449045  35.2280855
 105.9112835   6.7925245  36.0408854  38.2198191  89.1174793  56.6781473
  38.3916664  88.1831551  56.5609550  38.6582208  89.3404961  57.4993086
  67.3068619   1.8128890  53.8353968  67.9206610   1.2166071  54.2642641
  67.8640985   2.4602416  53.4033585  71.5531874   8.4280193  50.6931257
  71.1554527   8.4344345  49.8224974  70.9339857   8.9082330  51.2428665
  91.8937492   9.9907130  19.3338001  91.9286060   9.4193751  20.1009965
  91.2705040   9.5642191  18.7456703  39.4415474  84.8907661  63.6671495
  38.7470698  84.9794960  64.3198824  39.4154453  85.7122231  63.1764793
  65.0895071   0.5828393  29.6680546  64.9104452  -0.2921285  30.0124383
  65.9519434   0.5076268  29.2596674  73.6357737  24.0335250  48.3703852
  73.3472395  23.1993461  48.0000782  72.8914213  24.3344665  48.8915491
  71.7272663  23.8184357  41.3786268  71.3268137  24.2524242  40.6252861
  72.1020889  23.0138946  41.0202265  21.3828349  94.7635651  19.6525049
  20.8039880  95.5258369  19.6425140  20.8619308  94.0726089  20.0617456
  70.4838133  11.9198620  18.1611562  71.0641336  11.6304612  17.4570894
  69.7313547  12.3020077  17.7094936   5.9144431 109.1077614  33.6705065
   5.0410014 109.0458584  34.0571594   5.7642186 109.0410042  32.7275300
  28.3083272 104.6413898  41.5206814  27.6629519 103.9364910  41.4673233
  27.7917004 105.4256058  41.7059612  30.3004420 110.6879179  52.2478104
  30.6744873 111.5214544  51.9622564  30.3008949 110.1430603  51.4608145
  50.0046873  96.0727119  49.6763325  50.0286484  96.6264439  48.8959217
  50.7431269  95.4734516  49.5675802  42.7053452  86.9539928   4.6486178
  42.7571726  87.9043293   4.5466146  43.0738306  86.6055202   3.8368183
  19.4280422  87.7684212  67.2035217  20.1903629  87.3343277  66.8205595
  19.3109488  87.3419952  68.0524492  55.5365515 104.9390030  31.5891600
  55.6345034 104.7325611  30.6596351  55.6813622 105.8837509  31.6412354
  25.3022099 105.1954651  50.4730797  25.6676698 105.9647942  50.9098864
  24.3543625 105.3189850  50.5237055  -0.1355169 108.8406277  63.3484268
   0.1319038 108.2364655  64.0410376   0.2054386 109.6905136  63.6271238
  23.1882024   5.4172885  46.6264629  22.2597122   5.6438172  46.6795969
  23.1955671   4.4754910  46.4555931   7.1161962  74.7361183  41.4177513
   7.1199656  73.8738728  41.0021162   7.6044524  74.6118259  42.2316217
  53.6784697   9.2066985  25.3423929  54.2810297   9.2494637  26.0849023
  52.9230976   9.7267145  25.6166792  23.8795400  81.2335491  48.1175756
  23.8846636  82.0240688  47.5778675  23.6914086  80.5247498  47.5023890
  72.5307655  11.3799846  37.6529169  72.4169683  11.4612734  36.7059898
  73.3807325  10.9520471  37.7561450 111.8116188  23.0120468  52.1196413
 111.0740566  22.4830532  51.8156672 112.2054100  22.4933004  52.8211117
  79.6781921  83.7659073  41.3573694  79.8168039  82.9786587  41.8839216
  78.9190245  83.5589218  40.8123493 111.9999981  68.5788012  47.4453354
 112.1345139  67.9965305  46.6976070 112.7484703  69.1750240  47.4223042
  73.9568901 109.1970158  39.8279762  74.3161583 109.3190193  38.9491844
  74.6649885 109.4618034  40.4151011  46.8448830 109.6623611  45.7631111
  46.4530754 110.4890442  45.4814959  46.1051226 109.1401196  46.0733652
  25.1373935  91.6037178  12.1457195  25.9901738  92.0249939  12.2530758
  24.5238137  92.1881008  12.5909638   5.1212740  94.3656254  38.9680195
   5.0255078  95.1687145  38.4560513   5.6921721  94.6121407  39.6957135
  95.1544476  79.6156359  31.5837765  95.4249382  78.7624168  31.2445354
  94.5151234  79.4104147  32.2659659  11.8314481  93.7268448  32.3414230
  11.2666786  94.3596649  31.8977952  12.5657499  93.5988903  31.7408729
  48.4016752  91.4394188  55.8127308  47.5027800  91.3227749  55.5051327
  48.9437199  91.2420368  55.0488853  67.5558662  90.5210876  59.8286533
  68.1135654  89.7690773  59.6294355  67.1613646  90.7558918  58.9887333
  40.7667923  88.2897282  51.8238068  40.6013966  89.2320919  51.8527222
  40.0472450  87.9048061  52.3241282  80.4397964   2.6249298  46.3038445
  80.3851986   2.2466652  47.1814346  79.5297098   2.7887881  46.0566139
  51.0092831   5.2588308  46.8808126  51.6980553   5.5726242  47.4667788
  50.9828472   4.3132317  47.0270157  56.5855980 101.5911293  55.4110289
  56.7816782 100.9133911  56.0579062  56.2117624 102.3089981  55.9220457
  66.3951921  89.4468307  64.9502087  65.7874632  89.5046806  65.6874657
  67.1449614  88.9620876  65.2953243  90.7499886  10.8215022   3.8060254
  91.4968300  10.6739843   3.2257614  91.1380386  11.1498773   4.6170861
  96.6587448  17.3840296  40.5702925  96.4272785  16.6236532  41.1036634
  96.8630695  17.0193267  39.7092032  61.6524839 105.8738708  48.0841970
  61.9237661 104.9811172  48.2978106  61.0142803 105.7679367  47.3787117
  59.2738390 108.2707787  33.9687467  58.8448048 108.7607288  33.2672405
  58.7483978 108.4568882  34.7468925  30.3813529 101.1826038  53.1363106
  30.3408408 102.1293736  53.0013657  31.2517309 100.9333992  52.8255415
  86.8095589  11.4237595  35.1301193  87.1663857  10.5556059  34.9424458
  86.3704586  11.3247478  35.9748793 111.6758156   1.4782603  74.6452379
 111.9177437   1.3955319  75.5676603 111.8606949   2.3924851  74.4301987
  38.7273383  96.4958382  37.9753780  37.9158711  96.4223957  38.4777331
  39.0763068  97.3561382  38.2084799  52.8946924  93.3686543  29.9671435
  52.9940939  94.1957951  30.4385233  52.5412703  92.7627659  30.6184697
  47.5709581 108.3110237  20.7044363  48.0395889 107.5650787  20.3300309
  46.6602039 108.1781483  20.4415536  32.0783615  93.2444477  60.3028393
  31.8487310  92.5018120  59.7442818  32.4437118  93.8928890  59.7009468
  37.2759771  98.4842014  29.4035172  38.0574417  99.0363503  29.3774891
  36.8395853  98.6472034  28.5673213  58.4030676  92.9819679  44.9056673
  58.3120394  93.7880707  44.3975878  59.2977095  93.0122566  45.2446747
  71.3689280  10.3707039  26.7356896  70.7425117  11.0071647  26.3910937
  70.9908438   9.5192885  26.5157461  91.6210747  65.0779057  24.8819256
  90.9044170  64.5891285  25.2865791  91.2804985  65.9673691  24.7865844
  95.6911469  22.2490859  77.0522594  96.4688206  22.3866892  76.5114069
  94.9597836  22.2962236  76.4365339  35.5446839 109.4897652  63.2727098
  35.4983068 110.3986168  63.5694742  36.3375568 109.4526577  62.7377272
  49.2076731 105.9404469  25.2622604  48.8010836 106.7132568  24.8702526
  48.4711933 105.4143143  25.5737376  50.1150513  96.1142731  36.5158772
  49.2164326  95.8733368  36.2907934  50.0857973  97.0635796  36.6350532
  73.8247061  24.5849657   5.3498113  74.0758610  23.6938643   5.5929023
  74.6281910  24.9746990   5.0052047  84.8086262  19.0296257  31.3156843
  85.2398205  19.8660374  31.4909506  83.8755512  19.2417395  31.2909341
  68.5405254   7.4032038  32.5839972  68.6255121   7.3027050  33.5321045
  67.8109074   8.0126202  32.4721861  50.7280350 106.6998482  27.4113941
  51.1879063 107.3668289  26.9016004  50.2060652 106.2228680  26.7662072
  34.8219514  64.5923471  22.0658255  35.7240009  64.3977451  22.3201275
  34.7623682  65.5468416  22.1060538  46.5654278 103.8380432  15.3252673
  45.7505417 103.3728027  15.1362193  47.2551107 103.2095051  15.1119459
  71.7352438  85.3812313  41.2375975  70.9820223  84.8676491  40.9458494
  71.4480257  85.7831097  42.0574951  51.4359522 106.2690830  48.4990406
  51.9307089 106.8609333  49.0657520  50.7254028 106.8082809  48.1517267
  74.5296669  68.3582163  21.9268155  73.6741734  68.0810738  21.5988564
  74.4578695  68.2812405  22.8782105  57.3922920  68.1524992  40.9275198
  57.5632811  67.2961855  41.3195944  57.4448204  67.9988098  39.9842024
  55.9040546  80.2756786  24.1470909  56.8269587  80.5280113  24.1754150
  55.9149265  79.3204927  24.2081809  38.1389642  42.7577782  76.1019468
  37.8851175  43.5568857  75.6401920  37.3550391  42.5030565  76.5885830
  44.1623545  82.0328140  38.6647773  44.2824554  82.9208279  39.0012908
  45.0103903  81.6094017  38.7981725  54.5927858  92.1449089  82.7052116
  54.8248339  91.2283993  82.8549004  53.9649820  92.1181774  81.9831467
  37.0057178  88.3526897  22.0859838  36.2511396  87.8589630  22.4070501
  36.9682336  88.2555580  21.1344624 110.4352188  91.4892673  20.2146125
 111.3920021  91.4612103  20.2154207 110.1937199  91.4516258  21.1400819
  67.2136879  75.9111071  26.5148711  67.6024723  75.0811434  26.7909980
  66.3136244  75.6870461  26.2784171 103.5610199   3.9075357  41.6001511
 103.2789516   3.5616258  40.7533836 102.7590275   3.9492068  42.1210289
  38.0537772 108.4400463  64.6384668  37.5273705 109.0763664  65.1224327
  38.9439249 108.7903500  64.6723747  72.9446459  99.4479561  42.8169870
  72.3687363  98.8830280  42.3018026  73.1428385 100.1820183  42.2355080
  54.0367746  85.9533787  21.5646911  53.1901884  86.3243580  21.3158941
  53.8170052  85.1486206  22.0340466  54.0502071  18.0973923  31.9460154
  54.8820210  18.5551798  31.8245816  53.3881426  18.7197518  31.6450667
  36.5626001  93.7348843  45.3126907  36.7849016  94.6633339  45.2434874
  37.1123910  93.3073711  44.6560335  90.0289917  10.2339566  45.7296896
  89.0784931  10.2199626  45.6175184  90.3467941  10.7821131  45.0122261
  31.7593932 109.9845886  30.5054379  31.6629577 110.2356911  29.5868063
  32.6656222 109.6850586  30.5779982  10.3888416 105.6873512  15.2470613
  10.4255521 105.6299400  14.2922902  11.2018263 105.2778721  15.5430651
  56.5703392  47.4112415   1.3276908  56.2752962  47.9703474   0.6089510
  57.1789169  47.9592991   1.8231729  87.1278191  92.7980232  12.2599018
  87.9148197  93.3146381  12.4330604  87.4584198  91.9474602  11.9709814
 106.0804081  30.2182555  76.0766935 107.0199013  30.0841665  75.9517193
 105.9593201  31.1634898  75.9866858  32.9816365  73.7509489  37.3245573
  33.1595087  73.0011034  36.7568159  32.0592117  73.9547539  37.1702003
   8.3206040  86.7395115  61.3309813   7.5529510  87.2511482  61.5862656
   8.7631047  86.5433121  62.1567678  56.5740013   8.2155424  44.5468473
  56.8468904   7.6296240  43.8408327  55.9182835   7.7156198  45.0330067
  71.6171026   8.3795446  34.5988560  70.8667040   7.7892208  34.6670699
  71.4005041   9.1101742  35.1780772  25.7956362  85.3460026  19.6386445
  25.9618115  84.4124985  19.5075035  25.6547952  85.4340935  20.5813193
  61.3096380  83.6183262  11.6377044  60.6906366  83.0411148  11.1906075
  61.8669653  83.0264568  12.1429873  50.1333284 110.7619286  27.3563480
  50.5248594 110.8700085  28.2230949  49.5861149 111.5389347  27.2421360
  65.5596066  96.2808895  38.3089304  64.8817635  96.8382740  37.9267168
  66.2266541  96.2123871  37.6258612  60.5822515 109.1198635  82.1749210
  60.0232601 109.2222977  81.4046764  61.0886002 108.3267021  81.9996166
  76.2575054   9.2476815  25.6723952  76.5501928   8.6079341  26.3214660
  75.3019094   9.2075419  25.7105255  39.7701764  97.5397682  75.6743670
  39.1139746  98.1142902  76.0687780  40.6023264  97.9885483  75.8238745
   6.8253469   9.1708273  55.2429867   6.2049288   9.7119826  55.7313156
   6.5447003   9.2482609  54.3311357  52.3868561 109.3068695  40.6235361
  51.9209957 110.1411247  40.6803226  51.7041636 108.6638832  40.4318857
  62.3592281  18.0478048  25.6939888  61.8735743  18.6611784  26.2454820
  63.2553387  18.3842885  25.6931710   0.9609912  16.4171982  51.1807537
   0.3805052  16.8208063  51.8260193   1.8371278  16.7118669  51.4293242
   1.7208456 108.1477833  37.3898363   0.7990388 108.2633781  37.6203632
   1.7613125 107.2773933  36.9935894   2.3719735  19.1399300  54.3786478
   2.2436394  18.5076439  55.0857353   1.5290479  19.5867860  54.3010092
  63.7105942  88.1141281   3.4628525  63.6529446  87.1589947   3.4878710
  64.1427517  88.3062840   2.6306570  53.1560516 108.7710953  49.9762249
  53.7038422 109.5560455  49.9794912  53.3390808 108.3547974  49.1339493
  91.5100288   2.2471988  11.2910664  92.0936489   1.8961424  11.9636583
  91.8663025   3.1132898  11.0931110  12.2756124  16.6057575   5.0896341
  11.5974855  16.8252993   4.4507456  12.1660495  15.6671751   5.2422428
 109.3494225   1.5927973  23.8118219 109.4180202   0.6484912  23.6710644
 110.0751972   1.9631720  23.3095217  47.0071745  86.1323929   2.7605402
  46.5482426  86.8160343   2.2724333  46.8779325  86.3665009   3.6796299
 114.7155666  14.2706287  20.6399632 115.6190586  13.9834666  20.5077553
 114.2219353  13.8361132  19.9444377  86.6090679   4.6083724  28.6577630
  86.2503815   5.0451726  29.4302797  86.1698818   3.7581062  28.6378360
  92.7769852  12.3734653  70.5492258  92.2530460  13.1367218  70.7924461
  93.6454201  12.7292538  70.3608894   4.9502838  27.8925419  23.0097461
   4.9945262  27.4908233  23.8774419   4.5317644  28.7402987  23.1593561
  57.1125507  24.3648791  33.2069588  57.9713392  24.7342634  33.0013561
  57.2689819  23.4237432  33.2845879 114.9852371  17.8115487  53.9776707
 114.6653748  18.6415517  54.3312454 114.6121597  17.1455514  54.5551634
  66.1250269 110.9620510  29.8209000  65.7386458 110.2270483  30.2970433
  65.4809248 111.6654112  29.9024796  22.5733566 107.0209312  28.1721115
  23.5285044 107.0448303  28.2300353  22.3782110 106.1680031  27.7839589
 106.9722939   6.4240849  54.2035103 107.9225731   6.3197166  54.2516565
 106.7714596   7.0937192  54.8573351  39.2016530  75.4819250  29.6073723
  38.6398387  76.1886597  29.2893791  39.8716044  75.9245491  30.1284146
  81.6052723 100.1358032  70.8151102  81.5064049 101.0516930  71.0751247
  80.8171940  99.9448109  70.3064919  98.8104630   4.4815060  26.5008831
  98.1151295   5.1050490  26.2912416  98.3775425   3.8070348  27.0242405
   0.6478344  20.1412868  87.5679111   1.0548237  20.3735948  86.7332745
   0.1382090  20.9147286  87.8093719  67.3683119 104.1027164  32.0501995
  67.8633308 104.6109676  32.6927519  66.6202688 104.6580219  31.8304467
  63.9702082  93.7174416  54.6235323  64.7998810  93.8215637  55.0894022
  63.4773207  94.5111084  54.8318481  52.5375080  95.7766247  45.2176094
  53.4591627  95.8046436  44.9607038  52.3987675  96.5910149  45.7010841
  51.9390202 103.9883137  72.6071501  51.0387564 104.1351795  72.8973007
  52.1283007 103.0851364  72.8614712  38.5685301  98.4883595   8.4321350
  39.2299581  97.8972149   8.7917012  38.1552815  97.9864788   7.7295882
  58.4070349 108.0816841  41.7896938  57.6835632 108.6754131  41.5889549
  58.1449080 107.6512814  42.6034975 110.0377369  29.2269230  17.5240827
 109.5668411  28.9783978  16.7286420 110.8423901  28.7091660  17.4977183
  96.0888672   2.7719384  50.5436182  96.2456799   1.9082245  50.1619911
  95.2513695   3.0493695  50.1723194  43.2085705  94.1387939   6.4528674
  43.3323383  94.4992447   5.5748105  44.0729237  94.1974735   6.8598998
  87.7121735  18.2836711  12.8754961  88.5123920  17.7584326  12.8790164
  87.9279232  19.0524018  13.4034503  19.2292929  48.1070089  95.0692081
  18.4861648  48.6493444  95.3335285  19.8463500  48.1746817  95.7978249
  96.8846035  19.7582722  34.6112895  96.8856144  20.6357408  34.9937534
  96.0831738  19.7256124  34.0889144  72.4554014   5.9307563  26.3245893
  72.4799442   5.7156241  27.2569776  73.2742786   6.4001715  26.1654615
  95.8386421  10.5103159  60.7354593  94.9800110  10.7003701  61.1134195
  95.6767941   9.7941774  60.1213074  68.2450008  22.9356813  41.0466433
  67.5511265  23.2030058  40.4438925  68.8517094  22.4311471  40.5048132
 102.4909687  10.1169801  87.7411461 102.2063255  10.0878286  86.8277168
 103.3159542   9.6316534  87.7505398  68.0661106 106.3107777  13.9273715
  68.9066648 105.9290123  13.6744630  67.8294325 106.8768978  13.1927156
 108.4751987  15.6328571  42.7384281 109.0587330  16.3687813  42.9231930
 107.7329731  16.0252762  42.2787237  90.3761768  11.5122592  42.9877377
  90.4168320  11.1399186  42.1068621  90.5486774  12.4452960  42.8615761
  29.7354293  92.7665424  28.0600381  28.8443398  93.0768967  27.8991818
  29.9165249  93.0172920  28.9658833  92.2910213  11.3382006  23.5300922
  91.6804409  11.2927783  22.7943254  92.5905418  12.2473049  23.5370016
  72.9383945  16.0150456  32.2875834  72.4500370  16.6851318  31.8093324
  72.7588463  16.1999857  33.2094240  69.2469263  20.5237961  50.4852438
  70.1467657  20.6835437  50.2006388  69.3376637  20.0772500  51.3270235
   6.3317281   4.7523275  41.8383551   6.3321060   4.4374496  42.7422857
   5.5880398   5.3533494  41.7944050   5.8771545   0.8837952  23.8624811
   6.6053998   1.1540902  24.4217944   5.1796240   1.5092993  24.0585113
  66.7050171  82.9765415  31.4182806  66.0329294  82.6354313  32.0083427
  66.5265417  82.5502586  30.5800295  66.1145401 103.3833885  25.3547359
  66.3973475 102.5445461  24.9905992  66.0305595 103.9585209  24.5942092
 117.8531837  17.0983982  12.2632205 118.4181213  17.2640979  13.0179489
 117.2995567  17.8769207  12.2029400  60.7384300  92.5753498  62.9610968
  60.3214312  93.2919693  63.4394312  61.5896416  92.9258537  62.6987600
  70.5700541  21.3242173  35.4388475  71.0041189  22.0065761  34.9267840
  70.3000498  21.7646885  36.2446475  46.4070463  71.2888622  33.6577296
  45.6941891  71.8425941  33.3392215  46.4553785  71.4762640  34.5951605
  53.0351400  89.0946102  19.5509028  52.6929617  89.7522831  20.1563883
  53.5072088  88.4772205  20.1096559  50.8172512  87.2380352  39.6568966
  51.6620064  86.7899132  39.6144629  50.6727123  87.3887253  40.5910444
  88.3696556 110.2572727  22.3773909  87.9245949 110.7560158  21.6922593
  88.5578632 110.9021950  23.0592203  88.5923481  31.2939334  39.3251801
  87.8358364  31.8070555  39.6091294  88.9582920  30.9384704  40.1350927
  62.1608114 107.8166962  36.9040155  62.5782919 108.4689903  37.4665618
  62.6632690 107.8458214  36.0898161   2.0680964   3.5823777  69.3545294
   1.1336532   3.4446248  69.1993761   2.5022039   2.9648939  68.7658882
   3.1141484   4.4057539  22.6129580   3.2810724   4.6199906  21.6950941
   2.6986659   5.1905328  22.9703474  86.8611622   9.6999300  22.5988412
  86.1826611  10.2850926  22.2620082  87.2497845   9.3084526  21.8165684
  70.6522036 104.8145866  41.3596916  70.4730606 103.9703751  41.7737436
  71.5473366 105.0261593  41.6246462  53.1302071 107.9979610  29.5743012
  52.2081661 107.7415085  29.5917058  53.5529947 107.4146175  30.2045393
  78.5980701  10.4666913  35.3962445  78.3793068   9.8377705  36.0838747
  78.3924770  10.0105405  34.5802236  57.8094339   6.3101453  20.5797219
  58.2254505   7.1676576  20.6682396  57.6620436   6.2113875  19.6391082
  33.4284997  94.0282440  38.8704085  34.0963197  93.6651230  39.4521236
  32.8159690  93.3064270  38.7289214  47.6378298  80.7838726  54.3605375
  48.3705330  81.3561630  54.5882893  47.1380806  81.2808514  53.7128544
  86.6440773   1.9381678  41.9139624  85.7549477   2.2610891  42.0602703
  86.5340710   1.0028089  41.7429781  72.2285891 103.1552696  43.7246704
  71.6415930 103.8621044  43.9931107  71.6764402 102.5687599  43.2075882
  35.0318289  95.4821205  66.9775343  35.7156658  95.7605934  67.5866747
  34.3253207  96.1152649  67.1048737  79.5994186   3.3942452  24.5754290
  79.1879225   3.4916157  25.4341626  80.0931740   4.2050922  24.4531178
 112.6062107  17.0450401  11.6789591 113.0782509  16.3580179  12.1494973
 112.7393723  16.8368733  10.7542062  85.9130955  40.6193352  23.2651854
  85.7383251  41.5392303  23.0665016  85.7857418  40.5502701  24.2113566
  77.4048328 106.5784931  38.9370131  77.7016783 106.3948441  38.0457282
  77.4054050 105.7249737  39.3702984  75.0872898   6.1067843   9.8428613
  74.8875380   6.0065269   8.9121193  74.9570227   7.0390046  10.0167227
  88.7577438   4.6931255  27.0626402  87.9360008   4.8991409  27.5082135
  88.7334061   3.7438518  26.9421434  42.4642706  90.0801182   5.9744227
  42.2604656  89.2199039   6.3414603  43.0339861  90.4895115   6.6256183
  54.4269276 103.8935661  38.2521629  55.0235415 103.5959530  37.5653458
  54.4414997 104.8482895  38.1849241  98.8993931  22.0809412  33.0241299
  98.6291027  22.8130460  33.5783887  98.3844566  22.1835923  32.2237968
  26.5530252  33.2015848  25.9877706  25.7775092  32.6558828  25.8573318
  26.2631369  33.8908362  26.5853715 104.9239254  23.1174946  27.5758696
 104.2377090  22.7048564  28.1003428 105.1900673  23.8812232  28.0878425
  99.5739937  20.3483057  34.9257970  99.4362259  21.0888982  34.3352270
  98.7683773  19.8357022  34.8591208 106.7344761  19.6071708  78.1473637
 106.5644550  18.7452352  78.5273552 106.7921734  20.1941371  78.9012671
   3.4758320  28.7408996   5.3612065   4.1750750  29.2921281   5.0098711
   2.7071700  28.9659762   4.8370588  26.8897271  94.0654278  50.5155039
  26.4646482  93.3135128  50.9280109  27.6539421  93.6957169  50.0733280
  75.4498053  17.8752983  10.3872228  75.5758429  17.5033474  11.2601483
  76.2305641  17.6124132   9.8998421  50.2241898  90.6659698  28.5971451
  50.6062508  91.3201714  29.1821885  50.9625340  90.1131535  28.3412576
  84.8441029  19.2403698  64.9747038  84.3735600  20.0622106  64.8354292
  84.1558361  18.5939789  65.1318598  72.7266502 100.8156967  50.4345989
  72.9684448 101.5110779  51.0463238  73.2716799 100.9744740  49.6639061
 113.6690617  19.5788884  60.1512623 112.9156303  19.5955622  60.7414341
 114.2419052  18.9028049  60.5132008  85.1561356   9.3643171  36.3483953
  85.8083820   8.6765164  36.2152028  85.3312206   9.6929097  37.2302127
  42.9678726  92.6420307  61.3612080  42.2731543  91.9846535  61.3993263
  42.5270844  93.4681320  61.5599632  82.5640965 101.4062405  49.6330595
  82.1993637 102.0384789  50.2523232  83.4980679 101.3788795  49.8408604
  18.5795891   5.1365793  24.1778326  19.4145608   4.7445640  24.4335246
  18.5315347   5.0017369  23.2313967  98.4985161  28.8545680  24.0802503
  97.9881668  29.6636009  24.0451717  98.0373955  28.3078909  24.7164464
  14.9333560  86.0925579  20.5299520  14.8407066  86.5547085  19.6968484
  14.8413599  85.1674175  20.3021646   9.8306310  38.4533906  92.8914070
   9.4146997  37.8403401  93.4975433   9.7815651  38.0188036  92.0399570
  58.2632589  89.0877056  12.9621422  57.3962593  89.1241932  13.3661318
  58.4561777  89.9952221  12.7266991  73.2184172 100.3242779  27.3777246
  73.8151598 101.0553360  27.5379825  73.2277966 100.2113819  26.4272523
 104.4761276   6.5131682  41.2465668 104.5860481   6.3537920  40.3091526
 104.2383289   5.6594878  41.6083908 106.0327435  34.8938298  89.5362949
 106.6063786  35.5921412  89.2207909 106.0021782  34.2649126  88.8153458
  38.3134341  88.3878613  38.2098770  38.0445647  88.1349468  37.3267126
  37.7395725  87.8852844  38.7880945  21.7844081 102.2875786  37.0159268
  21.0111308 102.7654266  36.7160296  21.4448547 101.6566849  37.6506734
  93.5313797  63.9313889   3.2580033  92.8100300  64.3526888   2.7906713
  94.2877960  64.0437174   2.6822871  56.1614656 101.6382790  26.1304641
  56.9952059 102.0696068  26.3177204  55.7595968 102.1788120  25.4503465
  45.5674553  94.3933678  30.5070567  45.1676941  95.1734352  30.1224399
  45.0608349  93.6638641  30.1501513  94.0628815  15.1732659  21.1646938
  94.7647572  15.5805635  20.6570363  94.1586113  15.5406392  22.0433903
  73.2325983  94.0173054  43.8004827  73.4900284  94.4281673  42.9751635
  73.9980555  94.1167641  44.3665361  73.8732433   9.5633602  23.7815142
  74.0052176  10.4847133  23.5580802  74.6362448   9.1163760  23.4150958
 101.2784576  39.6051860  24.2369223 100.4934502  39.9383211  23.8021612
 101.5034103  40.2812481  24.8761129  14.0504396  99.5133209  31.0741735
  13.8809752 100.2967739  30.5509949  14.5394957  98.9353657  30.4884911
  87.3561287   8.1186670   2.1179652  88.1528568   7.6494402   2.3655231
  87.6684475   8.9535952   1.7692743  48.6102152 101.8316460  26.6447902
  49.2525816 101.3560581  26.1180973  47.7738428 101.4158440  26.4354825
 103.8569153   0.4667328  42.9710960 103.6847532   1.3260506  43.3560133
 104.7958601   0.3310345  43.0983829  58.8213444 106.2490654   8.7094980
  58.2039738 106.9762802   8.7884879  59.4124222 106.3546276   9.4549584
 115.7146931  44.5402384  56.5460730 115.1884556  44.3818283  55.7623577
 116.4947987  43.9991331  56.4241600 101.0620308  19.0846312  53.9064217
 101.2446690  18.7638092  53.0232716 100.9371281  18.2919025  54.4281578
   2.1787964   2.4797612  72.0373583   2.8330603   1.7817613  72.0062685
   2.1832061   2.8516337  71.1553621  12.4282765   6.5891111  28.0156088
  12.5365293   7.5390786  28.0611587  13.3185768   6.2432879  28.0788755
   1.7099459  37.8390360  21.7275405   2.2813305  37.8062248  22.4947929
   0.8371953  37.6468349  22.0704651  19.9892187   9.8420650  27.3421788
  19.9310637   9.2352569  28.0801725  20.1437402  10.6960869  27.7459121
  62.5760412  76.9796610  80.1515484  62.3132563  76.1891651  80.6230259
  62.7664804  77.6169395  80.8399105  92.2239876   5.5607444  28.2836056
  92.0148849   5.1371735  29.1161299  92.4603653   6.4567494  28.5234666
  37.0053077  24.4422555  10.2304673  37.9609776  24.4770789  10.1890635
  36.7979956  23.5083699  10.1970994  71.7605114  95.5869770  19.5056987
  71.9851351  96.1514568  18.7660098  70.8618021  95.3082466  19.3300211
 106.7984867  69.8729897  32.5066876 106.7267227  69.4717455  33.3727622
 107.3430920  70.6477261  32.6460290  93.2630539  33.1427217  11.8243730
  92.3189068  33.0134344  11.9144452  93.4313393  33.9834929  12.2498322
 105.3218269  29.9379992  17.7831662 106.1919975  30.1053405  18.1451428
 104.7802639  30.6507277  18.1222177  41.0562134  41.4610815   6.2062806
  40.1453495  41.2657595   6.4262903  41.5484810  40.7084656   6.5341157
 103.3034801  40.6848860  17.5651228 102.4192524  40.4539776  17.2804356
 103.8636303  40.4414415  16.8280995  47.1986008 109.1552925  95.3528976
  46.8851995 109.0129375  96.2460709  47.8105164 108.4360790  95.1963043
   7.4283147 108.6180115  66.6066408   7.7132291 108.4546471  67.5057316
   6.8038023 107.9164791  66.4220762 114.6541500  19.9636483  17.3026884
 114.8478317  20.7240367  17.8508937 114.2420006  19.3377781  17.8982139
  15.6973267  60.2352095  28.4321308  15.1518190  59.6944427  29.0032887
  16.2391138  59.6075249  27.9538965  16.8892717  17.6937246  33.2026076
  16.8241239  16.9489396  33.8003397  17.8181684  17.7383614  32.9759169
  14.4761443   9.5116407  35.3224516  15.2646494   9.0816987  35.6535745
  14.6452403  10.4462981  35.4410028 105.8752632  46.6577148  44.3195438
 106.2062931  45.9358978  43.7851048 106.4034843  47.4116898  44.0573740
  17.4661982  57.1376085  30.1627684  16.7889857  56.9625044  29.5093513
  18.1160593  57.6653671  29.6986771  31.8555808  33.0076575  49.1783142
  32.1170974  33.4164476  48.3532476  31.2266684  33.6199188  49.5601940
   9.3864214  30.0027370  45.1835060   8.7903631  30.7396650  45.0497723
   9.6740073  29.7643161  44.3022108  55.6909561  35.0908422  10.1393449
  54.7833681  35.2833343  10.3748572  55.8432579  35.5954790   9.3403590
  15.4724907   0.2036045  27.7525377  15.3639435   0.6672333  28.5829020
  15.3191685  -0.7159092  27.9698038   9.5157534  32.4409866  33.4207988
  10.0728953  33.0828190  32.9804850   9.4914722  31.6943192  32.8223562
   4.8922127  33.0578685  24.5577455   5.0503093  33.7312078  23.8960433
   3.9730886  32.8177691  24.4402933 101.3177395  37.8706360  38.9997602
 101.2141991  37.3265791  39.7804737 101.8323803  37.3318291  38.3988762
 103.2974815  37.5367212  25.3133941 102.6567841  38.1190467  25.7215929
 103.5776615  38.0032730  24.5259523  48.1528234  60.3934765  38.9417386
  47.2290277  60.1519775  39.0089202  48.3028078  60.9761572  39.6861982
  15.7883441  42.0188236  35.8345699  15.4738557  41.9369745  34.9342203
  15.2827895  42.7449512  36.1997819  80.8181667 101.3456821  63.6393738
  80.5749798 100.4307175  63.4982157  80.5718994 101.5216160  64.5474672
 105.4675770  23.5450768  88.9676476 106.2719822  24.0379143  88.8055229
 104.7707653  24.1989994  88.9122677 102.8438568   6.2208617  17.5967836
 102.4823093   6.9923788  18.0329871 102.4233532   5.4799271  18.0331540
  14.9788558   8.4517217  15.4394388  15.1854587   9.3477714  15.1736534
  15.7472301   8.1651282  15.9330964  92.4586105  42.5894308  30.5735564
  92.3712063  41.6595125  30.7829356  92.1486664  42.6618433  29.6708250
  10.5241323  62.8135490  27.7013540  11.4750814  62.8050423  27.5924706
  10.3890455  62.6712751  28.6382318 101.3685608  29.8256350  26.5704393
 101.7815495  30.6827688  26.4655590 100.6184864  29.9895048  27.1420741
 114.4707870  47.2969151  60.0948811 114.7653389  48.2030010  60.0028467
 114.4236088  46.9680452  59.1971874   5.8881158  16.2823379  32.2184587
   5.5961454  16.6014385  31.3645506   6.7463171  15.8940101  32.0483875
 109.7115612  26.4328480  28.0952048 108.8681793  26.0250211  28.2917285
 109.8927402  26.9863701  28.8548231   2.4709785  46.3643026  24.2377138
   3.2015234  45.7650900  24.0844917   2.7481565  46.8936110  24.9855375
  53.1466198 104.2374611  95.2469635  52.4808407 103.8198376  95.7933617
  53.9350653 103.7131786  95.3873539  49.3223238  44.9274969  30.9520292
  49.8921156  45.6625557  31.1784196  49.7634697  44.1609097  31.3180470
  19.6759963  33.7855196   3.8125458  20.4810786  34.0708733   4.2445740
  19.6075976  32.8545356   4.0242547  11.6078234  39.0821362  43.9516735
  11.3219333  38.5250115  43.2277155  12.4943995  38.7807775  44.1501570
  63.5903311  83.5694313  80.5005550  64.0389442  83.9356709  79.7384262
  63.8873482  82.6603031  80.5393314  30.6654334  38.9160156  41.2840271
  30.9271908  39.2171144  42.1541166  30.5170131  39.7203779  40.7868338
  33.9995551  22.3541355   1.5656985  33.0570722  22.5213051   1.5686288
  34.3972635  23.2246137   1.5838382 101.8947220  22.5494695  28.2010555
 101.5060139  21.7428637  27.8626323 101.7018700  22.5333142  29.1384888
  32.0257759  54.4023228  15.1109505  31.7890763  53.8751030  14.3479002
  32.2088933  53.7611055  15.7976389   4.3795928  14.0447569  64.3369579
   4.9882293  13.3434975  64.5693970   3.5267779  13.6134970  64.2826128
  26.5024233  47.0608759  27.6145267  25.7269382  47.5402880  27.3229527
  26.3215280  46.8466806  28.5297465  18.7203658  58.5776091  21.9842863
  19.1430295  57.8548622  22.4482107  17.8193092  58.2829475  21.8519783
 116.8039036  37.2497773   9.1899770 116.1290359  37.2345304   9.8686254
 117.1263885  36.3493133   9.1526192 118.3551502  71.8453598  41.2035179
 117.4911404  71.4410400  41.2825584 118.8367271  71.5330458  41.9695330
 111.6721058  83.1290531  39.6907330 112.1067524  82.2867203  39.5573711
 112.0194340  83.4486103  40.5234861  26.0783935  35.9326649  31.5325212
  26.5554404  36.7485833  31.6839623  26.7618823  35.2681923  31.4456177
   2.4863862  26.5827823  49.2736101   2.0683482  26.2702656  50.0759888
   2.1792144  25.9826541  48.5941029  47.6953030  89.5329285  94.1130924
  47.6202583  90.2843666  94.7012520  48.2165575  89.8553562  93.3778572
  26.1062336  55.5626869  31.0428357  25.4555988  54.9306440  31.3485003
  25.6588626  56.0520840  30.3524852  15.0102425  32.2808099  52.6911211
  15.3282976  32.0254421  53.5570621  14.4198978  33.0151701  52.8597593
  50.7313156  48.6660147  13.8655031  51.2029076  49.1397667  14.5506227
  50.0123453  48.2326698  14.3254232  31.7450285  49.9472523   8.5105830
  30.8721328  49.7691250   8.1605059  32.1093416  50.6075668   7.9210967
  19.3340027  62.0592642   1.5570720  18.9497972  62.2639942   2.4095410
  19.1555643  62.8326178   1.0219839  30.4902387  58.2068920  38.2963943
  30.2264738  57.9199457  37.4221396  31.4376497  58.0719233  38.3170938
 115.9283257  36.5024590  45.1456833 116.3187122  36.3416314  44.2866373
 116.3710690  35.8861876  45.7291365 109.8674297  48.4734488  40.9311819
 109.8997498  48.4587860  39.9746394 109.9809837  49.3957949  41.1605549
 118.1139278  75.4942894  13.2506466 117.3228550  75.5165339  12.7121794
 118.7406635  76.0423136  12.7783060  22.4864960  45.4275560  13.4863615
  22.6550221  46.1038065  12.8302217  23.3197856  45.3274536  13.9466226
   3.5596135   7.9742658  85.9900951   4.4739610   8.1318611  86.2253857
   3.0864465   8.7230682  86.3529110 106.4735317  38.5212326  25.5637860
 107.2486115  39.0421271  25.3536749 105.8460045  38.7365341  24.8737955
  13.6705279  32.3354459  32.6431751  13.2529676  32.2887135  33.5032272
  13.6690652  33.2678127  32.4265599  98.5265541  56.9867086  34.4568753
  99.0579224  57.3365974  33.7417126  98.9675236  57.2865438  35.2517796
 101.8144321  54.1425705   3.6887288 102.2764683  54.0970993   2.8516555
 100.8987522  54.2857313   3.4494179  35.1732898   8.4354490  25.0325012
  35.4881215   9.1658074  24.4998765  35.7606697   7.7110803  24.8168492
  90.4649258 111.4830875  72.9656792  90.6089878 110.5994225  73.3042240
  91.0782433 112.0304012  73.4561014 117.5695912  65.0433016  20.8019352
 117.5262834  64.9228668  21.7505407 118.2157339  64.4010687  20.5082178
  57.9030991  83.7972164  93.6881828  57.3921251  83.0979824  93.2804966
  57.3672867  84.5823574  93.5754871  54.9174297  82.4121568  96.3407577
  54.3851328  83.1707451  96.5804157  54.2889119  81.6949317  96.2583893
  16.1656404  80.3115940  45.6497288  15.7894230  79.4437885  45.5027676
  15.7372057  80.6267452  46.4455700   1.0900366  22.3314071  58.8185167
   1.8290746  22.5516176  58.2514477   1.1016932  21.3754964  58.8667870
   3.9331791  87.9188538  94.7972870   3.7724680  87.5850201  93.9146996
   3.2105231  88.5252953  94.9592590  20.4790998  37.4618888   6.4913303
  21.3497996  37.4227405   6.8870306  20.6461287  37.5741673   5.5555272
  43.2449102  58.8320112  22.2999430  42.7709866  59.4765043  21.7743397
  42.9497719  58.9905119  23.1966019  16.2445474  49.4667768  63.0779028
  15.9380782  50.1163387  63.7106609  16.8897784  49.9346495  62.5478029
   3.3927438  28.4076524  44.4616795   2.7262124  28.9974046  44.1093111
   2.9638392  27.5524712  44.4923162 101.3706398  13.4885597  35.8241558
 101.1785412  14.3027842  35.3590012 100.6451416  12.9065788  35.5979156
 109.0696812   9.5544899  25.3842402 108.3755112   8.9093649  25.5190372
 109.0026951  10.1396108  26.1388135  47.9357672 105.2197552  90.9051895
  47.3799324 105.7542515  91.4722824  47.9218006 104.3507481  91.3062668
   0.4917609  59.3737602  41.7699862   1.1889731  59.3476677  41.1146641
  -0.2540601  59.7601223  41.3109493 116.6974258  59.8319912  33.6545753
 116.6129684  60.7068968  33.2755828 115.8227539  59.6292257  33.9863372
  20.6280136  48.6301613  19.8908293  19.8166192  49.1112041  19.7281289
  20.4838800  48.1945896  20.7309079 100.3187466  55.7037973  30.3274608
 100.4903126  55.9436464  29.4168186  99.4354343  55.3352118  30.3157234
  20.4709268   5.1098657  52.8269053  19.6926022   4.6148831  53.0827093
  20.1591182   6.0086495  52.7210951  26.1880660 108.4811306  88.4970951
  25.3904796 108.3317852  87.9893684  25.8780599 108.6421013  89.3882847
  17.4526238  71.7710352  36.4484930  17.4859297  71.4729452  35.5395031
  17.6324046  72.7099180  36.3994026  45.4011917   6.1124039  18.4183407
  45.0282907   5.2923888  18.7419963  45.6995058   5.9066492  17.5323915
  12.9193735  18.3212328   7.2204262  12.6438391  17.7634978   6.4929336
  13.3184171  17.7177060   7.8471249  24.9823856  15.5544186  20.0961709
  25.7585144  16.0716057  19.8808205  24.9728823  14.8538399  19.4439971
 113.0552769  96.1126328  15.6275880 113.5342693  95.9426022  14.8164856
 113.7366104  96.2992573  16.2734818  13.8292003  48.7134171  53.8554096
  13.4355652  49.5732975  54.0033627  14.5040309  48.8694000  53.1947279
 113.2043743  27.5726104   3.5770726 113.1362724  27.9733038   2.7104482
 112.3054123  27.5580478   3.9055276 114.2354965  32.8426743  39.6463037
 114.7806072  33.3042383  39.0090871 113.4379005  33.3686495  39.7047615
  35.8011222  36.7074013  27.6122379  35.7217240  35.7578897  27.7036428
  36.6849303  36.9047999  27.9223180  33.2045317   7.2601295  26.4050031
  33.7022853   6.5871596  26.8693137  33.8411760   7.6655012  25.8162832
  32.7684999  48.1263161  56.4817429  33.1287551  48.4077311  55.6407595
  33.4113622  47.5037575  56.8214178  15.9541810  45.5309868  14.6801066
  15.0303090  45.2865982  14.7345984  16.4150774  44.8292303  15.1398301
   5.3950357  31.5216684  31.9011354   4.6173459  31.9790030  31.5813279
   6.0974258  31.8057060  31.3161540  85.9424591  68.1353760  46.0041046
  84.9954605  68.1116867  46.1414433  86.0556221  67.9209757  45.0781155
  14.5210493  33.9655399   0.7080987  14.2353964  33.3216882   1.3562417
  13.7551773  34.5230079   0.5706177  26.6066885  22.7757239   3.6363611
  25.8723187  23.1113601   3.1222793  26.3620591  22.9495883   4.5452937
  64.6289539 100.6510067  96.0859108  63.7381601 100.8381462  96.3820553
  64.7377348 101.1869431  95.3003120  95.4241562  49.5512486  16.0762894
  95.1672935  50.1937103  15.4148531  94.6482658  49.0026236  16.1913192
 101.8137360  55.4929590  43.7031555 101.5338612  56.3882256  43.5123587
 101.0000801  55.0193739  43.8761139  66.8761969  80.6355000  73.4295940
  66.9790602  80.6161213  74.3810511  67.6853895  81.0340309  73.1092691
  23.1141424  38.4138393  32.6488924  22.3143005  38.9339066  32.7264500
  23.7753677  39.0353632  32.3443890   8.3648056  18.1065178  16.0083151
   8.3590025  17.2014594  15.6967592   9.2036682  18.4573925  15.7092702
  21.1374784 106.3307285  91.0807133  20.9019732 106.2605762  92.0058346
  20.3995681 106.7901421  90.6798840  45.5178881  98.4551430  86.0310173
  45.0638247  97.8141403  85.4840565  46.2180948  98.7931728  85.4727364
  19.1608262  19.3634367  28.0235028  18.8967562  20.2633452  28.2149839
  19.6723795  19.0962958  28.7871647  21.4750457  43.6002874  11.0448909
  20.6747293  43.0868626  10.9348071  21.3708591  44.0268564  11.8954289
  36.1222911  22.0160794  33.2002783  35.9184813  21.1163831  32.9448605
  37.0215654  22.1519208  32.9018068  27.5733638  41.7647696  30.9693241
  27.3359513  41.0183859  30.4190707  26.7438674  42.2119188  31.1373353
  15.2645719  29.9512529   7.7881676  14.4178188  30.0793982   7.3605931
  15.8951283  30.3672266   7.2002935  11.5594280  55.8733082  20.5871654
  10.7347155  55.5397320  20.2338791  11.3064754  56.3464022  21.3799000
  36.4150429  57.5284672  45.4027319  35.6123757  57.7872896  45.8554649
  37.0874834  57.5365686  46.0839033   3.9467722  70.3868246  61.9007397
   4.5228112  69.7212124  61.5247440   3.0665427  70.0227880  61.8063831
  25.8946609  23.1795454  15.7621217  25.9756684  24.1080761  15.9800708
  26.3323665  23.0932355  14.9152470   9.3207985  39.7211862  28.0353451
   9.8281330  40.3404713  27.5106263   8.4222865  40.0479555  27.9891801
  56.1254215  30.8189297  14.5728302  56.3890839  31.4826655  15.2101457
  55.1794720  30.7345104  14.6923673   0.6841622  86.2934113  45.3169632
   0.5668983  87.0812321  44.7860956   1.1189443  85.6729412  44.7319841
  16.1913323  47.3880291  12.2220528  16.4557111  47.6021385  13.1167555
  15.5620921  46.6737747  12.3226738  27.4741960  83.0210590  23.4419274
  27.6289415  83.3502579  24.3273187  28.3302927  83.0671310  23.0162382
  25.7421780  56.2988663  28.3869672  25.3996086  55.7793140  27.6596856
  26.4819694  56.7769051  28.0122399  75.6185341  22.4878097  24.3975925
  75.3199863  23.0215383  23.6612248  74.9481153  21.8108964  24.4901061
  60.7462788  73.7985468  48.8434839  61.0580969  73.6625242  47.9487801
  61.2352943  74.5604324  49.1543293 108.6772251  29.8382282  44.2485380
 109.4696426  30.0697851  44.7329855 108.5022736  30.6007385  43.6969900
  17.8538620  51.2467527  12.8962517  17.2329068  50.8509111  12.2847307
  17.7345932  52.1895885  12.7819610   8.5642302  10.7098246  59.7337341
   9.4288141  10.8617556  59.3521023   7.9762596  11.2677050  59.2245293
   1.8987493  31.9611764  25.0891948   1.8819344  31.3120461  25.7924604
   1.4892665  32.7378917  25.4703379  44.1118288  75.1595736  26.8273187
  45.0427198  75.2393246  26.6192055  43.8779497  74.2756653  26.5440583
  38.1914568 103.2192326  61.4146471  38.0922890 104.0705204  61.8409204
  38.3013654 102.6009750  62.1370792  14.7876179   3.2042801  34.1655445
  15.4222608   3.1623390  34.8808789  15.1918554   2.7034280  33.4570456
  49.7830486  39.4116950  22.6443243  50.0667715  38.5431004  22.9294157
  50.0111771  39.4452333  21.7153096 116.4693451  43.2897854  29.6117806
 117.2965527  43.1975889  30.0844884 115.9965611  42.4780941  29.7958136
  98.2122421  28.8688421  19.7377789  97.3300552  28.8667083  20.1092124
  98.5154629  29.7702861  19.8459053  25.5938458  68.9728451   9.5350426
  26.1264992  69.0640497  10.3251016  25.2047586  68.1013250   9.6077901
  29.5884037  28.0302739  19.2038596  29.9275589  27.2973084  18.6900830
  28.7977648  28.3033895  18.7385309  20.1586318  44.5852375  23.2704282
  20.8802581  44.1049051  22.8645158  19.5161366  43.9108706  23.4910178
  36.5862870 107.4367809  91.4630699  36.0623050 108.0892658  91.9277573
  37.0215964 107.9301262  90.7678413  31.4252257  63.2784605  39.4347668
  30.9015322  63.9014387  39.9386287  32.1089220  62.9944563  40.0415087
  15.1843250  45.4745960  44.0579367  14.3502176  45.0093508  44.1215229
  15.5761182  45.1539278  43.2455921  16.5226805  34.4956541  22.3172879
  16.2524295  35.1428151  22.9687309  16.4895141  33.6595845  22.7821732
  34.8349023  61.0347366  34.3907118  34.1428423  61.3024139  33.7860346
  35.6477690  61.2735939  33.9452577  42.3688221   3.7167326   7.3485851
  43.1691933   3.9978567   7.7919906  41.9134808   4.5316225   7.1368092
  28.1966734  57.9082966  24.2560029  27.4938750  58.5372925  24.0926886
  28.9886546  58.4430456  24.3111682 109.3282032  12.8158224  75.5899858
 108.4436417  12.6434362  75.2674103 109.9023438  12.5271797  74.8805618
  85.0511932   9.2461419  68.3661270  84.7317696   8.9820099  67.5033236
  84.8908710  10.1891184  68.4025240  26.1610007  16.9573903  31.0461998
  25.8441925  16.5293550  31.8415928  25.3729129  17.1044457  30.5232048
  38.0808735  65.1572084   0.8730929  38.8428950  65.4440117   1.3763811
  38.3049631  64.2733240   0.5819613   7.7203333  24.6658421  26.0363078
   7.1371007  25.3788614  25.7761645   7.9657882  24.2445517  25.2125978
  13.5130584  29.8240972  13.3362210  12.8944349  30.2799320  13.9069664
  13.0118096  29.6337128  12.5432920  12.4748945  69.8488331  20.9632850
  13.2419682  70.3992510  20.8055902  12.7606297  69.2254353  21.6310906
 114.6535301  56.3028479  28.6895084 115.2771759  56.8205404  29.1987085
 115.1999092  55.7161093  28.1666040  25.1778007  79.7991753  18.3400571
  24.5495987  80.0660706  17.6689661  26.0338068  79.9270344  17.9312325
   5.1725787  62.4421835  57.9962540   4.2300773  62.2980452  58.0807972
   5.3656429  63.1385374  58.6239862  15.2435565  62.7880430   8.0199289
  15.3550565  62.8506517   7.0713091  14.5907581  62.0982456   8.1393528
 116.7782307  19.0552807  77.8008413 116.8313980  18.4407711  78.5328150
 116.4605808  18.5278654  77.0679283   7.3078322  51.7220020  38.5437059
   6.4999223  51.5313244  39.0203142   7.5982726  52.5648642  38.8922167
  40.3855276  14.4725108  46.0368633  39.5743728  14.2732823  46.5043736
  40.1119518  14.6083593  45.1297045  26.8606186  31.7697096  35.4343557
  27.4809313  31.2880492  34.8871398  26.1489511  32.0053434  34.8391771
  22.3884153  36.0221910  23.3079433  21.8876052  35.3480697  23.7672710
  21.9008446  36.8309546  23.4641790   0.6950399  58.0458403  37.7213073
   0.8196793  58.8635159  38.2030773  -0.0742411  58.2049608  37.1743894
  15.3860974  33.8100123  48.4689808  14.9953210  34.0068889  47.6176500
  14.9085534  33.0407882  48.7795925  76.4411688  98.6219978  82.5984669
  76.0553408  99.2907047  82.0325947  77.3846960  98.7084007  82.4623871
  22.5847435  92.8907013  56.6088247  22.7630591  93.7847710  56.3171339
  21.7443633  92.6707363  56.2068272  29.7752571  28.6116767  49.0367079
  30.2262616  29.4074774  48.7547064  30.0516844  27.9443550  48.4086132
  56.4985991  43.2748795   7.4339300  57.3958158  43.4221411   7.7331692
  56.5616941  43.2744551   6.4788115  19.6095741  59.5453262  34.7116542
  20.5078053  59.5091438  35.0404429  19.4392383  58.6627579  34.3825817
  44.2723370  65.4121876  23.4835243  44.4761086  65.1647615  24.3854594
  43.4033394  65.0436640  23.3245659   7.2539091  34.1474175  27.1560049
   7.6050085  33.3336520  26.7944145   8.0243909  34.6956992  27.3042512
  13.6951923  20.6446552  32.1550536  14.2368221  21.0544014  32.8295732
  13.7501740  19.7072005  32.3404860  34.9916077  46.7341566  20.7447314
  35.0944448  46.0824203  20.0512648  34.1877604  46.4779949  21.1968780
  25.0654531  32.9810286   4.3902558  24.3671274  32.3267555   4.3679020
  24.7846770  33.6083484   5.0564891  50.0006819  56.3018942  26.5220499
  49.8690701  57.1568108  26.1121416  50.4077911  55.7689333  25.8390808
  22.7238798  41.2218285  23.2874775  22.6941204  41.8462944  22.5626397
  22.3193526  41.6860628  24.0203309  13.4166682  74.7357178  29.8198271
  13.7837231  75.2770329  30.5187416  12.4720776  74.7541857  29.9735785
   1.7328057  55.5400991  36.9431424   2.0750163  54.9602318  37.6234937
   1.6782363  56.3977766  37.3646212 114.8296928  24.3752718  14.9488187
 115.4867172  23.6824465  14.8813999 115.1850510  25.0940442  14.4260168
   2.0110275  62.5996399  25.3358531   1.2244778  63.1334162  25.2233481
   2.7283335  63.1680155  25.0554037  24.9744177  19.0932012  10.1391745
  24.5636725  19.9577892  10.1363897  24.3104243  18.5137892  10.5128419
  31.1498117  65.5570984  23.6422229  32.0032072  65.6007957  24.0735459
  31.3555241  65.5074167  22.7087116 110.9340668  43.4135675  13.7649012
 110.6422424  44.1311789  14.3271339 110.2077293  43.2749176  13.1570899
   9.1603374  22.2744942  43.9208078   8.5615033  21.8520880  43.3050108
   9.3209743  23.1394386  43.5435820  49.6390963  62.7321911  33.0921006
  49.9688148  63.4029150  33.6901379  49.8235369  61.9042492  33.5356331
  51.6749954  15.1388347  29.9063444  52.4787235  15.6215525  29.7133899
  51.2039471  15.6959045  30.5260372  16.1430860   7.7740037  92.7000332
  15.5824220   7.0022279  92.6209736  16.8005836   7.5268030  93.3502769
  24.5565629  53.5220671  35.2145648  24.0339041  54.0016699  35.8572412
  24.7297692  54.1602135  34.5224690  43.1432629  17.0898676  18.5384595
  43.8516378  17.1291339  19.1810274  43.1723166  16.1933136  18.2044244
  45.9568071  14.4790733  57.6697969  45.5776215  14.2804313  58.5259485
  46.4395952  13.6874425  57.4321699  19.7815347  42.9312611   1.8498471
  19.9117255  42.2288418   2.4869390  20.5677652  43.4719610   1.9254681
  59.0761709 101.4967823  95.7260513  58.4025621 101.6721725  95.0689983
  59.5974779 102.2990608  95.7546806  21.2250733  61.4232302  58.5228109
  21.6415858  60.8862782  59.1969299  20.5412579  60.8615875  58.1578636
  66.8050766  62.4873543  82.7473831  65.8925390  62.2020912  82.7935123
  67.2080851  62.1297741  83.5385513  13.0466247  80.2236938  39.6239543
  13.8237381  79.6649361  39.6346927  13.3875477  81.1052418  39.4727278
   8.2030994  45.5659580  18.6759305   8.3541465  45.6849480  17.7382433
   7.4293506  45.0045490  18.7245476  33.5199904  85.6309891  10.2487087
  33.5298395  85.7459927   9.2984933  34.4292831  85.7656384  10.5157042
  51.2043619  64.8108768  25.2633977  51.8798256  64.2296791  25.6129456
  50.3802299  64.4297075  25.5662918 109.1873932  39.4139338  21.6749167
 109.0932655  40.0793934  22.3564863 109.2173958  39.9109530  20.8574176
  32.6789999  47.4616098  24.4765377  33.0440283  46.8259954  25.0921535
  31.7361832  47.2971630  24.4933820  47.5880051  58.7225246  26.7213416
  47.0358229  58.4185648  27.4417114  47.4236298  58.0989552  26.0139728
   9.1773456  31.6103506  28.7615585  10.1145530  31.6677380  28.5755992
   8.9228296  30.7438660  28.4442949  11.5150344  72.0906878  51.5951538
  10.7109749  71.6322422  51.3511276  11.8323696  71.6229963  52.3676777
  19.0664113  33.2251048  26.2758517  18.5930514  32.4276686  26.5130377
  18.3839512  33.8895869  26.1812925   8.7611848  56.8920231  15.5856502
   8.1896770  56.3496447  15.0421095   8.3855307  56.8304157  16.4638984
 113.4989834  13.1723630  63.9015913 114.1000462  12.4301803  63.8373899
 113.8814640  13.7325919  64.5769358  16.9472504  70.5001450  29.2548704
  17.2060668  70.1626873  28.3973336  16.1581063  70.0066042  29.4782591
   6.9513851   7.2191638  50.9437990   7.2698742   8.1159490  50.8409739
   7.3177099   6.9292098  51.7792416  26.6551185  37.0609474  14.5042658
  26.2636113  36.8001151  15.3378844  27.5639677  36.7665720  14.5639777
  12.6071882  36.8454790  14.4253898  12.1310723  37.5765371  14.0315628
  13.0630946  36.4334393  13.6914933   1.0598847  59.5080280  13.3862936
   1.3626184  58.9724398  12.6529944   1.6928735  59.3385649  14.0840328
  13.8112879  51.4309454  28.0596900  14.1143680  52.1004152  27.4463487
  14.1464424  51.7156792  28.9098859  71.9825029  87.0746136   5.0289518
  72.5594902  87.8354836   4.9626616  71.0996485  87.4441528   5.0445545
   7.6908869  46.5665007  47.1904182   7.8477621  46.8613005  48.0874777
   7.0498979  47.1867752  46.8431044  31.4140248  64.7318697  61.0467768
  31.8054509  63.8730001  61.2060452  30.8458328  64.5991421  60.2879810
  49.0823698 102.5874043  78.4662104  49.7579288 102.4603462  79.1323233
  48.6334133 103.3904076  78.7305355   1.8272454  36.6320419  15.0585628
   1.1014905  37.2412205  14.9228668   2.0163529  36.2866521  14.1861093
  69.9230194 107.4445820  79.2561579  69.0370178 107.7583408  79.0750980
  70.2365541 107.1135807  78.4145164  15.7769179  50.2335024  48.0938816
  16.5529490  49.7295046  47.8489399  16.1233115  50.9984827  48.5532808
  96.6681671   5.1556754  89.8160076  96.5963459   5.4153377  88.8975048
  97.5135422   4.7104269  89.8736382  32.3370123  75.7850075   3.4762752
  33.0602264  75.8443785   4.1005105  32.0151520  74.8881388   3.5672078
  32.1802902  68.8125420  51.7682171  31.2936449  68.6233091  52.0752716
  32.4361634  68.0308151  51.2786627  51.8043137  47.7639914   2.0435303
  51.5543318  47.0418835   1.4670727  52.1715927  47.3366356   2.8172925
  38.8682961  67.1672297  18.3029163  39.2478299  68.0415106  18.2145011
  37.9571843  67.3255110  18.5500062  26.7192698  52.0366716  35.1942372
  26.9971704  52.0561123  36.1100030  26.0291100  52.6976538  35.1392961
   4.5105353  55.7346725  24.2410445   3.8911295  55.6528807  24.9662185
   5.0372344  54.9366093  24.2847657  23.6002183  35.9568667  12.8457558
  23.7647080  36.7311835  13.3839095  24.2938757  35.9717369  12.1863246
  15.8064139  48.5478640  74.1123199  15.7785976  48.2882881  75.0332308
  16.4920676  48.0003643  73.7297535   6.4714503  65.7857084  40.9974194
   7.0191681  65.6814766  40.2193642   5.6024778  65.4964638  40.7191038
  59.3236256 108.5458660  88.8187027  59.5874262 107.9402542  89.5114422
  59.9203920 108.3562374  88.0947304  11.9126129  24.8478818  40.6188822
  12.4849546  24.9951768  41.3718462  11.9061041  23.8974690  40.5052710
  33.9314628  54.0763617  28.4440947  34.5436931  53.6958170  27.8143382
  34.0253687  55.0218534  28.3281064  45.5609894  92.2206497  95.2088928
  45.1163721  91.3765144  95.2861881  46.4651251  92.0395470  95.4657555
  23.5059953  45.9893465  22.7248573  23.7455010  45.8884335  23.6460972
  24.0165710  45.3196096  22.2698903  36.9104934  30.6456280  28.7451315
  37.8560805  30.7572961  28.6470199  36.6514850  31.3289690  29.3633485
  20.2164602  86.4413738  16.2740791  20.4094744  85.6109810  15.8388495
  19.7756684  86.9655132  15.6053376   2.6961228  48.3207893  53.1111574
   3.6479297  48.3343554  53.0106020   2.5483760  47.8448629  53.9284086
 103.7989521  47.0764542  14.5701277 104.4592094  47.1495724  13.8809633
 103.2758045  47.8736353  14.4861662  21.9046044  50.3736544  15.5689418
  21.9053054  50.6823969  16.4749825  20.9806728  50.2261686  15.3668773
  23.9142036  29.4069362  80.0657082  22.9721689  29.5718646  80.0256634
  23.9858556  28.4928894  80.3406811 105.1260471  32.3356700  65.1268673
 105.1406384  31.4440227  65.4747009 104.6644783  32.8450823  65.7929611
  35.1540089  83.9599323  45.0010777  34.7702384  84.7698879  45.3371191
  35.6293893  84.2283344  44.2148161 102.7818966  61.9386482  85.6718540
 102.2935009  62.7545309  85.7815933 102.7369118  61.7569876  84.7331333
  28.7126040  41.6386795  19.1684270  28.7141609  40.8614159  19.7270823
  28.9383817  41.3089323  18.2986426  15.0143814  21.2416220  14.7101808
  15.3530097  20.8126807  13.9243233  14.4047463  20.6064749  15.0858998
 114.2165852  61.4454603  13.0030608 115.0543594  61.1630726  13.3699787
 114.4550991  62.0280457  12.2819984  77.1429920  29.2847443  90.0753307
  77.8741837  29.5397639  89.5126915  76.4114809  29.1526556  89.4722843
   7.4522471  60.4678631   3.7259722   7.1016729  60.7239628   2.8728938
   8.0726975  59.7660780   3.5290620   9.6058571  64.4415760  15.6254768
   9.5535427  64.1381741  16.5318108  10.5430746  64.5468807  15.4618716
  39.7584844  42.9682446  28.6050940  40.4575109  42.8889894  29.2541766
  40.1859236  42.7828979  27.7689266  35.6685424  49.4422245  20.6072021
  34.9486494  49.9609566  20.9662294  35.2935600  48.5715532  20.4747248
 110.5977917 107.0903492  26.3851285 111.5428066 106.9520664  26.4488387
 110.4832745 108.0302715  26.5253568  63.0925560  73.1075907  92.2392559
  62.9035950  72.9288387  91.3180733  63.9535093  72.7163982  92.3874378
  44.7034264  45.3131580  28.5754156  44.5220804  44.3732977  28.5731149
  44.5901775  45.5767059  29.4886231  39.3106842  49.6872234  42.5442934
  38.9585280  48.9560032  42.0368099  38.5662413  50.2771711  42.6626015
  33.4548855  30.4751945  53.0866623  32.7770209  29.8631787  52.8000069
  33.5395455  31.0952616  52.3623848  22.2850204  18.3741903   4.5875269
  22.9873967  18.8141108   5.0664520  21.5741396  19.0147221   4.5630187
  85.5109692   7.5143313  82.2634125  84.7585201   7.1403426  81.8049526
  86.2623501   7.2870076  81.7157173  21.5924287  45.9192514  35.1902938
  21.0403442  46.6942739  35.2940845  22.0673943  45.8508682  36.0185242
 117.1244621  52.1526766  35.0472522 117.9969597  52.2785568  34.6742320
 116.5579987  52.0104361  34.2888904  23.8037539  72.7772570  22.2340989
  24.1075730  72.3574352  21.4293146  24.3686366  73.5437298  22.3323846
  30.7968044  28.4372592  24.5069361  30.6897616  29.2332935  25.0276113
  31.7190385  28.2038832  24.6130157  53.4288788  31.3761592  33.9814544
  53.6217451  31.2010288  33.0603862  52.4745512  31.4404559  34.0183067
  27.2773695  30.4107141  25.3627658  27.5155210  30.3471971  24.4378424
  27.4977970  31.3099670  25.6056380  98.9842033  55.8083439  20.4173279
  99.8440838  55.6378508  20.8017492  98.4491730  55.0617075  20.6865883
  26.4239740  57.6496029  16.3514233  27.3637080  57.8280354  16.3154602
  26.2972736  56.9117975  15.7549119  23.9286590  56.7029190  20.8750272
  23.4369159  57.5240612  20.8629465  23.2778931  56.0310173  20.6718540
  13.9937520  82.4317741  25.4541779  13.5063756  82.3783398  26.2762737
  13.6314535  81.7288685  24.9148321 103.6546326   5.3874910  81.3903141
 103.0689907   6.0470915  81.7620468 103.0840588   4.6448436  81.1924362
  27.2688937  77.9049110  29.4837928  27.3295736  78.6929417  28.9438343
  26.4451480  78.0044222  29.9610472 114.8641300  45.7358170  52.4607134
 115.3054905  46.2827492  51.8108702 113.9793301  46.0967350  52.5163364
  31.9612408  41.3010406  52.4191189  32.7328777  40.7843018  52.1871948
  31.2535167  40.9217262  51.8980837  34.8357892  48.2807112  49.1697168
  35.7761240  48.1022549  49.1822147  34.4681215  47.5894880  48.6190224
  46.6871500  12.3663366  46.2969685  46.4249372  12.9426110  45.5790663
  47.6440096  12.3734975  46.2725782   8.5910064  34.2875266  35.1466823
   8.8803065  33.9520407  35.9952021   9.0401083  33.7366199  34.5055580
  35.0276542  32.7515864  47.4874496  35.3664994  32.0886707  48.0890799
  34.9521542  33.5428500  48.0207729  15.0849735  50.4293445   0.6280965
  14.8076784  50.2472690  -0.2697783  14.3893969  50.9807018   0.9864492
  74.2359114  75.5320263  79.7302294  74.2461586  76.3253593  79.1947365
  75.0947380  75.5170679  80.1526356  30.0127673  26.2728667  36.3764977
  29.3829823  26.3726616  35.6626058  30.7050872  26.9023728  36.1748862
  38.1855893  45.9045792  26.1911345  38.1589937  45.7262468  27.1311998
  37.3514104  46.3357401  26.0054493  34.1845608  58.9460135  49.9870205
  34.6681786  58.9969873  49.1625500  34.3867874  58.0755091  50.3298903
  31.3971543  14.0624428  27.5297046  31.1175370  13.2810354  27.0527887
  30.7261705  14.7160912  27.3328447  36.8117118  28.4949589  15.0797081
  37.3332119  28.6503553  15.8671868  36.1571908  29.1933942  15.0842011
  12.0948684  26.7065644  17.9219699  12.7724671  26.0445309  18.0590999
  12.3272407  27.4150324  18.5222256  63.4036636  87.7378941  95.2194023
  64.3312645  87.5262165  95.3241825  63.3627367  88.6893463  95.3158188
  26.4587355  59.9856520  45.2485228  25.6140733  59.5559931  45.3833246
  26.5620589  60.0177288  44.2974567  37.6213622  41.3051653  12.2933567
  38.3570671  41.9029188  12.4262547  37.2401071  41.1971521  13.1646824
  16.9370866  51.0578251  35.8175206  16.1940384  50.7549238  35.2956367
  16.5876353  51.7853785  36.3320851  66.7824078  84.7179317  81.3761806
  67.4626589  84.6071434  80.7119370  67.0534277  84.1459942  82.0942783
   7.0598704  36.6821504  84.4419670   6.3693315  36.0297465  84.5592690
   6.7767292  37.1974421  83.6866283   6.8399662  58.1690073   6.6215825
   6.2225634  57.9213047   7.3098332   7.3977655  57.3989296   6.5117037
  24.3292522  74.3951130  35.0063801  24.5165753  74.3344069  34.0696526
  25.1705456  74.2256784  35.4303455  26.6610265  36.7135978  59.9865866
  26.4213872  37.0360065  59.1177607  26.7404175  37.5033259  60.5216169
  20.0891566  62.3631716  38.3009958  19.6934605  61.5044165  38.1520247
  20.2681327  62.6999712  37.4230623  17.8052652  42.7416945  66.4939880
  17.1088707  43.0049992  65.8923721  17.3991036  42.7756548  67.3600769
  14.6787989  77.6929808  39.9957538  15.3818607  77.5236750  39.3686414
  13.9402282  77.1768904  39.6726465  49.9832678  43.8147736  14.4568563
  50.1783752  43.4716797  15.3288960  49.5566130  43.0877590  14.0033770
   0.8216666  57.7791977  24.3389964   0.9140510  58.1200552  25.2286649
   1.5428773  57.1569300  24.2448235  14.4131935  54.4312572  46.0537052
  14.9670970  54.5443058  46.8261337  14.5256889  53.5122728  45.8107281
   7.2901028  21.3747239  37.9624724   7.4975884  22.2334218  38.3310080
   6.3711929  21.2323213  38.1895328  67.4582243  98.4736443  91.2792873
  67.0737028  98.8255882  92.0820999  67.6710081  99.2468452  90.7566738
 102.5280857  26.5444469  13.0242586 103.0375004  26.8693614  13.7666595
 101.6204739  26.5693545  13.3273256  12.4941540  24.1404891  44.8800325
  11.7302966  24.2086601  44.3072271  13.1767154  24.6375847  44.4292116
  20.9140730  59.5433903  52.7294445  21.8675470  59.6039724  52.7881622
  20.6280446  60.4383087  52.5463057  14.8248088  69.0940475   8.4761500
  14.8109567  70.0164175   8.7316442  13.9660859  68.7605667   8.7361830
  26.4976907  69.8133802  23.7120676  25.6421518  69.5534182  23.3704472
  26.9504309  70.1941776  22.9595709  31.9729280  74.3839788  13.0428362
  32.4414754  75.1822376  13.2867336  31.4651513  74.1568232  13.8218057
  24.0934110  91.7448997  44.8620892  24.1108203  91.1181259  45.5853367
  23.8652563  92.5786877  45.2731609  34.2966008  25.9544849   5.5236530
  34.8481226  25.7555103   6.2802666  33.7225914  26.6589952   5.8243340
  86.0077572  87.6713753  93.4353352  86.1881828  87.2267246  92.6071072
  86.3724422  88.5488987  93.3204746  60.4523373  51.5298414   3.0732194
  61.0268497  50.8719444   3.4648117  60.8533287  52.3671818   3.3062324
  30.0252986  80.2682114  21.8594456  29.9972486  81.1818790  22.1434450
  30.9568143  80.0480747  21.8524194  37.3593235  61.4917612  33.1922245
  37.8826833  60.8874178  33.7186193  37.2141337  61.0273838  32.3679042
  16.7077613  11.1919403  44.4686127  17.0790100  11.9439745  44.9299669
  16.1235380  11.5764165  43.8150883  48.5667801  27.2240591  53.0524111
  48.5035324  26.4157271  52.5436592  49.2817688  27.7102232  52.6417208
  99.4727516  91.3603783  39.8672104  99.3315315  90.6110001  39.2886639
  98.6110497  91.5374184  40.2445078  79.1838121 110.8287907  88.8189316
  78.3409214 110.4808521  89.1099644  78.9789152 111.6999054  88.4792042
  66.1932087 102.9630280  77.1279240  66.2081718 102.2157288  76.5299749
  66.3316059 102.5796032  77.9939890  45.8346224  14.6031654  27.5643778
  46.6114712  14.0833068  27.7705050  45.4715252  14.1907954  26.7805767
  38.1147075  41.1405468  38.8803625  37.5941253  41.6586828  39.4941711
  38.5732460  41.7901230  38.3474231  15.4211617 100.8326912  43.8347149
  15.9016180 101.6446114  43.6729193  15.8244491 100.1944160  43.2463217
  54.4498634  43.5666943  20.3375649  54.4129562  44.3792963  19.8330355
  55.3847170  43.3786106  20.4206586   7.3784149  57.4660397  26.4932513
   6.5964621  57.9278421  26.7957783   7.2122717  56.5480042  26.7073512
  21.2040472  67.9480267   2.1866366  21.7312264  67.4592018   2.8185898
  21.3817453  67.5235701   1.3472962  11.9386697  21.9718719  13.8556564
  11.4849699  21.7766380  13.0357349  12.3101258  22.8438878  13.7220883
 108.1854439  49.3292809  36.1084962 107.2409821  49.3379354  36.2638640
 108.2816696  48.9395809  35.2395272  29.7268152  41.0791826  32.7385235
  29.1338539  40.8465672  32.0240164  29.2391944  41.7206478  33.2552242
   4.8831251  84.8166466  28.0686831   4.9482244  85.3088284  27.2502995
   5.6352603  85.1081848  28.5839796  91.0679245  23.4078240  79.9524212
  91.1268425  23.4605002  78.9984894  91.9267654  23.6958694  80.2616978
  32.6306725  77.9262447  37.1317554  32.5014448  78.8129616  36.7952108
  33.5804820  77.8075838  37.1356177 100.1298428  53.1609678  18.2435644
 101.0207462  53.2506466  18.5819209 100.2249527  53.2406855  17.2944438
  18.5706520  19.4428182  93.6725903  19.3604326  19.5592070  93.1444454
  18.3573890  18.5139811  93.5830784  18.3978498  92.6500034  26.2463474
  19.0664470  92.8761864  25.5997801  17.5938153  93.0432606  25.9070706
  15.8438814  59.5517111  10.0968444  16.5546179  60.1196814  10.3943205
  16.0791659  59.3248367   9.1971779  13.3555233  57.8351545  49.1268778
  12.9920375  58.2648230  49.9011469  14.1774094  58.2967234  48.9604759
  42.3394728  47.9626608  14.6937895  42.8404665  47.1598530  14.8377824
  41.9005680  48.1241369  15.5289650  30.1530623  58.0517101  32.7637267
  29.3612099  58.1244659  32.2308969  30.5589509  57.2329235  32.4789906
  20.7951903  70.8506441  17.6345277  20.1020145  70.5600452  17.0418322
  21.4260769  70.1307774  17.6364517  49.3583536  89.7841358  15.8467591
  49.5906687  89.9768257  14.9383914  48.4873915  89.3907356  15.7929468
  36.9417739  91.0949039  15.1770556  37.6407099  90.4536724  15.0484109
  37.2547531  91.6503429  15.8910310 108.7040424  16.6229951  87.1066856
 108.8329601  16.8796492  86.1935902 109.2605400  15.8524358  87.2197437
  47.2464752  28.3371425  34.2864394  46.4929008  28.9200473  34.3790555
  47.0106459  27.7535319  33.5653186  52.5788927  64.6554518  28.5430694
  51.9912910  65.3993702  28.6754894  52.1672916  63.9367437  29.0229392
  29.0650225  75.7423925  29.8802114  28.4587622  76.4627171  30.0528836
  28.7836933  75.3897095  29.0359950  27.6234531  66.4829588  36.4600372
  27.2231269  66.0465527  37.2120476  28.1325459  65.7970190  36.0281229
  18.0928779  48.3364868   4.7351435  17.9978287  48.3052301   3.7831873
  18.2561004  49.2594528   4.9293727   9.8294675  62.9850292  38.9362526
  10.0124919  62.4328566  38.1760979  10.5301130  62.7801180  39.5553970
  34.9606085  87.7735519  54.9685669  35.3738928  88.5204411  55.4016638
  35.4610968  87.0151520  55.2695179  51.2591839  71.1498880  25.2589035
  51.5536165  71.6118002  26.0438752  51.4566708  70.2298260  25.4341698
  74.0886974   9.3081480  50.2144337  73.8475418  10.2316833  50.1426077
  73.2661581   8.8605416  50.4127026  50.6029749  67.7173185   4.6167865
  50.1776695  66.8887711   4.3957600  51.0220528  67.5535297   5.4616392
   9.7179824  30.8567095   1.5584439  10.2191973  31.0581517   0.7682315
  10.3484523  30.9509492   2.2724873  48.6978531  77.1697426  19.8152661
  49.1304207  77.0993185  20.6662393  49.4040632  77.0628643  19.1780281
  27.9698563  72.6784039  15.4216051  27.2793031  73.3219147  15.2626574
  28.2227612  72.3779202  14.5486903  28.1321239  25.3703594   7.6940471
  27.3911381  25.2948642   7.0928222  28.8547325  25.6769896   7.1462810
  66.0994196  78.6764908  38.9328146  65.6779671  78.5469675  38.0832076
  67.0134878  78.4330606  38.7863398  50.7410240  75.4187918  18.2691658
  50.1835251  75.0951481  17.5615764  50.7031775  74.7335339  18.9364147
   0.8417203  60.3478479  19.6981287   0.8824003  61.2942362  19.8356986
   0.8848751  60.2418900  18.7477911  19.8775434  86.6360569  53.5259771
  19.0669143  86.2078571  53.2507324  20.4535198  85.9159756  53.7828255
  23.6149740  26.4261222  16.9634223  23.2196212  25.6138825  16.6468883
  24.5353055  26.2049103  17.1058536  84.9880505  22.4476600  29.2840648
  84.0505981  22.3984909  29.4711494  85.1280308  23.3500767  28.9972210
  42.0026636  63.3081245  20.3996325  42.8996611  63.4266710  20.0872707
  41.5975428  64.1692734  20.2970457  21.9236255 103.2574940  25.7321167
  21.7959166 103.4229469  26.6662216  22.6547170 103.8243198  25.4862428
  44.8452616  62.5408077   5.9094769  45.0861359  61.8036699   5.3483677
  44.3880224  62.1397686   6.6486216  33.4775853  31.6398430  26.8436718
  33.9851999  30.8283854  26.8534541  33.2259655  31.7539239  25.9272075
  55.4515409  93.1476402  31.0941195  56.2973261  93.4693909  30.7820845
  54.9249601  93.0499363  30.3007746  90.5870056  26.8803310  87.9400730
  90.2745152  27.2331524  88.7732029  90.2093220  27.4593496  87.2780132
  37.1974516  45.1366615  55.2372408  36.5155530  45.2410269  55.9008312
  37.0848775  45.8900356  54.6575928  30.7887530  83.2887077  47.9147816
  30.9956264  83.5825729  48.8019562  29.9008036  82.9372215  47.9798460
  45.2204704  69.4402456  40.6188393  45.7105827  68.9523315  41.2806225
  44.4060326  68.9485836  40.5130911  19.4297242  35.2126741  77.9890251
  20.2994728  35.2102971  78.3887339  19.5195687  34.6544909  77.2166348
  40.3853750  55.3023863  19.1527808  40.1523876  54.8990870  19.9890196
  40.3155041  54.5910597  18.5160983   3.8661814  66.2011051   9.1936105
   3.9313757  65.2534866   9.3119204   3.1206301  66.3182354   8.6048275
  26.5035439  51.2097931  53.5920763  26.7882061  50.3810406  53.2068920
  25.7021403  50.9902954  54.0672731 104.2941856  99.7238159  51.5894365
 105.0336838  99.9919891  51.0440397 103.7049866  99.2692566  50.9873962
  41.1769724  50.0946283  36.9686532  41.8387175  49.6887875  36.4086342
  40.6661129  50.6452847  36.3753271  62.5862265  60.7086945  12.9937899
  62.4748707  60.5739450  13.9348924  63.1173992  59.9659538  12.7066886
  22.2439718  39.5610356  20.0941443  22.8579760  39.0284753  19.5885646
  22.0913768  40.3329897  19.5491338 105.1175022 105.9242630  91.0309982
 105.2957630 105.7469463  91.9545841 104.4878769 106.6451454  91.0426998
  68.1540728   4.2600748  43.5684013  67.7366543   3.6170381  44.1415453
  68.3850241   4.9847144  44.1495991  13.3723521  24.1855788  89.3509579
  12.9123843  23.4502220  89.7558212  12.7799368  24.4892216  88.6631489
  35.4227567  47.7994394  28.8232899  34.6613312  47.3103237  29.1351056
  35.0568485  48.4702778  28.2468200  66.0373449  39.7525644   2.6537469
  65.8805132  39.2959142   1.8272448  66.0049629  40.6812620   2.4241644
  47.5611591  74.5741224  24.7603393  47.1802092  74.0055895  25.4295778
  47.0157146  75.3605652  24.7753811  52.7807760  61.5989971  16.5687513
  52.6320505  62.5159073  16.3376844  52.4029160  61.5081167  17.4435055
  61.0310555  70.7213354   8.8438624  61.4709234  71.0905886   9.6096295
  60.1554680  70.4942513   9.1569299 108.1906223   1.5198608  75.6618690
 107.5120258   1.9606629  76.1731768 107.8598213   1.5322861  74.7637367
  21.9336367  56.1151695  40.5921364  22.8357601  56.2974930  40.3291416
  21.5393710  55.7011509  39.8244286  56.1750317  63.2179737  38.6924577
  55.7528305  62.3623943  38.6152625  55.7612276  63.6212778  39.4555712
  23.4575200  59.0397978  45.0274420  23.5695720  58.6356211  45.8878613
  22.9411840  59.8274899  45.1982450  27.1190834  42.1818733  39.6500421
  26.6804385  41.3390017  39.7657323  27.7595401  42.0253229  38.9561129
   5.3362978  89.3834972  30.5574822   4.7336707  89.9996853  30.1410866
   5.5437249  89.7846317  31.4014626  35.8186078  20.9209776   3.6149952
  35.4852962  21.5031433   2.9321933  35.8348489  20.0560141   3.2053542
 112.7221775 104.0877914  79.3871737 112.6198864 104.9160290  79.8559904
 113.0993938 104.3354034  78.5430002  54.5611858  85.8244324  25.9527969
  55.4491663  86.0308361  25.6610465  54.4620180  84.8891163  25.7750702
  69.0405655  51.7074633   4.0039271  69.5462227  50.9066296   3.8653457
  68.6259413  51.5841818   4.8578101  43.7834024  64.7707796  16.8157184
  44.5936775  65.1051760  17.2002494  43.4803677  65.4764605  16.2443912
  29.7812128  67.8860712  21.7445540  30.4492855  67.9935646  21.0675335
  30.1544881  68.3078671  22.5184965  29.8816490  26.6981721  10.6229866
  29.5120263  25.8363914  10.4307830  29.1198707  27.2704148  10.7149911
 111.1065578  72.2395277   4.3067977 111.4288139  72.4933386   5.1716465
 110.1675987  72.4229193   4.3377614  49.5830488  40.7367754  14.5172024
  50.2053022  40.0959873  14.8613334  48.8725424  40.2089119  14.1528201
  17.1673644  52.7935362  17.3554850  17.9066694  52.1993637  17.2265625
  16.5313888  52.5325918  16.6893947  33.3448696  41.8507814  22.1434593
  32.6913905  41.4719820  21.5554905  32.9843163  41.7173624  23.0200624
  44.5358896  87.3952675  67.7797842  44.0586948  88.0035591  68.3441401
  44.0343571  87.3812294  66.9646120  14.5643342  23.1401348  29.0001655
  13.8555050  23.4306455  29.5740962  14.8610306  22.3152924  29.3846583
 112.6255608   1.1086245  89.4628525 113.4294319   1.5693238  89.7032356
 112.3199081   1.5560493  88.6737919  31.5730023  59.0938568  19.5892930
  31.9637609  58.3212757  19.1810477  30.6849170  58.8201857  19.8187268
  10.0751841   4.5932829  93.6347485   9.8833013   4.4779897  92.7040863
   9.2362243   4.4479424  94.0720749  36.6329455  55.1475620  36.5059924
  36.1610651  54.3693924  36.8026614  36.0535359  55.5459213  35.8565092
  34.9399066  41.7478228  51.9770527  35.0728393  41.3222075  51.1300516
  35.8037090  42.0857048  52.2135115   5.3348595  31.8428063  19.8375046
   4.7691628  31.1226845  19.5588613   4.7410354  32.4652362  20.2572489
  56.0365438  76.1428070  42.0483494  55.6234694  75.5051804  41.4660788
  55.4345751  76.8870020  42.0541906  20.8814788  49.7390461  32.7991724
  20.6662321  50.0212908  33.6881256  20.4430532  50.3745413  32.2333455
  71.8449116  83.7577820  51.7716122  72.1509886  83.0053520  52.2779655
  72.0062017  84.5107269  52.3402023  47.5063992  70.0281477  42.9046440
  47.7532721  70.1378250  41.9863510  46.7742682  70.6319714  43.0295944
  18.2599390  48.8096285  17.6085138  17.5458229  49.0588570  18.1951606
  18.7786257  49.6080494  17.5099063  30.8016610  96.6698456   1.2589325
  30.3332949  96.5880680   0.4281626  30.1106381  96.7401314   1.9175534
  70.3642035  72.1697187  36.4186168  69.7861767  71.4108992  36.3391972
  71.1784792  71.8957472  35.9965587  41.5819740  60.5591011   6.1063695
  41.8754387  60.8805943   5.2538723  42.3558140  60.1410294   6.4840215
  21.4809847   2.7243656  96.8170929  22.4078679   2.9323417  96.6993618
  21.1741161   2.4933004  95.9403610  14.2803240  88.7480640  32.3698282
  13.7301707  87.9980469  32.1439099  14.1033733  89.3905163  31.6826820
  46.2625980  85.2050972   9.2281771  45.7939291  84.8958588   8.4529650
  47.0540667  85.6167221   8.8812220  11.6817999  86.1327267   5.0665909
  12.3216093  85.8524799   5.7210630  11.1317658  86.7674255   5.5257857
  28.9966369  51.6330051  51.7551088  28.3185697  51.0100746  51.4935541
  29.3922520  51.2431002  52.5346518  11.5220237  60.7351208  48.5777235
  12.2351694  60.7158756  49.2159128  11.3545930  59.8141241  48.3778143
  42.5430441  42.0001984  26.6055059  41.6618538  42.0481443  26.2347865
  42.8733587  41.1456490  26.3282514  36.9388127  86.9238949  28.1157947
  37.4571872  87.7284145  28.0998492  36.5193200  86.9262695  28.9761734
  24.8423243  57.9086876  23.7866044  24.8325944  57.5000811  24.6521544
  24.4946098  57.2365189  23.2005048  30.2811289  69.3299484   1.6060528
  30.1212120  69.0430450   2.5051332  29.9555659  68.6114264   1.0638662
  39.4778061  35.1822281  12.8189349  39.9739385  35.8099318  12.2935092
  39.9940467  35.0780129  13.6182272 102.9655743   2.2934234  83.5226154
 102.8360558   1.3557735  83.3802414 102.1170616   2.6077324  83.8348103
  59.3385839  99.4863701  79.0012121  60.1330185  99.0164852  78.7476015
  59.1318226 100.0336075  78.2435799  19.5230019  64.7478104  40.2475882
  19.4468212  65.4292297  39.5796847  19.8198056  63.9744425  39.7679639
  92.4249554  51.6064024  85.5639458  91.7540836  51.8954134  86.1825180
  93.2082272  52.0966101  85.8137703  44.7750425  68.4589434  11.0660028
  45.3811502  67.7623224  11.3181639  44.1650486  68.0380344  10.4602182
  45.7718182  80.4011631  33.3954501  45.3332806  79.8557901  34.0485096
  46.2993526  79.7865391  32.8853726  33.0281997  63.1681871  42.0496273
  33.3023810  64.0834475  42.1075392  32.9004264  62.8984308  42.9590988
  17.0180762  35.1874065  26.8131232  17.2228909  36.1224365  26.8119597
  16.5822065  35.0366497  25.9743595  28.0760598  64.3363619  42.1306705
  28.2436585  63.4068108  41.9755077  27.6969266  64.6515846  41.3102293
  45.9046268  49.3302298  29.9405360  46.6146564  49.7658443  29.4690132
  46.3439369  48.8403797  30.6357217  30.9327507  51.7827082  46.3580656
  30.4886818  52.6001501  46.1326313  30.5048466  51.1202002  45.8156490
  48.7876511  70.1090956  40.4352045  49.4214392  69.4177246  40.6263876
  49.1817236  70.6031561  39.7162890  36.6644979  98.8740349   4.0591022
  36.5176034  97.9607773   4.3053076  36.9865298  99.2890072   4.8593086
  32.0337605  83.1732941  24.7056746  31.5839219  83.9526272  24.3793249
  31.3283896  82.5822926  24.9691272  43.7997913  77.3034573  37.2691655
  43.3968401  76.5013790  37.6016283  44.1347408  77.7446032  38.0498266
  75.4788589  61.6161537   2.8009161  75.2393341  62.5330782   2.6663458
  75.5889511  61.5339041   3.7481999  41.4964867  64.7684526   6.6389048
  40.6842232  64.4523239   7.0345283  42.1465206  64.1020060   6.8614733
  31.2009621  95.9406757  29.5246434  30.4912901  96.4370728  29.1169810
  30.7725930  95.4314995  30.2127409  55.7025528  79.9533558  43.4619474
  56.5700293  79.5552635  43.5342884  55.1621771  79.2774057  43.0528975
  61.4081812  64.1009712  17.3868954  61.0016632  64.8903608  17.7444446
  62.1257114  64.4262981  16.8432534  26.3966870  74.6873617  14.0260327
  26.1571264  74.3690920  13.1556594  26.5121555  75.6307840  13.9126766
  70.7440186   9.6938431  73.1763220  71.4185762   9.1160214  73.5331440
  70.0300550   9.6498972  73.8123703  45.8447552  54.0121746  23.0888653
  46.7949772  54.1229105  23.1211901  45.7069540  53.3098602  22.4532557
 106.5105152  46.6520071  17.9791462 107.2309303  47.2578430  18.1529021
 105.7433128  47.0754337  18.3642936  34.8336387  16.4593363  34.7158861
  35.4558277  16.9008768  34.1378260  34.5318723  15.7042360  34.2109179
  44.8437357  52.7255630  13.9731336  44.1568804  52.1010065  14.2063439
  45.6254053  52.1870041  13.8499546  44.6845341  31.0435200   0.4218331
  45.3563309  31.4375043   0.9783380  44.4868851  30.2061343   0.8412986
  26.8432093  69.5417500  33.9596248  27.0122218  70.1131916  33.2105422
  26.7503071  70.1399660  34.7010684  21.4668632  62.9899263  35.9478951
  22.2676468  63.0544472  36.4682961  21.5508604  63.6822557  35.2922606
  65.2925205  79.1177559  18.9863360  66.1585665  78.7604094  18.7901330
  64.7829866  78.3628130  19.2807209   6.9497669  60.9220505  47.3247433
   6.2171149  61.2247849  46.7882681   7.2741455  61.7129612  47.7554083
  40.1350164  76.9258261  21.9274211  39.5686460  77.0319891  21.1631012
  40.3318501  75.9893894  21.9514465 109.5853996  48.0145788  37.8966641
 110.1984787  47.6572227  37.2542691 108.9561844  48.5133648  37.3755836
  10.4642034  81.0238934  11.2148321  10.1019001  80.3877735  10.5981350
  11.2029123  80.5701637  11.6206264 105.9669113  43.8931513  86.8487740
 105.0396252  43.6558342  86.8558502 106.0946178  44.3843699  87.6603413
  37.6748919  80.7178688  30.1901674  38.5209513  80.4701042  30.5630326
  37.8769398  80.9826279  29.2927742  59.7223997  57.7121401  30.2842474
  60.0113153  56.8334532  30.0379276  60.5275822  58.2287216  30.3166318
  15.2153134  49.5315456  15.0701272  14.7335887  48.7068510  15.1337671
  16.1248970  49.2675400  14.9315929 111.2976170  10.9790182  94.5935917
 111.2051201  11.9315922  94.6102905 111.3034153  10.7227409  95.5158234
  51.2190676  72.9630613   6.5995997  50.4638720  73.5501575   6.5644658
  50.8816671  72.1626186   7.0016974  30.9910560  66.8680716   7.6046240
  31.0067630  65.9153795   7.6960647  30.0813484  67.0729828   7.3885751
  64.9662876  71.4389229  70.8170605  65.7745361  71.9443178  70.7302094
  65.0708580  70.7124662  70.2026033  56.6248512  20.0957441  12.1788883
  56.7178631  19.1706586  12.4064767  57.4794102  20.4784036  12.3777115
  30.5252647  64.7686148  44.7339249  30.8085036  65.6820297  44.6928883
  31.2385702  64.3166876  45.1846838  84.7159195  93.5803604  75.0737381
  85.2218342  94.1122150  74.4593954  84.1391659  94.2053509  75.5130291
  37.9658031  30.3831267   2.7717340  37.6136947  30.0653529   3.6031610
  38.5896564  31.0650325   3.0208182  47.1212101  41.8482304  12.2844267
  47.9077959  42.0909119  11.7959428  47.0196962  40.9100151  12.1241760
  17.1164346  88.6697674  28.8211679  17.1837509  88.3319950  29.7142577
  17.6970112  88.1076813  28.3081174  25.0008917  90.1990891  47.1663809
  24.8130798  90.8378124  47.8541279  25.9492970  90.0759602  47.2063732
  55.3760862  64.6613359  41.1022949  56.2186575  64.9821806  40.7807875
  54.7678852  65.3827477  40.9413910  14.5330608  80.7707882   1.8797736
  14.7492731  80.8659363   2.8073674  15.3517282  80.9621239   1.4221668
  23.7080669  98.2785320  23.4376931  23.4924245  98.9298248  24.1051888
  23.8764024  97.4760628  23.9315963  34.7643089  56.3150358  17.2884059
  34.6711230  56.1882830  16.3442230  35.4423070  56.9852352  17.3743320
  78.0971241  71.7229986  53.8667202  78.8519859  71.3445282  53.4159660
  77.8500557  71.0636759  54.5151663   1.8197627  89.0839767  60.7324171
   1.8640645  88.7024021  61.6091585   2.3092492  88.4738827  60.1806736
  46.2593555  26.0273552  56.7847443  46.4986515  26.9513059  56.7120695
  47.0952511  25.5613184  56.7667294  63.4883881  83.9076900  30.6155610
  64.2006636  84.4936371  30.8716083  63.8986111  83.2757759  30.0251007
  67.5949383  77.2626591  44.6485281  68.3493233  77.0831871  44.0873480
  66.8614626  76.8330193  44.2084646  65.3789997  63.9907598  12.3869574
  64.4300508  63.8772535  12.3336148  65.6985378  63.7474728  11.5180838
  38.8647294  49.5682955  30.1367903  38.2213902  49.0503502  30.6206083
  39.4259644  48.9185381  29.7136307  30.1637244  88.8260174  51.8253899
  29.9925017  89.5810604  52.3882675  30.9827018  89.0409374  51.3789368
  12.2374022  56.1931372  45.0218201  12.8400433  56.9167233  45.1935053
  12.7137566  55.4124928  45.3045130  30.4096746  70.4910612  38.9650273
  30.3414726  70.7546139  38.0473566  29.5225263  70.5924034  39.3098950
  31.6506839  30.3985310  31.6380382  32.0724368  29.7801566  31.0414076
  31.6539669  31.2296510  31.1632085  16.5538263  73.7361431  49.7238016
  16.4258206  74.2659712  50.5106497  15.6903207  73.7066221  49.3118334
  55.3889513  71.8383503  41.2574530  56.0123587  72.5572252  41.1534882
  54.5737410  72.2646332  41.5219307  52.0982933  60.8383369  10.0547922
  51.4726639  60.8761215  10.7782483  52.9475737  60.7150745  10.4787743
  91.1027658  71.5692839  96.1755635  90.8420980  72.1358988  96.9016703
  91.4424694  72.1704444  95.5126604  15.6446409  97.6070786  22.2517228
  15.1020217  98.3382988  21.9565916  16.4699054  98.0130196  22.5170135
  37.2251701   1.7160730  18.9280772  37.4105239   0.8675457  18.5257375
  38.0879951   2.0895743  19.1076851  51.4449644  40.2978325  17.1812844
  51.5081882  39.6148229  16.5136552  52.1111965  40.9384680  16.9323790
  50.1212358  64.0565920  18.0978644  50.3217745  63.1211329  18.1284451
  49.3721104  64.1217136  17.5055826   7.2765255  28.5845613  30.3241587
   7.7119493  28.6497688  29.4742250   6.3594025  28.4124660  30.1108503
  84.5631218   5.5610496  17.8931701  84.8660183   5.9580404  17.0765424
  84.0945148   4.7733536  17.6171720  54.9804354  72.7579927  44.2255735
  54.1685867  72.5568485  43.7600946  55.6350660  72.8557682  43.5341024
  67.6118898 108.1245232  86.0455322  68.1973457 108.8256073  85.7592392
  67.0327663 108.5416126  86.6834068  32.8490543  34.1842246   5.4707408
  33.2773495  33.9199924   4.6565080  33.0977702  35.1013970   5.5854958
 109.8294544  22.0157456  95.4458714 109.4272327  21.7310977  94.6252537
 110.0413895  21.2022114  95.9035587  23.7337971  61.7967415  21.1919451
  24.0547132  62.6941633  21.2807226  24.4941902  61.2990999  20.8912992
  28.5766149  82.9332161  53.7894249  29.1618490  82.1758080  53.7814903
  28.8772511  83.4604549  54.5296097  41.8623638  84.5438766  25.6830668
  41.5170193  83.8454914  26.2391543  42.8090191  84.4021893  25.6807470
  20.7808161  79.6272230  52.9267740  20.5220270  80.5410862  53.0455494
  21.2578177  79.6192837  52.0969343  52.2506857  58.1090498  28.8060999
  51.7760658  57.9311419  27.9941154  52.9711914  58.6811781  28.5419440
  41.8248272  87.4474144  48.9070082  41.9536543  88.2897377  48.4709692
  42.2623587  87.5460625  49.7526217  45.5241919  92.7473450   4.2062768
  44.5798445  92.8976727   4.1633165  45.6249714  92.0361805   4.8389938
  17.1604216  64.0509892  36.2996435  16.4283013  63.6943531  36.8026781
  17.4402046  63.3278322  35.7383966  30.2817988  33.4262538  45.9855032
  29.8621011  33.0349731  46.7516518  30.5774951  32.6784253  45.4663229
  11.2395525  61.4839220  45.4232502  12.1675575  61.7185163  45.4215956
  11.0562670  61.2380934  46.3300085  31.4843369  49.9978828  15.4964209
  32.1477079  50.6108809  15.8132756  30.8560991  49.9320078  16.2155938
   3.1928578  55.9350920  16.8537104   2.9560682  55.2453518  17.4737263
   3.1082961  56.7465353  17.3543477  25.6273675  66.4106035  23.1385374
  26.4258838  66.3000393  22.6224208  25.9066081  66.2745047  24.0439296
   4.3437994  46.8019295  30.6243062   4.5199713  46.5151596  29.7282243
   4.2680311  45.9897566  31.1251712  32.0558691  83.0605316  61.7402792
  31.7082167  83.5694599  62.4726486  32.6180673  83.6743164  61.2675905
  49.8137569   8.0190933   6.6896647  48.9931488   7.9438782   6.2026548
  50.3387785   8.6365300   6.1803979  78.5641670  74.9968767  85.7555008
  78.3953428  74.3797684  86.4674759  79.5052290  74.9262047  85.5953789
  43.5207367  85.5551338  10.5660069  43.7535810  86.4403057  10.8461618
  44.2905569  85.2444553  10.0894737   6.6716784  37.5287342  16.0500813
   7.2338182  38.2473135  15.7604706   5.7902372  37.9018950  16.0566878
  75.2554703   3.8062274  21.4276457  74.3864107   3.4205416  21.5381646
  75.5045033   4.0914327  22.3067784  55.1621866  65.8919001   3.0583435
  55.1144123  66.8476391   3.0355698  54.9310923  65.6619167   3.9583063
  47.8374529  67.8230810   2.4597339  48.4556246  68.3193636   2.9961994
  47.8884554  66.9298363   2.7999458 101.2664890   6.4845425  94.0427399
 100.4979420   6.0497105  93.6732864 101.2435150   6.2617135  94.9733543
  23.4848475   8.6739200  96.2671471  23.0457664   9.3381482  95.7358837
  22.7855897   8.0738544  96.5263557   3.9914137  62.9657698  13.0817080
   4.4460407  62.1509218  12.8682399   4.6757114  63.6347103  13.0595875
  -0.2648653  56.5142918  28.1103969   0.2375495  55.7174587  27.9404783
   0.3859221  57.1479321  28.4124088 116.2136173  17.8793442   5.2250141
 116.7957973  17.1275425   5.1150364 115.5552864  17.7749848   4.5380422
  10.7523465  68.3167171  36.8685818  10.9249330  67.3947811  36.6775942
  11.0658383  68.4384251  37.7647638 108.1848812  13.3863544  50.0095081
 108.6472130  12.9203320  50.7061434 107.4578476  13.8219929  50.4543400
 110.9830666  19.3965900  90.6777763 111.6080189  18.6729145  90.7220745
 110.6139374  19.3406689  89.7963810  67.9595709  84.9628448  93.2417107
  67.3613214  85.4985237  92.7207756  67.6106548  85.0107384  94.1317558
  18.8152504  74.0531826  24.8461366  17.8860784  74.2822456  24.8661304
  19.2460644  74.7576094  25.3302979  32.5950384  27.5070810  36.2108970
  33.2337594  28.1632137  35.9320450  33.1251884  26.7842722  36.5466332
  29.7395802  51.4179707  48.8989305  29.7108173  52.0174074  49.6446419
  30.3164244  51.8483019  48.2678223  55.0597191 108.5820866  36.8703198
  55.2420807 108.8686371  37.7652311  55.5804157 107.7861214  36.7628980
  39.1614199  63.0255747  21.0333753  39.8909307  62.4095869  21.1012340
  39.5783925  63.8852882  20.9762931  15.5966151  52.1558475  32.8668070
  16.0305214  51.3737154  32.5258946  16.3140988  52.7352142  33.1233001
  22.1525288  69.7500277  37.7758932  22.5200272  69.9922943  36.9259024
  21.9133282  70.5841494  38.1799388  19.5467103  54.3790245  47.2853184
  19.1367793  55.2216625  47.0899916  20.4311156  54.4541311  46.9269657
  39.7619367  54.0846157  21.4505839  39.4422889  53.5963583  22.2093058
  40.3164148  54.7701502  21.8231797  52.4089098  61.8894148  21.7037821
  52.6133919  62.6670504  21.1844587  53.1186628  61.2775660  21.5085149
  37.5150084  91.1551857  39.5291090  36.6461825  90.9161377  39.8519564
  37.7521539  90.4457378  38.9318800  35.3905058  57.0006895  39.3401241
  35.8619189  56.5613365  40.0479126  36.0755825  57.4238920  38.8226295
  28.4521604  20.7078218  91.1354351  27.8560638  20.7534862  91.8829823
  27.9417992  21.0488391  90.4009533  58.9945364  83.4526539  62.8137732
  58.3258295  83.8777351  62.2767735  59.1883183  82.6362610  62.3531485
  50.9620047  62.8762627   8.7734914  51.3000488  63.4896946   9.4259161
  51.2666273  62.0187998   9.0704685 112.2113895  12.7040136  91.5805244
 112.7568436  12.7507627  92.3657131 112.6735306  13.2394993  90.9356213
  16.1828685  74.5280838   2.8916565  16.6439557  74.3035650   3.6998773
  16.4269567  75.4378605   2.7214760  48.2044792  52.9627132  17.5749707
  47.4377012  52.4094200  17.4261475  48.0653381  53.3357668  18.4454322
  25.8461905  70.1058769  37.2649097  25.2438045  69.3625021  37.2924614
  25.2820587  70.8745527  37.3493385  56.3078690 108.6073303  13.8420415
  56.9576979 108.0329895  14.2471194  55.6049633 108.6674881  14.4889820
  49.8498631  95.4412937  61.1315060  49.5043564  96.0864639  61.7484379
  49.0768194  94.9721813  60.8175421  78.0674267  45.5274487   9.5825928
  78.8800192  45.4086065  10.0743282  77.3923826  45.1366711  10.1374316
  55.6804800  75.9797335  20.0940633  55.0682878  76.4312840  19.5130706
  56.4239311  75.7583714  19.5332503   6.4459890  18.7702215  95.7356358
   6.9025314  17.9349780  95.8364773   5.5174184  18.5430324  95.7843590
  45.3566837  93.1997967  59.1142750  44.9723816  93.2243443  59.9905968
  44.6918488  93.5945797  58.5500383  42.7617884  80.7203865  28.1315947
  43.1066513  80.1744175  28.8381481  42.8000736  80.1607513  27.3559856
  65.3870106  80.3128910  55.9281683  65.6833315  79.9521875  55.0925159
  66.0678339  80.9394073  56.1735010  68.6084461  72.2655249  17.1255565
  69.2611217  72.0156956  17.7796447  68.8125706  71.7227077  16.3640356
  57.1694517 104.0367603   1.1690656  56.6354227 103.9454269   1.9581804
  56.6540241 104.6036911   0.5953401  31.3889432  24.5147896  69.6302271
  31.4040279  23.5577226  69.6249580  32.3035455  24.7680616  69.7550917
  51.7077065  60.2337170  40.8578491  51.1421394  60.1501083  40.0901413
  52.5968075  60.2102327  40.5040407  20.6602693   5.0564224  84.7529888
  20.0154543   5.6653082  85.1131344  21.4449930   5.5885875  84.6216869
  70.4275894   3.8822055   9.1899282  70.2221918   2.9496020   9.2554528
  70.6477833   4.0147558   8.2678771  37.6255178  89.8106003  52.8156805
  38.3082986  90.0145245  53.4547901  37.7619410  88.8866615  52.6060152
  11.1438096  57.4555588   1.5590459  11.9895566  57.8972816   1.4827174
  11.0761738  56.9284773   0.7629067  66.8010235  75.6180954  23.4883332
  66.3209534  74.9024105  23.9049387  67.7228117  75.4029846  23.6307001
  57.7697802  84.7201252  38.4251499  58.5984993  84.2419720  38.3964038
  57.1004963  84.0470409  38.3016348  52.7810431  71.4767027  28.0245018
  53.0927849  72.1552610  27.4256682  53.5033178  71.3499355  28.6397099
  51.2798262  87.0012188   6.0344535  50.7170153  87.4662971   5.4154402
  52.1696281  87.1809959   5.7308745  36.0346937  64.3770552  14.1242397
  36.6197395  64.4421339  13.3694434  35.7179785  63.4739828  14.1046298
  52.6395559  65.5385685  38.1481433  52.9359770  65.0831223  37.3601484
  51.8004894  65.9262657  37.8993678  45.6607389  54.4943142  40.6056643
  46.1084890  54.2341518  39.8006392  45.3535128  55.3840828  40.4320288
  21.8814516  52.2751617  89.7978306  21.4569235  52.9490280  90.3287888
  22.2007418  51.6349888  90.4338074  41.5580750  82.8417301  52.3549223
  40.9402895  82.3690796  51.7970896  41.7198467  83.6631012  51.8908024
  58.9565420  73.3807659  51.2180424  59.4264650  73.2450819  52.0408392
  59.6459055  73.5187244  50.5684471  21.3979673  98.1507874  30.5678105
  21.1656213  98.1655502  29.6393538  22.2193193  97.6603985  30.6013989
  57.9498196  76.6353846  39.3429589  58.5295534  76.1527824  38.7536955
  58.4894514  76.8200779  40.1116657  35.9239173 107.8190708  51.6457033
  36.2262034 108.3687878  52.3686600  36.2731504 108.2418156  50.8611250
 101.7117786  10.0307071  62.8179550 101.3610077   9.4121158  62.1772289
 100.9387016  10.4592514  63.1852722  79.0521812  91.8343925  53.7122345
  79.1229010  91.3863182  52.8693485  78.8549423  92.7429867  53.4846735
  27.5187302 108.3768272  26.9232368  26.5782619 108.5148525  26.8105483
  27.5911307 107.4834728  27.2592497 101.9232941  77.4766779   1.8123877
 101.8864441  78.2312298   1.2245743 101.0066700  77.2474623   1.9656478
  94.6081161  90.3598022  33.0299711  94.6777630  89.4516754  33.3243918
  93.6684799  90.5422115  33.0361986  78.8848782  14.3884122  46.5353346
  78.5487032  15.2086949  46.1742878  78.2323313  13.7329614  46.2887621
  33.8286495  84.4585800  14.8370230  33.3751178  83.7846565  14.3307042
  34.6611691  84.5812416  14.3808413  85.5167198   1.2991190  10.7800627
  85.1114368   2.0314649  10.3156829  86.2491131   1.6923106  11.2546456
  21.3066173 110.0730610  64.4312429  21.6194344 109.2349434  64.0907240
  20.9673214 109.8661613  65.3020477  43.6414289  66.7149258  42.6383066
  43.8660622  66.4100456  41.7592049  43.1755114  65.9790087  43.0352640
  30.3668094  53.2703066  34.8962808  29.9430919  53.7673616  35.5960155
  30.6309748  52.4494171  35.3117228  55.1858234  88.4263706  46.1559200
  54.4657946  89.0529251  46.0836220  55.4825401  88.5060596  47.0624733
  54.4885778  69.0129328  36.1992407  53.6693001  68.7761927  35.7645369
  54.3188524  68.8614559  37.1290135  46.7463636  81.1664963  38.7342238
  46.7425346  80.9691715  37.7975917  47.4079132  81.8513584  38.8320088
  37.8771472  54.7073364  47.9383898  38.1443882  55.6128550  48.0960417
  36.9254732  54.7172165  48.0406189  40.5338669  65.5122948  19.9678719
  40.0447893  65.8249140  19.2067504  40.3116322  66.1291409  20.6652522
  23.9256001 100.3122997  28.7712812  24.4078684 101.1345673  28.6845970
  24.3725514  99.8458004  29.4775724  34.4236970  74.7215986  64.0914917
  34.5008278  75.6442213  63.8484955  35.1239276  74.2864704  63.6051035
  80.3582764  89.2497158  26.3118172  80.4167175  89.6962643  27.1564531
  80.2533340  89.9559402  25.6742740  66.6381502  87.5099277  27.1527123
  65.7989693  87.9249859  27.3520446  67.0251989  88.0651760  26.4758658
  48.3921242  67.3069000  16.5908027  49.2379379  66.9610023  16.8757308
  48.1103325  67.8727341  17.3095930  82.8876114 104.9313068  89.2969990
  82.3658085 104.6442795  88.5476208  83.1721401 105.8155918  89.0661049
  59.5444202  70.0086832  43.5147333  59.3707323  69.1861820  43.0569601
  58.8746738  70.0488949  44.1974163  54.6828079  91.8525314   6.6923803
  53.7587929  91.6027546   6.6860735  54.9953699  91.5922356   7.5588590
  12.4725533  58.3702230  19.3036890  13.4119272  58.4132147  19.4824660
  12.1319258  57.7600765  19.9578452  59.8400164  64.0805340  20.3084707
  59.2397451  63.8462639  21.0163021  59.3781233  63.8275814  19.5091569
  53.5843945  71.4758539   7.4077529  53.2270336  72.3286343   7.1601820
  54.4251633  71.4272642   6.9527990  50.1854372  49.6261930  33.7158823
  50.5886841  50.3822517  34.1424966  50.2563715  48.9216900  34.3599868
  96.0912407   0.9490631  40.3139877  96.5634334   1.3676880  39.5942497
  96.3961160   1.4056347  41.0980940  86.5734005  61.1844826  51.0111046
  86.1131573  61.2045145  51.8501568  87.0141888  60.3348875  50.9999371
  69.4163418  65.6925869  26.6629004  70.2657890  65.3248405  26.9067001
  68.9889574  65.8824825  27.4980736  44.5515680  62.5831938  22.8139377
  45.3552246  62.0721388  22.7180505  44.5369911  63.1531334  22.0450521
  27.5438976  87.4725819  25.2599549  27.5401354  88.4292221  25.2272677
  26.6311359  87.2349167  25.4230857  44.1123724  91.9056416  20.8916068
  43.8341379  91.3305092  20.1788378  43.3071184  92.3340511  21.1819100
  33.4393120  57.9939842  41.1438942  33.6817837  57.4075603  41.8605185
  33.7262511  57.5372553  40.3531408  50.8797073  76.9715166  33.4017944
  51.6469860  76.7501879  33.9295530  50.3111124  77.4585009  33.9982653
  50.6143236  68.3492517  24.8639774  49.8018169  68.6072969  25.2992702
  50.7312155  67.4292278  25.1008892  67.1354437  99.4643688  60.8305550
  67.6193571  99.2160511  61.6182041  67.6221609  99.0592766  60.1127481
  29.7316003  65.3721571  32.6794195  29.9547982  66.0334492  32.0243597
  30.2531886  65.6090546  33.4462714  31.0060191 101.1015606  66.4343500
  31.5279341 101.3511467  65.6717587  31.6341853 100.6965256  67.0323372
  61.6489553  75.8579731  24.7750092  61.3655806  76.5431547  25.3803682
  61.9688845  76.3331938  24.0081692  33.7879443  74.8146200  47.7560472
  33.3068943  74.2896891  47.1163034  34.7094321  74.6616125  47.5470495
  25.7624817  88.9712429  13.8657486  26.6666317  88.8289356  14.1459119
  25.7974768  89.7707558  13.3405983  30.8174872  54.8984194  24.2975569
  30.8999228  54.1331434  24.8665833  30.0438285  55.3576469  24.6243453
  22.7368021  62.8357601  30.0360966  21.8684387  62.5363922  29.7667313
  22.9491258  63.5384464  29.4217825  22.2026181  71.5565872  24.0340567
  22.7790809  72.0044374  23.4149003  22.2639251  70.6323051  23.7928629
  58.1158066  53.8059711  12.9193366  59.0377760  53.5997009  13.0731392
  58.0691481  54.0128946  11.9859350  56.4023018 100.1772022  60.8553457
  55.8412266  99.8258591  60.1639843  56.6749191 101.0350513  60.5297613
  93.0579281   5.7185888  42.8395033  93.2947445   6.5183663  42.3699236
  93.4720135   5.8129817  43.6973238 112.4240780  91.2693501  10.0967848
 112.4279785  90.4105949  10.5195701 112.7237797  91.8725204  10.7769275
  44.3124342  82.9571152  23.6574149  43.5386562  82.8839111  23.0987144
  44.3647861  82.1130753  24.1058445  11.7151690  61.8576956  86.3759422
  11.4282405  61.2518883  85.6926441  12.5045848  61.4546394  86.7373180
  85.7657909   5.2867067  46.1131573  85.8097553   4.4609782  45.6310081
  84.9939156   5.1969087  46.6720629  16.4392555  96.5787697  41.2075138
  15.7919240  96.8356419  40.5508471  16.5737033  95.6429195  41.0580301
  48.2675076  47.9807901  10.0369310  48.7362051  48.5123539  10.6803513
  47.8776550  48.6178637   9.4382811  35.4321384  33.8952994  27.3999429
  36.3433266  33.6315250  27.5279760  34.9974322  33.1060243  27.0769787
  35.2164555 104.0522575  26.9740129  35.7415962 103.2750797  26.7830706
  35.8589029 104.7509575  27.0977139  31.3194466  70.0472021  23.3661962
  31.8709373  70.5361366  22.7554321  30.4881120  70.5216455  23.3707094
  60.6622982  98.9937878  28.8368106  60.5979156  99.3810368  29.7098136
  61.5563250  99.1868114  28.5545158  81.0982895   3.3145595  93.1488323
  81.5523911   4.1545272  93.2157612  80.8917427   3.2274294  92.2182465
  32.4798727  42.5039101  16.8390393  31.9991040  43.3248091  16.9449675
  33.1552076  42.5326920  17.5167775  36.3734031 101.8680668  25.5180025
  37.2404242 102.1974850  25.2813792  35.7979918 102.1872234  24.8228288
  19.0132439  68.8509607   6.6101599  19.1269469  68.0355310   7.0984006
  19.8410738  68.9685678   6.1442214  40.0472164  81.0011196  25.1726866
  39.4991112  81.5226936  24.5863652  39.4718075  80.7801151  25.9050083
  52.5182343  95.5119133  31.6902447  52.2505140  96.2279797  31.1142278
  51.8400812  95.4810429  32.3650694  58.2018614  68.0504990  46.7187309
  57.3013687  68.3721161  46.7623472  58.7405014  68.8409567  46.7544699
  69.1341066  82.0287228  34.3524218  68.9047146  82.6667500  35.0280929
  69.9897861  82.3152161  34.0330958  66.0459900  86.0856628   8.1306624
  66.6798878  86.7934036   8.0144107  65.7766056  86.1534691   9.0466678
  27.0946217  77.1915007  36.3601184  27.4751353  77.5984144  35.5817461
  27.7811384  76.6095018  36.6860104  37.3911929  84.4295311  38.6889362
  37.9068851  84.3794918  37.8840828  37.5607085  83.5992241  39.1340160
  96.2752342 100.5933285  64.4105244  95.8500481 100.8229351  65.2367973
  96.6700935 101.4114666  64.1089010  21.2344790  92.9458427  32.0407367
  20.8412194  93.5738754  32.6466632  20.5580282  92.2808361  31.9126177
  76.5091991  83.3371639  23.8294172  75.5664349  83.3643913  23.9927602
  76.5865374  83.3171368  22.8755569  71.5368795  88.7065029  43.3829880
  71.2109947  87.8614616  43.6927223  71.8972063  89.1253471  44.1646338
  53.2061672 103.0456829  28.6474228  52.6295567 102.8585243  29.3881822
  53.6635637 102.2205734  28.4854984  62.7843428 101.4240551  18.9374816
  62.0924473 101.6191959  19.5694911  63.5557795 101.2441158  19.4748235
  39.4221640  96.3850975  58.5520124  39.5628119  95.8935165  57.7428150
  39.5590687  95.7434082  59.2489481  48.5661602  80.8532906  51.2407398
  48.1017351  80.6891537  50.4200077  48.0164194  81.4846039  51.7049026
  82.5521755  86.7338753  29.8856091  83.4048653  87.1557999  29.7801232
  82.0660782  86.9757938  29.0973115  46.6562843  66.7086887  25.9605360
  47.0482922  66.6200399  25.0917983  45.9334087  66.0812473  25.9622741
   5.1251006  98.8634777  41.0002470   5.5610359  99.5384598  40.4800606
   5.5358934  98.0446529  40.7227468  19.2813373 107.7418518  29.4688272
  19.6516097 107.4199581  28.6469269  19.0010786 108.6355782  29.2714930
  15.0391555  69.5625257  41.0501385  15.0611448  68.7871552  40.4892874
  15.1229477  70.2988243  40.4442787  24.0620327  79.2048502  27.8038144
  24.3361640  80.0942326  28.0276108  24.7865033  78.8541317  27.2857714
  44.1793108  10.3241968  87.0370579  44.6112633  11.0792351  87.4365139
  43.7299156  10.6825888  86.2716579  96.1943722  42.5125456  55.4486370
  96.9452000  42.4606562  56.0400629  95.8379078  41.6242933  55.4356003
  60.9739590  62.8402853  22.9213238  60.0277901  62.9124069  22.7956295
  61.3053465  62.5363159  22.0763302  27.3101854  83.1728840  13.6492431
  27.3477674  82.2487831  13.4025621  27.0588613  83.1642151  14.5728183
 102.1576786  12.4236584  40.9397173 102.0244980  12.8118169  40.0749445
 101.6163445  12.9526842  41.5256500   8.8270617  52.6341295  57.1917868
   8.5331178  53.3442831  56.6212559   8.4867245  51.8397665  56.7802143
  82.8547192 105.3827763  77.8944254  83.1295681 104.6948242  78.5005665
  83.0532360 106.1992645  78.3528709  40.8537436  96.3302231  54.5499229
  39.9445653  96.0308552  54.5523167  40.8883238  96.9964981  55.2362919
  22.6046872  70.1847935  35.0151443  22.0675445  69.6167755  34.4628191
  23.2312584  70.5832529  34.4110990  79.1572523  66.6896009  30.6491232
  79.6311331  66.5841532  31.4740777  78.2650948  66.9152021  30.9125376
  35.4720592  71.8974113  26.5222955  36.3124418  71.6779613  26.9245744
  35.2051473  72.7095032  26.9529939  50.3775454  55.7274914  29.1238022
  51.1948156  56.1669254  29.3587422  50.2059174  56.0059309  28.2242227
  40.2427101  48.3202124  39.1781163  39.3405581  48.6134386  39.0501785
  40.7670879  48.9203310  38.6479068  63.7454844  70.8468342  34.9659252
  64.2180490  71.6775942  35.0183940  64.4112730  70.1812220  35.1388788
  45.1052094  75.5122042  49.3479872  44.4121170  76.1711645  49.3076324
  45.8545256  75.9261990  48.9197779  45.7069016  71.0694695  22.1582580
  46.4946079  70.5296755  22.0921159  45.6616688  71.3149500  23.0823398
  11.5728402  69.8174524  34.5374894  11.5519571  69.6623611  35.4818106
  11.3335931  70.7392168  34.4408083  70.5765438  74.2966080  10.3533888
  71.2714291  73.7826872   9.9419868  70.7644606  75.2001476  10.0993562
 114.7756100  30.8744431  93.8796520 115.3081799  30.1527715  94.2140102
 113.8796520  30.5379081  93.8946915  56.9756556  78.6727858  10.8961642
  57.1382236  78.4931803   9.9701279  56.3957119  79.4342947  10.8942294
  52.4128485 108.8136387  14.9875891  52.8678703 108.5402870  14.1910529
  53.1052828 109.1537380  15.5542481  38.9446378  89.1307259  49.3554163
  39.7087479  88.6084175  49.1113758  39.2911744  90.0123119  49.4930458
  64.7822380  75.0154448  25.4103065  64.4760036  74.1193247  25.2709389
  63.9818716  75.5392504  25.4459453  32.3741007  70.4004860  19.6272779
  31.5359807  70.7665014  19.9098003  32.2872782  70.3076077  18.6785591
  43.7583494 100.6803608  18.7955475  44.3440199 100.0420570  18.3883810
  42.8788185 100.3564167  18.6013484  60.0903177  10.0123179  47.7351809
  59.4766235   9.3191767  47.4919415  59.5612907  10.6376493  48.2304859
  50.6626034  95.6697941  43.1413364  51.0874224  94.9472427  42.6790857
  51.1040545  95.7037163  43.9899826  93.2510090   2.2218888  18.1322432
  94.0040493   2.4230656  18.6878419  93.4053898   2.7204463  17.3298466
  62.4584293  58.3020449  40.5087900  62.3484468  58.3419704  39.5587683
  61.9464254  57.5391769  40.7773304 116.0652351  28.1944776  94.8326206
 115.8554649  28.3094668  93.9058018 117.0182323  28.2738686  94.8741436
  74.0463686 102.8566647  51.8003845  74.0656567 103.6069965  51.2063551
  73.5856676 103.1769276  52.5758934 114.7673035  14.8884988  17.5998032
 114.7478676  15.6536090  18.1746602 113.9062977  14.4848251  17.7091515
   4.3769848  32.1276517  96.6365430   3.9213192  32.6951165  96.0147781
   5.2782929  32.4499364  96.6388681  69.4872046  17.7254665  24.8599339
  69.5935440  18.6761963  24.8277545  68.5423756  17.5877190  24.7924519
  46.5417433  94.1056061  24.5121026  45.7248926  94.0157795  24.0212679
  46.8083286  93.2057285  24.7002220  50.5322313  74.9984694  43.7384605
  50.9259510  74.1719532  44.0178919  50.0453472  75.3028393  44.5043135
  93.6107159   5.0618398  24.8969412  93.1370640   4.8661125  25.7053828
  94.5102406   4.7864375  25.0736976  38.8048410  50.1715708  25.5586743
  39.1541624  49.3023014  25.7550812  38.9545345  50.6761169  26.3582110
  50.8400393  53.4217072  33.6271691  51.3358736  54.2345524  33.5288620
  50.1455641  53.4839725  32.9713798  10.6472480  28.8166475  92.8217697
   9.7893238  29.2036891  92.6474285  10.4913497  28.2015657  93.5384274
  26.9402266  74.2565680  56.9392872  27.1375108  73.3789539  57.2665453
  27.5644255  74.3922901  56.2264156  51.6399813  55.4278612  38.7254047
  51.9382191  55.1287842  39.5843792  50.7101440  55.6192064  38.8479686
   7.6038569 108.0163670   7.2619528   7.7127588 108.9392185   7.0323420
   6.6833818 107.9390049   7.5128919  46.0905027 109.6697903  12.9190147
  45.4937744 109.7545338  12.1753967  46.6476774 110.4464912  12.8687203
  45.1705837  48.8179111  36.3383055  45.3162909  48.0099773  36.8304896
  45.3234577  49.5167065  36.9743395  51.4333296  66.9654512  29.7269654
  51.4830542  67.1860790  30.6570625  51.9592428  67.6372623  29.2930031
  53.6514330  43.6036825  11.7856371  54.1802502  44.2130852  11.2706470
  54.2231607  42.8486347  11.9244158  69.7995615  95.6442165  21.6181922
  69.7722912  94.7001648  21.7739367  70.5726624  95.7741165  21.0689449
  40.4429674  59.0728617  32.5978827  39.5381021  58.7932110  32.4591470
  40.9605646  58.2763529  32.4799967   3.9777485  17.4090326  91.2418175
   3.5683095  17.5884926  90.3954220   3.8491356  16.4700234  91.3758087
  70.7275248  75.8992338  26.0835695  70.2678299  76.7130613  25.8771801
  71.2088108  76.0933590  26.8878794  81.5975189  78.5922527  39.1914368
  82.3427010  78.8907003  39.7128415  81.0186863  79.3530941  39.1434979
  67.3223495  71.4891386  32.1210074  67.0058680  71.7587757  32.9831958
  66.9659948  70.6090879  31.9995236  25.7007694  25.6948090  81.8680382
  25.4468369  25.4338551  82.7532768  24.9514604  26.1925077  81.5408325
  24.2238212  95.7067108   9.3393904  24.3374801  95.9713268   8.4265429
  24.9806714  96.0783291   9.7925007  87.6288033 109.2377949  24.9738336
  87.9060268 109.6241951  24.1431284  87.4985218 109.9871922  25.5549216
  11.5340340  96.2691307  23.7463951  10.7770586  95.8332157  23.3549905
  11.5617967  95.9401321  24.6448493  50.4688692  74.8279333  41.0951948
  49.8165035  74.1507292  40.9161901  50.4655409  74.9177790  42.0481634
  32.5500798  49.1496611  22.0069861  32.6014423  50.0828266  22.2138429
  32.5461459  48.7151337  22.8598666  65.4226542  88.2528973  16.4165318
  64.8156214  88.6101246  17.0647097  64.9040651  87.6117134  15.9305370
  57.2778416  22.8987646  48.0196238  56.5259123  23.1332564  47.4757051
  58.0302477  22.9717326  47.4324274  81.0998074  39.3711037  96.3558761
  81.9967795  39.0584035  96.2380027  80.6456274  39.1025014  95.5572475
   3.2665554  78.2649660  39.4301558   4.0860114  78.1738901  39.9163961
   3.4340912  77.8289795  38.5946465  95.7637691  29.1815233  88.7536907
  95.4615688  28.8647008  89.6048832  95.1786327  29.9105859  88.5479736
  40.5959749  94.2927551  37.8108549  39.8498583  94.8748112  37.9548836
  41.3620329  94.8610973  37.8906631  52.6999855   3.8486320  43.9028835
  52.9408360   3.0250427  43.4787130  51.7428255   3.8434002  43.9100456
  57.5517750  96.0867500  47.6545858  56.9602060  96.7532825  48.0038881
  57.8547907  96.4482212  46.8216705  39.3889618  91.4799118  44.5479536
  39.0749764  90.8667469  45.2125406  38.7716722  91.3838577  43.8227272
 109.3378258  63.2201052  93.4520340 109.2113304  62.9463863  92.5435638
 109.7211933  64.0948009  93.3874702   9.3381035  45.1871157  24.0547061
   9.8820460  44.4128466  23.9102554   9.9224555  45.9256697  23.8835359
  76.9124889  81.2993336  35.1629877  76.5249443  80.9631824  34.3548775
  77.6666498  81.8118668  34.8718166   9.2278105  10.7423830  92.8341103
   9.0628469  10.6460667  91.8961716   8.4626460  10.3488767  93.2535267
  38.7229419 100.8837414  45.3653002  39.0634942 100.4907322  44.5616770
  37.9264307 100.3881073  45.5554295 103.4092712 104.2658234  93.6166000
 102.9161167 104.8832035  93.0763435 104.2140865 104.7331810  93.8403893
  35.4431462  31.3199592  93.5538578  36.2228441  31.3501668  94.1082859
  35.5528522  30.5268550  93.0292797  83.0916214 105.7378769  14.6527135
  83.2513142 105.2503490  15.4608250  83.9607811 106.0192013  14.3669760
  61.3924980  76.9767809  34.9065256  62.1716452  76.8446827  34.3664217
  61.4780807  76.3349152  35.6114483  48.0402517  64.1419506  25.5498290
  47.5389719  63.3618116  25.3124833  47.7475214  64.8118830  24.9319863
  66.3108492  41.7048979   9.4787246  66.2508917  42.3592424  10.1747644
  67.0583391  41.1603642   9.7256511  14.9432886  12.6538551  92.1657085
  15.0733304  12.2216213  93.0097961  14.6127927  13.5236335  92.3904037
  31.1065435  77.7857971  28.5499620  30.4224062  77.2070360  28.8864589
  31.0200071  77.7308893  27.5982666  67.0147181  77.0172596  31.6807842
  67.7765942  76.9116163  31.1110330  66.5898418  76.1595488  31.6740632
  35.9772396  53.5968876   6.0822600  36.3599372  53.5983992   5.2048928
  35.7327700  54.5090580   6.2384999 104.1135502  10.9901118   9.5199442
 104.0191841  10.1732802   9.0299314 103.4653378  11.5781808   9.1323555
  46.5617609  84.2205715  22.8555083  47.2668600  83.6520958  23.1651783
  45.8021307  83.9673901  23.3800030  27.7468538  98.1948662  34.2624569
  27.1254969  97.5095272  34.0165687  28.4277010  97.7356720  34.7542071
  27.6557064  49.6581078  25.7919025  28.2594109  49.5974207  26.5322328
  27.1653414  48.8363695  25.8147383  53.5994482 110.2259350  12.5065577
  53.5057688 111.1706638  12.6288259  54.5312786 110.0575542  12.6464760
  94.5835400 105.5585003  34.5693421  95.2617168 106.0889816  34.9875402
  94.7888279 104.6600437  34.8279214  60.4858208  87.8965664  14.4910252
  59.8262978  88.4032536  14.0171802  60.5215788  88.3011913  15.3577590
  99.2611206   1.1033104   3.7144965  98.7665832   0.6895588   3.0070567
 100.0730980   0.5990456   3.7658811  29.1275692  90.0031757  29.7312951
  28.3461499  90.5443859  29.8439956  29.7876692  90.6044579  29.3863964
   8.0321711   1.1722516  15.3165936   8.9400852   1.2175307  15.0168049
   8.0220014   0.4467954  15.9409666  59.2277050  95.6302643  35.2311563
  58.7702894  95.2960587  34.4595909  59.2486382  94.8893356  35.8368134
  49.4597816  88.9045429   5.1202327  49.2521906  89.6714687   5.6540573
  49.6365356  89.2597771   4.2491439  28.4358430 108.7103844  49.7880363
  27.7025890 109.3049526  49.6297359  28.1410408 107.8686810  49.4404078
  22.8670812  23.5083413  92.0177174  22.4158645  22.8933215  91.4394569
  22.4041295  24.3369722  91.8941212  71.2725878 101.0575771  23.6903739
  71.5044785 101.5234756  24.4937396  70.5056715 100.5366421  23.9284778
  14.5809269  29.0367866  91.8948841  14.0743828  28.4692192  91.3139248
  15.4505754  28.6377192  91.9211292 104.9188232   6.3006383  19.8325896
 105.7762527   5.9250414  19.6326423 104.4101715   5.5665284  20.1769471
  44.6368408  40.2742195  88.1059170  44.5185089  39.4989228  87.5571442
  43.8573074  40.8049536  87.9419613  54.0652895  99.9606705  19.4824564
  53.8517809  99.1092682  19.8642457  54.9914217 100.0895119  19.6871996
  61.7225218 109.2775726  32.9003310  61.0545063 108.7096500  33.2843184
  61.2978601 109.6623802  32.1336389 104.3863106  53.2985353  89.3573380
 104.0863800  53.6122894  88.5042095 103.7571430  52.6181412  89.5970249
  57.5547075   2.5311682  53.9901161  57.4792099   2.7541572  54.9179125
  56.7380285   2.8443536  53.6012888  33.6607575  61.1463261  17.2580886
  34.4177461  61.5325642  17.6985669  32.9866815  61.1005974  17.9361451
  70.5277157  55.1676702  15.0375724  69.7415352  55.7034063  14.9320555
  70.2060938  54.3365717  15.3869569  11.8601191  13.9687443  75.6965494
  11.6598237  14.7581601  75.1936197  12.8163517  13.9266741  75.7055378
  96.8268204  33.4732246  95.2156830  96.1086082  33.6234784  94.6010113
  97.3498249  34.2737818  95.1732445 106.8517113  26.4096546  16.7813587
 107.3788548  26.2932944  17.5718105 107.0389175  27.3046517  16.4982259
  70.5534172  85.2278328  15.6931233  69.6548033  84.9106312  15.7831645
  71.0449362  84.7472191  16.3591945  83.0162716  68.3169365  34.3200898
  82.7797413  69.1943979  34.6206737  83.6629772  68.0119801  34.9564862
  64.5663786  82.1489334  23.9065623  64.7021627  81.4063263  23.3180642
  65.3926516  82.2314167  24.3826962  78.7361193  81.1254883   0.8501440
  79.3284559  80.4385948   0.5442850  79.3036795  81.7436886   1.3105151
  41.9857931  93.4302807  24.5928764  41.6842651  94.0526962  25.2546287
  41.2355185  92.8542042  24.4463944  49.3183661 100.8775043  19.9842131
  48.3792019 101.0368824  20.0780296  49.4014931 100.4220581  19.1464257
   6.3941634  11.1160946  39.9957299   7.0123553  11.6164994  39.4631267
   5.6100470  11.6639650  40.0308084  45.8229780  99.7261429  16.7748511
  46.1338329 100.5673027  17.1095812  45.8857775  99.8090363  15.8233166
  69.9147320  88.7851810  24.8203540  69.9688005  89.2856121  24.0061855
  69.0287542  88.9487553  25.1436496  36.4898753 105.7551670   4.3658665
  36.7103648 106.6861725   4.3367317  37.2503901 105.3415871   4.7742704
  44.8600721  79.2046118  23.2971644  44.3978071  79.7109413  22.6292014
  44.9052954  78.3186913  22.9375410  35.2777362  88.5417652   6.7309576
  34.6623254  88.9265347   6.1068940  36.1282253  88.9044380   6.4832371
  49.0431356  99.2608643  22.0822001  49.4541073  99.5833302  21.2801075
  48.4026718  98.6164951  21.7808175  64.0859938 106.0296345  14.0773654
  64.4201946 106.7178726  13.5021472  63.6042309 106.4994335  14.7581220
  96.4485931  96.4785290  44.7643948  97.0217705  95.7170105  44.8526669
  95.8411694  96.4077473  45.5007792  25.6082392  29.1054106  76.3601351
  26.2826324  29.3817687  75.7396126  25.0128818  28.5642576  75.8415461
  63.2105255  85.8660221  27.7444553  62.9318571  84.9560642  27.8471279
  63.9823437  85.9448624  28.3050895  58.7766314  65.3062916  15.9978652
  59.5344496  64.8547935  15.6262565  59.0344572  66.2278271  16.0209394
   4.8271534  98.8852501  37.3875141   5.4516757  99.2136192  38.0343342
   4.0610328  99.4506168  37.4857616 101.6494751   6.7456377  20.9620404
 101.4828682   7.4304295  21.6097546 101.8391609   7.2216934  20.1535702
  59.8391819  89.4473648   3.6647180  59.0142632  89.9308586   3.6202654
  59.6385813  88.5953140   3.2774153  39.9320197 109.8127460  10.2323306
  39.7661924 109.4724846  11.1115086  40.1065397 110.7444954  10.3650904
  95.8616161  64.7733593   7.2685444  95.7339478  65.7060432   7.0952171
  95.3833294  64.3316841   6.5668339  15.4128397  93.4485149  41.0554314
  15.4524732  92.9985905  40.2114964  16.0093391  92.9549026  41.6182566
  70.9236002   5.0899678  11.7276645  70.1827145   5.0316793  12.3309243
  70.7090664   4.4765329  11.0248804  31.2245703  85.4243755  23.3162665
  30.3211975  85.4651546  23.0024362  31.6279483  86.2288570  22.9901886
  77.9903698  74.5905018  32.6996922  78.6923885  73.9521885  32.8260517
  78.0997038  74.8913383  31.7975974  68.8390684 101.5053177  21.0216713
  69.2970228 102.2743225  20.6823468  68.8895988 100.8642483  20.3126574
  24.0097499  95.8957386  24.8523092  24.9318266  95.6765079  24.9862671
  23.5609269  95.5150127  25.6071830  99.5090675  96.9931793  30.1161242
 100.4603100  97.0695496  30.0416756  99.1773319  97.3009109  29.2726278
  35.8532143  55.1451159  87.2601032  35.0032902  55.0262403  87.6840401
  36.4280081  54.5153141  87.6950645  87.6015472  77.5306606  10.3089559
  87.2748756  78.4257555  10.4001641  88.3839512  77.6155949   9.7641039
  41.7311049  93.9182949   9.8605901  42.4284458  94.3112659   9.3356860
  42.0884895  93.8860226  10.7479835  83.7660885 109.6837521  48.9012384
  84.1392517 109.0842247  49.5474195  83.9986420 109.2997265  48.0558491
  35.3406119  76.6870975   9.3416464  34.4280982  76.5497017   9.0873414
  35.2891088  77.1501780  10.1777899 112.1438313  10.0268173  53.3223867
 112.8354836   9.4995296  52.9226112 112.5174522  10.9060287  53.3826160
  43.3123112  66.6595554  34.5137620  44.1124201  67.1849394  34.5084023
  42.8821611  66.8698072  33.6849117  68.4217882  95.6736946  43.7270546
  69.3642664  95.6021214  43.8781929  68.0241394  95.3288841  44.5265675
 114.0360260  23.7615228  23.4700322 114.9058914  24.1311169  23.3184767
 113.4677887  24.5238590  23.5803843   7.4190587  40.5795717  85.6292152
   7.8700817  41.2506056  86.1415863   6.5011764  40.8510494  85.6342030
  48.6672115  88.7017441  29.3532681  49.0349293  89.5576572  29.1332126
  49.1374207  88.0870533  28.7899828  53.9217138  88.6511040   4.7174996
  54.0908098  89.5606518   4.4718054  54.7838354  88.2353783   4.7049779
  20.5303931  45.3703499  95.7888412  20.7930183  46.2869263  95.7042885
  21.2234855  44.9700594  96.3138390  33.3137894  89.3486786  20.0675964
  33.4412074  90.1205921  19.5160961  33.6397243  88.6202431  19.5390379
  52.1903181  99.4880199  40.0356579  52.2040510  98.6143208  40.4264259
  52.2870350 100.0841045  40.7783222  59.1226339 106.1913204  46.3742733
  59.0783548 105.2761364  46.6512585  58.2638979 106.3669586  45.9896231
  68.9052963 107.2752762   1.8519340  69.4588900 106.5197086   2.0491068
  69.5037794 107.9177380   1.4707541  67.3964071  24.2036462  19.9141002
  67.9276896  24.8875451  19.5063591  66.5957308  24.6523738  20.1857400
  46.0071516  90.8966637   6.1177516  45.3595257  91.1401081   6.7792279
  46.8341208  90.8510113   6.5976143  47.7346230  83.4587955  10.6273520
  47.5407076  83.5612965  11.5590823  47.2152472  84.1388416  10.1983809
  55.5791187  82.8967381  24.6218348  55.6648397  81.9440937  24.5849371
  56.4512205  83.2243824  24.4020152  45.5468893  29.9368024  90.4687214
  46.4656925  29.6835256  90.3799438  45.1945972  29.3343735  91.1238480
  19.2751110  30.7825232  75.9092283  18.8536000  29.9708486  75.6268406
  19.1153514  30.8198500  76.8522644 110.8485603  30.2321935   3.0082089
 111.1311817  31.0081506   3.4921977 110.3236771  30.5781460   2.2863723
  47.2374344  78.3769941  26.9398499  48.1896877  78.4712458  26.9635868
  46.9067144  79.2739916  26.9872332 100.1237011  41.3819170  86.6210938
 100.6979656  41.2145662  85.8738041 100.5475140  40.9348011  87.3536873
  29.0916038 109.4730663  24.7996497  29.2210245 110.4207993  24.8354030
  28.7112260 109.2510414  25.6495047  30.1399136  47.5010443  90.4428005
  30.3818345  48.2665348  90.9640789  29.2666221  47.2646666  90.7554054
 112.8793526   5.8007044   6.2564915 112.2319698   5.3779256   6.8207556
 112.8640938   6.7203033   6.5217036 117.6060581  67.7320290  20.1746774
 117.7077484  66.8057013  20.3933215 117.1302700  68.1027222  20.9179449
  51.0907841  84.8733807  22.9326797  50.9262133  85.4848385  23.6505055
  51.9837427  84.5628738  23.0825114 109.8206425  92.0071507   2.4657851
 110.1045990  91.4814949   3.2136440 110.0657940  92.9033184   2.6960394
 101.1393166  13.0316985  29.2353201 101.0229778  12.5971603  28.3904076
 101.1781311  12.3157883  29.8695111  91.3209057   7.0090503   8.6543316
  91.2195396   6.1752117   8.1953412  92.2673702   7.1454287   8.6970580
 104.9458408   3.5577533  20.5793357 105.6618023   2.9340014  20.4586554
 104.3948460   3.1621811  21.2547326  53.7396049 107.8901863  26.6666079
  53.3935022 107.8710938  27.5588393  54.2561197 107.0876980  26.5928411
  57.4419737  95.7618523  24.4043565  57.6193619  96.3034344  25.1734138
  56.5809393  95.3796482  24.5740032 102.1278286  85.3788376   5.7738817
 101.7478752  84.8817253   6.4982712 102.0223427  86.2948895   6.0307157
  44.6552944  87.9533958  63.5440159  44.4018745  87.4199295  62.7907419
  45.0058746  88.7575054  63.1609535  15.2780724   2.2520582  17.4482071
  15.2851820   2.4503225  18.3846211  14.7255182   2.9324478  17.0635176
  73.6498976  96.5217495  25.9430075  74.3113041  95.9247971  26.2928939
  73.6671162  97.2726631  26.5363669  42.5960255  91.2966061   3.5621068
  43.3684921  90.8816528   3.1782445  42.5643063  90.9612179   4.4580656
  20.0505900  77.3545074   6.2139338  20.3749275  78.0281258   6.8116570
  20.1107788  77.7548361   5.3465557  19.3067038  59.0062714  86.3278484
  18.6815429  59.2536163  87.0091915  18.8805723  59.2586756  85.5087376
  39.1979170  99.4672775  26.7532969  39.5589471  98.8932419  27.4288535
  39.4862843 100.3445339  27.0052505  63.0735731  17.0659280  46.2893343
  63.7649584  17.7187228  46.1794424  62.5982428  17.3496175  47.0702410
 105.9455109   5.7483637   9.7791731 105.6368065   5.8298385  10.6815577
 105.7066917   6.5792996   9.3683898 103.9982605   5.5832082  56.0894203
 103.6645508   6.3038254  55.5550194 104.9027729   5.8284199  56.2842655
  28.0775023  94.7678089  16.2161541  28.5218883  95.1604462  15.4647636
  28.4365249  95.2286530  16.9744146  37.7350473 100.7287121  21.4121652
  38.1401539  99.8615551  21.3992620  37.7339268 101.0062027  20.4960680
   6.5997064  35.4184866  70.5097866   6.5982103  35.8148503  71.3810635
   6.2040842  34.5563769  70.6381702  83.7776375   9.5195556  12.5209999
  83.3814240   8.7494576  12.1133304  84.6099281   9.6321219  12.0618188
  15.8713150  90.4478645  12.5294971  16.4740801  90.3867435  13.2705569
  15.0287211  90.6728268  12.9240322  29.0184307 104.4042587  14.9240327
  28.1257081 104.6178722  15.1954150  29.5116615 104.3522072  15.7427180
  55.2635956  83.5725594  43.0620432  54.5666552  83.5644054  43.7181234
  54.8341274  83.2948112  42.2529411  74.9850273  91.6142559  50.6041622
  74.1551590  91.1640644  50.7618809  75.3287649  91.7962837  51.4787674
  30.9716344  94.6942806  25.1781654  30.9305358  94.7318745  24.2225885
  30.3289461  95.3403091  25.4711413  21.0339546  73.7481451  95.2809715
  21.6437459  73.4151888  94.6225452  21.5309978  73.7297487  96.0987949
  64.4153833  85.2549839  54.3415117  64.9410343  85.9193325  54.7871113
  65.0461769  84.5815468  54.0869331  58.0944157 106.8673992  15.6909823
  58.7391520 107.5063610  15.9947538  57.5748539 106.6631889  16.4685345
  45.9840250  47.4455357  12.5439274  46.6341734  47.5558138  11.8501139
  46.3831520  47.8522730  13.3130169  25.7191443  10.3837764  30.5914402
  25.9738922   9.7991794  29.8775911  24.8427987  10.0900614  30.8403993
  77.8898287  92.2016621  28.2366967  78.1488609  93.0471897  27.8703356
  77.6357460  92.3989773  29.1382170  73.4736538  11.2354434   1.8589616
  74.0964985  10.5128884   1.9377825  73.5201883  11.6848958   2.7027977
  54.5432854  71.0157251  14.2406332  53.6616087  71.3883543  14.2447817
  54.8814631  71.1908579  15.1188111  82.2414112  57.5153923   5.8568472
  82.6514435  56.6940880   5.5856115  82.9761982  58.0953217   6.0568458
  72.7396154   2.8508312   0.1808293  73.5673189   3.3286804   0.2337574
  72.9113245   2.0237640   0.6310605  39.4018531 106.9286060  11.4358044
  40.3235483 106.7026424  11.5609121  39.2993140 107.7705574  11.8794692
  26.4428854  93.0574131  56.1946440  26.2974286  93.8976860  55.7598829
  25.9174538  92.4340820  55.6930399  61.2067413  80.0281811  30.3944755
  61.3325644  79.8856783  31.3326097  62.0926952  80.1301861  30.0467634
  84.9265003  81.3648033  27.5278068  84.4452000  81.9647312  28.0975938
  84.2480469  80.8305454  27.1148753  51.5134382  92.3895741   6.6285914
  51.3759089  92.6668644   5.7228160  51.3836336  91.4413738   6.6111368
  19.1782498  43.9594030  83.2178783  19.6563804  43.4428787  82.5691700
  19.7577453  44.6961689  83.4117699  53.6909008  79.0088987  33.2974100
  52.9648256  79.4363689  33.7516308  53.7402725  79.4548702  32.4518895
  42.3935080 104.2252827  37.7748394  42.7461100 105.1151466  37.7816200
  43.1606197 103.6645699  37.6591945  63.1431246  98.1313229  27.9930401
  62.8768969  97.9851341  27.0853043  63.5148335  97.2943115  28.2713842
  90.9169769  29.1356850  58.8780308  91.3525009  29.7327423  59.4863653
  91.6307163  28.6398792  58.4768009  23.6540437  75.7231522   0.6710636
  23.7806344  75.0454378   0.0070530  23.1935287  75.2782869   1.3825795
  43.7584305  86.7408562  19.7617340  44.1802931  87.1062756  18.9840865
  43.0917549  86.1473560  19.4160008  75.8362246 103.9932156   8.9664900
  75.2449846 103.2407951   8.9893425  76.7102861 103.6138725   9.0577924
  39.5441222  83.3622932   8.1147027  39.6643853  82.7127838   8.8074541
  40.2804661  83.9646244   8.2206655  42.1816444 101.8794060  16.2471116
  42.4082470 101.0643005  16.6948664  41.2415028 101.9809055  16.3956654
   3.9380941  37.5842309  84.6146584   3.9919165  37.8926921  85.5191898
   3.5838223  36.6977572  84.6845818  20.4100609  82.9253006   8.5035449
  20.5992126  83.6352730   9.1170508  19.8537314  83.3271885   7.8362995
  24.5554209  72.5090075   8.9080083  24.4672394  71.5746975   8.7195492
  24.3951321  72.9389620   8.0679607  33.7068248  89.4284630   4.3619400
  33.0024981  90.0636387   4.2326817  33.7613893  88.9586735   3.5297430
  24.0321040  96.8151283  38.7599134  23.7329078  97.4987411  38.1604266
  23.2629323  96.2616539  38.8950753  97.9428101  75.7864332  31.3215756
  98.2575607  75.6647968  30.4258251  98.5296917  75.2518034  31.8563390
  30.3543043  11.3793612  85.5177116  29.6101046  11.0870588  86.0439777
  30.7231474  12.1122491  86.0107231 100.7042885   5.7047433  37.9671478
 101.6558933   5.8073783  37.9554653 100.4487896   5.9413892  38.8587475
   6.6555172  56.0213470  65.4195261   6.9771016  56.3634825  64.5854044
   6.3463825  56.7941713  65.8921909  88.3788586  94.2468643  30.4186678
  87.7116966  94.5809937  29.8191023  88.9084148  95.0132179  30.6388664
  70.7608414  94.6914864  34.9763274  70.9594584  94.1476631  35.7385874
  71.3990688  94.4209385  34.3162489 102.1738625   6.9762188   1.9290654
 101.4149189   7.5593960   1.9171602 102.0897102   6.4572537   1.1291745
  59.7266150  77.0329332  41.3228226  60.6542110  77.2488356  41.2269592
  59.7222567  76.1270285  41.6319323  36.2704134  61.3966417  54.8982573
  35.7593441  60.9029245  55.5395699  36.5572214  62.1780443  55.3708935
  54.8311090  39.5390201  87.6940536  55.1232147  38.7268233  87.2802353
  55.1710796  39.4883919  88.5874081  48.0590057 101.6161156  14.2128968
  48.5373640 101.0014248  13.6565161  48.1772804 101.2777615  15.1004553
  62.6388514  -0.1799061  27.7164316  63.3185518   0.4699467  27.8951049
  61.8631828   0.1548717  28.1664205  50.3802109 106.8971825  44.7393370
  49.6408987 106.6233158  45.2821493  50.0461340 107.6402569  44.2368746
  43.7715435  94.1492176  15.2058876  44.3594122  93.4448242  14.9330008
  43.3162117  93.7981987  15.9711909  48.9221287  93.8535881  31.5804172
  49.6470308  94.2808247  32.0367265  48.1420565  94.1221142  32.0658183
  56.3756990 103.2459641  35.7641625  57.3020649 103.3924103  35.5727673
  55.9218740 103.9541721  35.3073072  12.0548964  43.0601358  91.6745186
  11.5659833  42.2593880  91.4847946  11.3804960  43.7205267  91.8335915
  28.6400104 104.2306519   0.8664737  28.3904696 105.0831318   0.5097823
  27.8553796 103.9214897   1.3192478 110.8318520  24.8033214  34.4987273
 111.3105679  24.6819949  33.6787605 111.0804176  25.6793141  34.7938251
  37.1304774 105.9737301  26.6070986  36.8087101 106.8429470  26.8461847
  38.0700231 106.0953808  26.4703894  53.6827528 110.8768660  17.5263333
  52.8498041 110.5788058  17.8918338  53.7180769 111.8092590  17.7399385
 106.0154438  17.2613347  79.8894978 106.5205288  17.2235787  80.7017136
 105.1603603  17.6000261  80.1547241  56.4888954  92.2424984  26.3174629
  55.8286476  92.9086113  26.1261749  56.8102551  92.4675751  27.1905589
  52.8483343 105.0963688  26.9006109  52.9162836 104.3484592  27.4941087
  52.1967173 105.6670094  27.3080397  55.9399319 104.5143604  28.6872387
  55.1085567 104.0638638  28.5386038  56.0882282 105.0144100  27.8846240
  64.6584988  95.1359177  14.3645203  64.5944643  95.1066589  13.4099138
  64.0197849  95.7986927  14.6272123 100.6273365  40.5070305  91.1755371
 100.8032227  40.3042126  90.2567577 100.0798321  41.2916708  91.1470413
  89.1655636  95.4516220   0.7763636  88.4300327  95.2103138   1.3393821
  88.7618542  95.6763268  -0.0619431  63.9925575  89.2848969  18.5278285
  63.6717272  90.0567722  18.0614495  63.2102346  88.9033604  18.9261186
  50.4913712 102.4816895  16.5660954  49.9927950 103.2070351  16.1898816
  51.0976076 102.8995609  17.1777236  44.9554014  51.9265318  35.6398821
  44.9247122  51.3645744  34.8656130  45.5064011  52.6643562  35.3786349
  56.5948915  98.6713600  14.8898125  56.2252378  99.5378590  15.0594187
  56.5150881  98.2093811  15.7243431  57.4782944  83.8689995  17.6931405
  56.6378069  84.1374969  18.0642545  57.7290154  84.5930099  17.1193981
  50.1887083  69.8177576  43.7636232  49.3362284  69.5040226  43.4618235
  50.0812721  69.9320889  44.7078800  48.2504654  64.1477442  16.0539448
  47.7413082  64.5532084  15.3520977  47.7597189  63.3576632  16.2801731
  48.2101107 100.8356190  54.4699717  48.1182051  99.8957443  54.3136549
  47.4120474 101.0796070  54.9387980  56.6699791 106.8465900  20.9433556
  56.3051605 107.6854134  20.6613564  57.5644827 107.0533562  21.2141681
  96.4931774  98.7856293  16.3625932  97.0633698  98.0381870  16.1824679
  96.9815445  99.3124485  16.9952023 111.2038422   0.8640203   6.0663795
 111.3319683   1.5209037   5.3820395 111.6406441   1.2306964   6.8351328
  63.5804033  91.4261246  65.3055382  63.9967203  92.2845650  65.2281904
  64.3007898  90.8274555  65.5027103  14.3690264  37.3761368  87.9102612
  14.3647218  38.0737829  87.2548962  13.7526524  36.7263699  87.5724506
  51.6015863  81.7229271  46.6632080  51.5139532  80.9300137  47.1922064
  51.8684864  82.3984814  47.2866106  45.3185844  92.0121479  14.6829426
  45.8749628  92.5736046  14.1430879  45.6567669  92.1230793  15.5715132
  63.2536697  87.4540806   9.8457074  63.4555101  87.8094482   8.9801395
  63.3172846  88.2063007  10.4342330 101.9684792  11.0380983  65.5317211
 101.7709255  11.9746315  65.5421019 101.1830521  10.6316781  65.1654387
  17.3812175  25.9886646  94.8202991  17.6881146  26.0283399  95.7260990
  16.4748967  25.6881499  94.8874378   6.2623465  21.6605467  96.6670726
   5.9480869  20.8886666  96.1962516   7.2025549  21.6834063  96.4889675
  24.0918255  68.6525440  22.8920388  24.6209192  67.8593826  22.9768229
  23.4397650  68.4354019  22.2257829  87.3826694  81.6657639  31.0343122
  87.3076439  80.7142162  31.1061502  87.2873306  81.8435669  30.0986147
  43.0004358 107.1415901  10.2350855  43.0682516 106.2499714  10.5766213
  43.0542278 107.6999187  11.0107207  79.0994310   8.7897319   6.7948759
  78.5236073   8.0967134   7.1179664  79.9803782   8.4224850   6.8676084
  52.8783321  26.3582897  88.6391163  52.8162956  27.2514939  88.9775944
  53.8180590  26.1790943  88.6069012  63.4084892  12.1150982  55.8017254
  63.0244350  12.9714990  55.6138229  62.6557922  11.5348363  55.9156275
  62.7614069  99.6585464  13.9788127  63.4636974  99.0217781  13.8463485
  62.1514654  99.2221451  14.5735955  65.0588608  99.9000454   4.6636409
  65.1542664 100.6582355   5.2400738  64.9699688  99.1560268   5.2592570
  52.4232101  94.0163517  14.8321176  53.0231333  94.2849350  15.5279517
  51.7840958  94.7269726  14.7793686 101.2497520  91.3411903  50.4960251
 102.1035099  91.7697048  50.5567789 101.2645626  90.6787300  51.1867905
  66.6225004  92.1973705  30.8897352  66.0657072  92.0677471  31.6574669
  67.3990965  92.6420689  31.2294126  87.6686096   2.8608140  25.1356792
  87.7863121   3.8079047  25.0622249  87.1528244   2.6230890  24.3651676
   0.2856415  29.9945760  88.3951759  -0.0526575  30.1972246  87.5229836
   0.7370369  29.1572738  88.2884121  48.8300467  74.4316530  32.4496698
  48.6792278  75.3531218  32.6603460  49.1890764  74.4444656  31.5624475
  76.0116577  99.0588093  59.2116404  76.5979481  99.8150063  59.1860819
  76.3996124  98.4769344  59.8652077  40.9386301  88.1608200  32.1717429
  40.7733870  88.8859558  32.7743244  41.4201880  88.5575962  31.4458609
  40.7977486  87.1054745  25.8465338  39.8837948  87.2563457  25.6053710
  40.9565735  86.1886978  25.6217432  79.9266100 109.5779896  39.5035481
  80.1537228 109.0706348  38.7242889  80.7249928 110.0615788  39.7155857
   7.1508312  26.3451481  96.4383030   6.8534523  26.9885230  95.7949829
   7.9079330  26.7560649  96.8556499  86.5925407   0.7143325  48.8514233
  86.7856121   1.0605703  49.7226715  87.2113323  -0.0070702  48.7378407
  80.9353924  63.1863070  36.8207884  80.6399536  63.5825205  37.6405239
  80.1447487  62.8023052  36.4417648  80.9951401  57.0011139  12.2967780
  81.4139080  56.5436411  13.0258763  80.0811291  57.0938635  12.5655055
  64.0313482 104.3349171   4.9348560  64.3896484 103.5367966   5.3232694
  63.8008451 104.8835564   5.6845868  46.7431545  76.9836950  46.3938093
  45.9799147  77.3018932  46.8759346  47.4839020  77.4463224  46.7856073
  53.5657549  86.7216587  28.4874177  53.6420631  86.6158295  27.5391507
  54.4507456  86.9454288  28.7754273   8.4339672  57.9081488   2.6434153
   9.2861533  58.0738544   2.2402385   7.9591036  57.3885298   1.9947770
  33.2477999  96.7012119  16.9648516  33.1092811  97.0729256  16.0937166
  32.7813292  97.2932911  17.5548375  39.7963810  70.7871962  35.5958962
  39.1432190  71.3127136  35.1338959  39.4555116  70.7107353  36.4870715
  59.2158318  84.8201656  20.2988625  59.8262119  84.1106796  20.4996228
  58.5374117  84.4082355  19.7637963  95.6265926   4.9214172  17.7124941
  95.0003910   5.1494414  18.3995974  96.2087154   4.2812431  18.1218076
   4.6764889  24.7820950  66.9442272   5.4139203  25.1933265  66.4933205
   5.0195152  23.9412642  67.2468233  15.8538735  38.4770012  69.0472031
  16.1113703  37.6657748  69.4851971  16.0266519  38.3138275  68.1199741
  98.9608574  90.3134823  25.7459068  98.2145500  89.7265434  25.6243968
  98.6299419  91.0065746  26.3171721  70.6633902  91.0040855   0.7610200
  70.8782911  90.3607750   1.4364462  69.7965002  91.3278580   1.0057846
  64.2203426 109.8021984   8.0117631  63.8031626 110.6634617   8.0322784
  63.5929441 109.2218399   8.4427989  82.4929047  76.8215656  37.3783565
  81.7964268  76.1701679  37.2957301  82.1421051  77.4713278  37.9874444
  69.7231960 109.6661186  45.3768301  69.7395039 109.9024582  44.4494104
  70.5338955 110.0312614  45.7313347  18.7067783  56.0295773  94.4036865
  18.8583469  56.5755892  93.6322403  18.1269658  55.3336143  94.0943623
  27.2360063  18.0904567  79.9704599  26.7085814  17.5103116  80.5195427
  28.1039143  17.6868951  79.9602079  81.8030453  27.3459983  56.6693354
  82.2357273  27.4311304  55.8197689  81.2665844  28.1351233  56.7450476
  78.8995838  91.8131161  32.5697970  79.5465040  92.1078777  31.9288301
  79.2860508  91.0272217  32.9561234  83.8807011  93.3370209  31.7450666
  84.4459248  93.0257416  31.0380554  84.2378139  94.1941643  31.9774580
  90.2294827  93.4177399  10.0139749  89.7994518  93.8586044  10.7467365
  90.9346581  94.0120029   9.7574180  76.1732197 108.8981342   4.1506457
  77.0842505 108.6046886   4.1625431  76.1321926 109.5792580   4.8219240
  48.4569025  75.6676912  16.6793180  47.7655268  75.1057243  16.3294315
  48.0645037  76.0789013  17.4494863 105.6042767   3.1250799   0.3739074
 105.7584953   3.0199403   1.3127339 106.4367962   2.8864390  -0.0337694
  46.0730267  93.4802532  42.5723076  46.4763784  92.6179790  42.4722385
  46.6255379  94.0648079  42.0534039  64.6216917  67.3555326   0.4646556
  65.0532436  66.8889427  -0.2510879  64.9122095  68.2625389   0.3688593
  28.6195946  90.5771542  36.3117433  28.3097053  90.8207130  37.1840262
  29.4978356  90.9537029  36.2557793 109.8540783   7.4146551  32.9470658
 110.1809025   6.5741831  33.2680345 108.9072800   7.3702639  33.0806327
  35.9494066  72.9023075  31.0881042  36.7138100  73.3862543  31.4006925
  36.0436058  72.0310593  31.4731789  72.6425695  16.9055879  17.4544895
  73.2836819  16.4326060  16.9239306  73.1702089  17.4248827  18.0612516
  74.5491219 105.8103752  46.4605045  73.6275721 105.6968021  46.2279606
  74.8749018 106.4603519  45.8379030  85.8954048  24.5508194   7.6688784
  85.7749271  24.5086455   8.6175287  86.4518929  23.7993073   7.4644709
  16.3665891   7.9921657  19.5341396  15.7913506   8.6874950  19.2150021
  16.7067850   7.5795263  18.7402701  83.2868958   9.0150148  46.1346006
  82.8158283   8.1876636  46.0354996  83.6377335   8.9857441  47.0247030
  84.1181755  37.5158000  30.6090736  84.3122864  37.9446816  31.4425063
  83.1732941  37.3644304  30.6319642  34.3563104  96.1555195   5.4953080
  33.5972810  96.3046646   4.9315163  35.0657606  95.9402275   4.8898649
  50.3634453  94.5491409  18.0783093  49.9614239  94.4449139  18.9407158
  50.3246689  93.6756325  17.6888227  80.7966328  68.9866829  21.6561222
  81.1153793  69.7018623  22.2067165  80.6199074  68.2730103  22.2690439
 103.5601807  79.1527271  42.9615974 103.8326931  79.6497488  42.1902752
 102.7627087  78.7007952  42.6858664  75.6883049  10.8516121  12.5207078
  75.1123524  11.5832436  12.2988439  75.9996271  11.0510731  13.4036160
   3.3541191  33.0906749  55.1805210   4.2354125  33.3037114  55.4873943
   2.8256294  33.8508916  55.4234314  49.3243456 110.8672905  35.5359769
  50.0539541 110.9412575  36.1511493  49.5827198 110.1629162  34.9415612
  87.4211121  94.0487862   3.2597780  86.9302654  94.3193340   2.4838266
  86.9222355  94.4049168   3.9949840  78.4896755  59.7078466  12.6848447
  78.0258846  59.9105072  11.8724048  78.5227680  58.7515402  12.7095890
  46.3431215  89.9913120  33.8196754  47.0712519  90.5991459  33.9484930
  46.3088942  89.8558140  32.8727341  82.1660709  94.8457813  25.4519248
  81.3885307  94.9191284  26.0053420  82.5692654  95.7131195  25.4891753
  67.8171730  99.5445347  11.8166697  67.1690321  99.0956020  12.3594451
  67.3439121 100.2887917  11.4447260 103.6912632 110.4421234  61.6811371
 103.6124706 111.2812233  61.2273407 104.5735168 110.4524803  62.0522976
  63.1247377 103.5167694  21.6887474  62.4031353 103.4534645  21.0630369
  63.9113903 103.5510349  21.1444712  99.2100811 111.1624336  17.1044207
  99.2984200 112.0396233  17.4772072  99.8841572 111.1214733  16.4260602
 108.6281204   7.8106707  13.4892678 108.1596661   7.5424004  14.2797196
 109.3953133   8.2821262  13.8139045  32.6851869  94.5187569  35.9384179
  31.8518233  94.4134712  35.4794502  32.4389863  94.7900772  36.8227291
  77.9110622 103.9725304  51.8589306  78.6959839 103.5946083  51.4623070
  77.4628687 103.2277012  52.2596693  84.3037987  91.6090488  20.8172727
  83.5129642  91.6526508  21.3547754  83.9865875  91.3861370  19.9421048
 102.5138474  53.7439299  19.3177187 103.0110741  54.2414188  19.9669504
 103.1574631  53.1562185  18.9220142  47.6182652 100.0985336   2.7012274
  46.6618776 100.0595284   2.6953784  47.8382921 100.6893730   1.9809964
  65.4762936  92.2485828  38.3849669  64.7531509  92.3197556  39.0080476
  66.2640572  92.2782612  38.9279032  72.1563864  94.6181107  25.3058052
  72.5289202  93.7507725  25.4644895  72.8540373  95.2266216  25.5491781
  51.9509792  92.3054028  54.2820644  52.8887701  92.4177456  54.1266346
  51.9011641  91.8191624  55.1050568 117.6362514  26.0707164   0.8002631
 118.2372475  25.7146621   0.1458420 117.3995113  25.3183079   1.3425398
  91.4519596  13.1131470  25.8537602  92.0837784  12.4574435  26.1488748
  91.6984844  13.9109421  26.3217139  39.2570758  97.9492188  34.7018528
  38.6381149  98.2278633  35.3767419  39.7361755  97.2231770  35.1013064
  75.5196619  87.5666332  51.1430693  74.6876526  88.0155754  50.9932756
  75.9409714  87.5500488  50.2837372  76.0783100 107.7188206  19.7655809
  76.8322372 107.2254086  20.0886488  75.3257227 107.1595383  19.9580681
  98.9578724  11.6433716  60.9551477  99.7153568  12.0366132  60.5217743
  98.8181591  12.1852911  61.7317009  97.2776843   8.3435109   0.8913679
  97.6577557   8.6704305   0.0759477  97.6564289   7.4710801   0.9992761
  97.4847889  80.9176350  32.4171257  96.9294930  80.3263950  31.9088769
  97.0496559  81.7679119  32.3544955   2.0257191  12.6889575  64.2376232
   1.4229411  12.5303066  64.9640656   1.4727497  12.6598942  63.4568453
  67.0212698  46.7617750  92.8315449  66.1106634  46.4789963  92.7474880
  66.9655752  47.7032566  92.9950619  72.3602152   5.6803405  20.4497075
  72.4889278   5.5949080  21.3943601  72.4949980   4.7961631  20.1086855
  81.4164639  24.4738650  29.5100665  82.0915127  23.8852763  29.8478651
  80.6799316  24.3637848  30.1114297   2.7286977   0.5663174  61.1365509
   2.6664081   0.9273210  60.2522278   1.8995585   0.8043770  61.5513849
  93.0791855  75.1128626  45.1002359  93.7425327  74.5429993  45.4894161
  92.2834396  74.5809937  45.0886822  75.5273342   1.9278558  15.5928481
  74.9055576   1.6314135  16.2574887  74.9797678   2.3011068  14.9021339
   8.0539924   8.7033635  61.3870144   8.5379469   9.3314260  60.8507729
   7.2482085   8.5405695  60.8966684  87.8407669  94.2208862  88.1485748
  88.2830906  94.9419689  88.5964870  88.3884621  93.4563446  88.3266926
  74.4605350  96.7281246   2.2622634  73.9836359  96.6952896   3.0915517
  73.9755154  97.3603725   1.7319238  46.2677526  91.4733887  29.9526596
  45.3213978  91.5205574  29.8169398  46.6298628  91.3524342  29.0748906
   0.7199408   7.0182073  24.1598105   1.4916721   6.8026453  24.6834469
   0.6581882   7.9723072  24.2057657  65.1079178 104.7317219  39.7490692
  65.1110792 104.1774273  38.9686942  65.2518034 105.6169796  39.4146442
  94.6364689   9.1066802   0.8145938  95.4931736   8.7489516   1.0476554
  94.8192215   9.7233897   0.1057198 117.8490925   2.3538636   9.6217132
 117.8309727   1.9813934  10.5032849 117.2000694   1.8467280   9.1340452
  77.9313612   8.9520258  37.8610086  78.8418055   8.7906551  38.1085706
  77.4947309   8.1103593  37.9920840  49.5123196 103.7947273  38.7627220
  50.0569248 103.8059616  39.5498133  50.0924587 104.1009521  38.0656624
  66.8342626 108.8214212  -0.1675730  66.4639151 108.8235622   0.7150716
  67.2479832 109.6800714  -0.2558165  74.9271250 107.6580715  29.5464587
  74.2162514 107.9583645  30.1127768  75.2012300 106.8240643  29.9279404
  92.6026821   1.4813609  30.1932263  92.1958160   1.8619205  29.4148540
  92.8741169   2.2364935  30.7150769  66.1477423  98.5746861  19.5624101
  67.0054913  98.8013268  19.2030513  65.7290983  99.4183636  19.7332084
  37.4889946  75.0572252  13.0977964  38.2066655  74.5066977  13.4110069
  37.0989966  74.5572948  12.3807180  85.3250694  70.1054668   2.2758898
  84.5822239  70.2196741   1.6831256  84.9277401  69.8814011   3.1174105
  26.1926413  53.8536596  91.0904121  26.8498468  54.5136881  91.3110352
  25.5192828  53.9517689  91.7636108  61.6698503  71.6620064  28.8195086
  61.5410805  72.5498867  28.4858632  62.3879671  71.3102388  28.2933855
  63.3508385  78.5546475   0.3525228  64.2211545  78.9301257   0.2191228
  62.8457058  78.8450771  -0.4068976  68.9786434 107.9202747   8.8460243
  68.1074810 108.0989456   9.2001146  69.2082548 108.7140751   8.3629197
  55.4227638  25.6634688  88.3928585  55.9852791  25.6380582  87.6188087
  55.7189417  24.9274898  88.9284420  89.9492168  29.2592740  46.2219238
  89.2785740  28.6533356  46.5370512  90.1055717  28.9933300  45.3158045
  52.1721411  97.6563740  25.0628781  52.1522951  98.2644558  24.3239117
  52.2242022  96.7901516  24.6589255  81.0476780  97.4697781   4.8781687
  80.1583385  97.7967739   5.0137955  81.2436771  96.9724083   5.6721717
  70.5012274  87.8945351  15.5102396  70.5843115  86.9472599  15.4007339
  69.6630430  88.0113411  15.9574902 112.3264503  32.2066879  58.5267735
 113.0713749  31.6377044  58.3329391 112.6920795  33.0912662  58.5180807
  38.5142183  76.2744617  19.9054945  37.6341558  76.2593842  19.5293379
  38.5113549  75.5668020  20.5500436  88.8315296  13.7176156  46.6540241
  89.5832443  14.1001821  46.2014818  88.5844326  12.9662180  46.1149740
  73.5292864  74.1088533   4.8306924  73.9688921  73.5785627   4.1660351
  72.7209997  74.4000673   4.4086787  85.2050591   5.5914491   8.3556843
  86.1443901   5.4119641   8.3147037  85.0674248   6.2936300   7.7198935
 108.4735394  14.6290445  30.5047894 108.9339638  14.6736085  29.6667814
 109.1476727  14.8143053  31.1585975 103.5559464   3.3602548  13.4368944
 103.6816120   2.4231017  13.5858357 103.2442856   3.6966330  14.2771053
 117.3421001  18.6633313  32.1063137 117.2091675  17.8487921  32.5911713
 116.7684174  19.2958534  32.5387955  86.1950684 108.5302925  40.1232195
  86.9877529 107.9937553  40.1248837  85.4819489 107.9044151  40.2496433
  29.3084049  51.8491459  94.6797752  28.5785699  52.0873928  95.2514553
  29.1191816  52.2920609  93.8525867  95.1108837   9.1358596  33.3388782
  94.7608471   9.8719501  33.8407493  94.8268700   8.3599061  33.8220572
   3.1797001  42.0430279  30.6930566   3.9765671  41.8010998  30.2211404
   3.4325203  42.8041267  31.2155890   3.7840208   1.8001828   9.0143377
   3.3372885   2.3785427   9.6325302   3.0766720   1.3837345   8.5219353
 116.0783863  54.7139788  52.5503922 116.7897606  54.2104197  52.9461384
 116.4797783  55.1419306  51.7941046   3.3362722   0.8645726  50.9660149
   2.7759156   1.5652883  50.6325054   3.6218676   0.3932711  50.1833677
  42.4838781  53.8369751  94.0550327  42.7745676  53.2207632  93.3827114
  42.9966450  53.6058569  94.8295593  29.9486685  79.1504717  40.3381205
  30.4497457  78.8860989  41.1096525  29.0911102  79.3990850  40.6831074
 113.3413887  88.4690475   4.4213942 112.8394413  88.0321693   3.7333316
 113.2396507  87.9041958   5.1874447  78.7866068   3.8904098  16.9874203
  78.3078909   4.0631109  16.1767209  78.1340075   3.5081905  17.5741518
  70.8922434 102.1886063  39.0952039  71.6669226 102.1956253  39.6573925
  70.6872368 103.1135273  38.9583445  83.4899044  15.9611320  44.4779205
  83.0609894  15.5075061  43.7523317  84.4255829  15.8397293  44.3166685
   4.4674712  22.8189421  19.5113540   3.5786033  22.8068566  19.1563892
   4.8533624  23.6228967  19.1635406 117.0085292  48.7542868  35.0896287
 116.5304012  49.5586538  34.8880839 117.8934774  49.0491295  35.3044915
 115.8179283   8.0755264  31.3339615 116.7214203   8.3886486  31.3774157
 115.4579163   8.4908915  30.5503201  88.6224461  35.5790091  21.0774899
  88.8379765  36.3380456  21.6193771  87.6716423  35.6201506  20.9749532
   9.8848373   8.2470173  37.9041457   9.3954873   8.7117153  37.2253060
   9.6490186   7.3273557  37.7823114   4.6260244  11.2305832  21.4277530
   5.5361319  10.9357262  21.3962007   4.4615549  11.5935898  20.5574608
  28.2099605   3.2914737  23.4691858  28.7677717   3.5496846  24.2029452
  28.1209254   2.3426020  23.5583353  15.1794326  26.4635706  22.3429871
  14.5917487  27.1844864  22.5691295  14.9833047  26.2734509  21.4255905
 107.8425789   8.2605767  91.1066723 107.0574474   8.2077640  91.6516495
 108.3365154   8.9961636  91.4688587  55.1106787  12.3743749   9.6660942
  55.9951353  12.1315598   9.9399823  54.8139906  11.6367018   9.1331333
  13.4453464  14.6488488  81.4498329  13.0374444  14.1135013  80.7692051
  13.7777531  15.4161179  80.9839630  17.0165992  24.8823047  25.1224279
  17.7132595  25.3846192  24.6998477  16.8954182  25.3079724  25.9711647
   0.9080745  46.7213726   4.7883096   1.2886803  47.5120878   5.1705921
   0.8798414  46.0952520   5.5117774  41.7949629  57.6277494  18.5087323
  42.7225208  57.5121117  18.3025897  41.4867735  56.7483139  18.7274718
  56.5088749  97.4505138  94.2976284  57.1628141  98.0797195  94.6020794
  55.9431648  97.3069954  95.0563145  51.2797451  94.1267109  82.5595760
  50.3307867  94.0103436  82.5129700  51.6342735  93.4237385  82.0151711
  72.4396610  50.0952816   9.1637123  72.8548050  49.2879200   9.4671214
  72.6837540  50.7504463   9.8174810  14.3207753  50.0177002  56.8019056
  13.4089649  50.2252817  57.0062160  14.7694397  50.0525331  57.6467228
  83.5839844   4.8176301  65.9742785  83.9632893   4.0324533  66.3690710
  82.6389122   4.6691415  66.0062361 108.5551453   2.9151434  85.2546310
 107.7785110   2.9463440  84.6959782 109.1095734   2.2439167  84.8567677
 101.1623478  21.4588571   3.2822981 101.4748955  20.6272006   2.9260731
 100.4690456  21.2118363   3.8942939   5.5004662   7.9737550  15.4481065
   6.0663271   7.2323000  15.6632280   4.6125019   7.6478904  15.5949521
  91.0445118  22.9059291  16.3309240  91.5148735  22.0876956  16.1712861
  91.2557888  23.1307936  17.2370303  37.9252100  40.0266790  26.1065269
  37.7137065  40.0155497  25.1730514  37.2292876  40.5504036  26.5035629
  28.4393668  46.6328859  15.7907701  29.2659926  46.1894512  15.6002843
  28.4057093  47.3561192  15.1646459  80.3721428  86.8447495  73.2094479
  80.5317211  86.0971165  72.6334143  80.3516579  87.5999260  72.6216364
  44.1549397  36.5191126  10.9170008  43.8500786  36.7578173  11.7923927
  44.9026442  35.9421492  11.0728288 113.8504410  28.9734125  76.6080809
 114.4832706  29.2759466  75.9567499 113.9424610  29.5889020  77.3353624
  36.9894314  66.5274096   4.9226388  37.3050141  66.7881870   5.7878757
  36.7602372  65.6031513   5.0198305  52.7800322  28.3450794  16.4238501
  53.5333633  27.8717184  16.0707808  52.8858423  29.2395139  16.0997784
  74.1233969  84.2003441  87.3075294  73.7215805  83.3553219  87.5093174
  74.6123505  84.4279766  88.0983067  15.5551779  71.2234497  39.0505624
  14.8347592  71.2125349  38.4203959  16.2845302  70.8110905  38.5877037
  44.4965363  50.8060360   3.2389954  44.0983629  51.6677046   3.3623734
  43.7656450  50.2366686   2.9984787  33.8259816  36.4266229  93.9147377
  33.9821148  35.7069945  94.5262814  33.0393147  36.8580174  94.2483234
  73.7684250  95.0823307  95.7571602  73.7230253  95.7946491  95.1193714
  72.8546000  94.8921013  95.9692097  16.5018260   9.1606236  12.6459217
  16.3559175   9.5212764  11.7713523  15.7444513   9.4509888  13.1541586
  19.6144164  43.3597755  19.8382235  18.6733818  43.2010841  19.9124074
  19.6807981  44.2529631  19.5005250  14.7025836  66.3265800  92.5570488
  15.0718343  67.2040701  92.6565266  15.4646289  65.7558632  92.4580765
  25.3847170   9.1717541  16.0300803  25.8521962  10.0008273  15.9284306
  25.2104473   8.8836324  15.1340616 113.7467957   7.5745946  92.2994137
 113.7518406   8.5273612  92.3912907 113.2609940   7.2629023  93.0630016
  82.7536392  79.4252062  95.5132103  82.4312973  79.6649837  96.3820267
  82.6153564  78.4796000  95.4590034 106.5062714  20.8166242  35.2467632
 105.5994034  20.5190396  35.1742053 106.6125202  21.0376191  36.1720204
 109.5922661  78.9314365  39.1065860 110.3641605  79.4679117  39.2871571
 109.8520565  78.3782721  38.3698702  67.3171949  91.5796280  78.0701494
  66.4156961  91.3649940  78.3098650  67.8389788  90.8659267  78.4370327
  18.8160515   8.6293888  88.0614948  18.9255440   8.1719774  88.8951778
  17.8770614   8.8071460  88.0073547  66.5781593  66.2894201  77.3234844
  66.3181162  67.0362139  77.8628349  66.1648941  66.4510536  76.4753580
  31.9613791  46.2329149   7.0896739  32.3968220  46.0402107   6.2593210
  32.5786948  46.7937851   7.5593328   2.2903338  35.3273511  90.5710888
   2.8516635  35.2036071  89.8056889   2.8033513  34.9835896  91.3024330
  38.2385850  23.3986449   7.4313587  38.7615800  23.2915354   8.2258630
  38.5330868  22.6942754   6.8539816  15.7787907   2.5054824  75.8093214
  16.3206661   1.8967980  75.3072214  16.2820017   2.6727647  76.6062069
  77.5173855  62.8296185  65.2797174  76.5968657  63.0479288  65.1340675
  77.5120115  62.2793007  66.0628843   2.8764713 101.1712074  92.5430107
   3.3577904 100.7549381  91.8279648   3.1984302 102.0725441  92.5556374
  63.6861706 101.6357422  66.7149782  63.5482168 100.7312393  66.9961977
  64.0877295 101.5588665  65.8494854  26.0511934  23.9314702   0.3864927
  25.1505720  24.2556480   0.3825349  25.9784710  23.0188087   0.1072187
  33.7840533  27.2418261  43.8949108  34.5397496  27.0700049  44.4567204
  34.1314816  27.7810144  43.1844139   7.7368808  32.0275617  44.4481277
   7.1831650  31.2627316  44.6051741   7.2320515  32.5680161  43.8404322
  20.6689334  20.7370996  36.2065506  20.6453800  21.2277794  35.3850222
  19.8860121  21.0216665  36.6780257  36.4082670  10.5170786  23.9115667
  35.8058023  11.2500548  23.7850189  37.2225571  10.8019996  23.4968615
  90.5041409  94.5085239  90.7588482  89.9085522  95.0463390  90.2370739
  90.9198189  95.1262093  91.3604355  49.7477436  41.9397974  66.3676262
  50.4344320  41.2955475  66.5397739  50.0651598  42.7438307  66.7787266
 101.3374019  22.6509900  96.5834328 102.1886635  23.0699105  96.4565870
 101.5273500  21.7129559  96.5676283  47.3215199  51.5414238  27.7630949
  48.0023623  52.1662474  27.5135350  46.8670702  51.3427067  26.9444227
  57.6834154  36.7385578   2.1708141  57.9098225  36.0895586   1.5046519
  58.3410978  37.4264407   2.0683280  98.7112331  13.7642086  91.1046696
  99.2252922  14.1265702  91.8262482  99.3600559  13.5383499  90.4381561
  61.3130474  33.3187652  21.4151788  61.5399170  33.2829642  22.3444128
  60.3701782  33.4834671  21.4050031  82.0129013  18.5226214  75.2269840
  81.8982220  18.8059771  74.3199062  82.9207039  18.7444019  75.4342365
  43.1492186  28.3812451  27.4625635  43.2456589  27.4289250  27.4588203
  42.2428608  28.5291386  27.7325106   5.7595980  59.4555950  34.6625471
   4.9687392  59.9605227  34.4732761   6.4706057  60.0939417  34.6058679
  47.7644444  60.3768539   8.0566102  47.4235868  59.8057652   7.3682046
  48.5680676  59.9465990   8.3486700  68.9717436  58.0154276  45.9290457
  68.1130123  58.2631636  45.5863428  69.5453310  58.0181789  45.1627398
  17.6787841  39.1118717  44.0205002  16.8460071  38.8540339  44.4157648
  18.0577898  38.2918310  43.7040806  12.2106409  30.6651092  30.5990195
  11.5074623  30.6355524  31.2477851  12.9975486  30.8612561  31.1074805
 109.7963333  89.3088818  92.1118259 108.9873695  88.8854027  91.8246269
 110.1388073  89.7305202  91.3236904 116.0972881   0.9640679  90.9010601
 116.2328339   0.0166684  90.9181404 116.7415524   1.3093802  91.5190506
  19.3140018  49.7651291  14.6081114  18.7082815  50.3109837  14.1067326
  18.8208008  48.9652920  14.7904301  51.0755634 110.4033470  82.4957848
  50.7701302 110.0091934  81.6787243  50.2841282 110.7572556  82.9015064
  26.0563302  55.3129482  19.2654800  25.6092215  56.0830927  19.6164906
  26.1111975  54.7094202  20.0064087  31.2237930  53.7884426  28.2268906
  30.9337616  53.4408474  29.0702724  32.1682310  53.9065218  28.3285046
  89.1182613  96.7063618  85.0567532  89.6363258  96.0466862  85.5179214
  89.4699001  96.7076778  84.1664791  11.6405261  31.1188841  51.0273981
  11.9873750  31.3936782  51.8761730  11.2929070  31.9218922  50.6393671
  38.6140227  17.2335374   0.9749313  38.7382531  17.9403079   0.3414699
  39.1134214  16.4999187   0.6162691  67.8154230  71.7114067  73.6339569
  68.6150599  71.3383055  74.0049124  67.9723978  72.6556206  73.6272240
  38.4813857  66.2125063  23.6100960  38.8698626  66.7291975  22.9041600
  37.7680898  65.7316160  23.1903529  18.0943429  73.1116247  11.3150966
  18.2861376  73.7045002  10.5884981  18.1322265  73.6669970  12.0937860
  25.0270414  60.0849915  15.6743419  24.1345000  59.7832489  15.5053556
  25.4893875  59.3051624  15.9814799  55.4920053  53.3163261   5.8843076
  54.9134398  54.0021229   5.5508757  56.0954285  53.1401443   5.1624560
  27.8322554  42.4737740   4.7935465  27.8436828  43.2741785   4.2687118
  28.1841350  42.7394199   5.6431609   5.7025713  71.3804531   7.0567507
   6.1393625  70.8728552   7.7407002   5.9559584  70.9499598   6.2402326
 118.1272690  49.0616322  91.6091347 117.8968140  49.6030903  90.8541965
 118.3708717  49.6898460  92.2890186 101.0654640 107.5147820  85.5389881
 101.1029053 106.8925285  84.8126125 101.9788170 107.6344585  85.7991695
  53.1360817  55.2691507   1.2119559  53.7882328  54.6497250   1.5394342
  52.2945499  54.8619795   1.4175618  40.2913713  67.2929001   7.7271557
  40.7420349  66.5266752   7.3721385  40.1497936  67.8600359   6.9691700
  32.7719998  53.8889694  20.4855514  31.8829656  53.5403013  20.4201388
  32.8846979  54.4084835  19.6895361  11.5164876  12.3785996  92.7938271
  11.4560282  12.2260070  91.8508053  11.1093640  11.6071033  93.1878757
  10.7788014  50.6165791  11.2310064  10.5643761  50.8874035  10.3383112
  11.5381479  50.0424099  11.1312366  54.5060396  64.6712160  31.5876675
  54.9853992  64.8495293  32.3967719  53.6858082  65.1552057  31.6836023
  57.7135420  65.6423378  24.4964290  57.4826384  65.2292395  25.3284526
  58.5903311  65.9981585  24.6408772  64.2921877  30.6070638   9.6320397
  64.5987177  30.6379461   8.7257725  64.5565462  31.4488769  10.0031126
  27.7981353   6.7094237  20.6522989  28.1656861   6.7911559  21.5323329
  27.5132060   7.5954044  20.4285026   9.4977516  26.3438129  16.6994607
  10.1418686  26.7026782  17.3098397   8.8197720  25.9674072  17.2606146
  39.3700051  97.3772621  13.7184823  38.7290287  97.5358677  13.0255008
  40.0394821  96.8319988  13.3052850  38.2912540  27.1981835  48.0465460
  37.6922178  27.5656891  48.6964130  38.8550472  27.9310536  47.7990150
  46.2648010  23.7694597  29.0147853  46.1987162  24.3658376  28.2689977
  47.0918608  23.3070683  28.8791513  46.3043594  43.1521416  14.5885050
  45.6085730  43.7017822  14.2279363  46.7627954  42.8114653  13.8203835
  68.3272219  49.2154980  17.3276031  68.1309700  48.3556223  17.6995242
  68.6712503  49.0260410  16.4546883  19.6590698  51.7554426   9.2266673
  20.3730631  52.1404696   9.7348011  20.0764418  51.4479923   8.4219879
  50.7074213  25.2756000   6.9783407  51.2831926  25.8223653   7.5129133
  51.1236620  25.2605891   6.1165094  51.9119453   9.6033514   5.6764531
  52.1268368   8.9036328   5.0596493  51.9454098  10.4034722   5.1521260
  92.7061081 100.6797981  88.4240150  92.9877090  99.7734547  88.2996368
  92.3032284 100.9220028  87.5901985  64.2763519  50.1218700  13.2128811
  64.2108679  50.2396536  14.1605473  65.0321960  50.6507301  12.9574597
 109.2635918  67.4042511  33.1290555 109.4542313  66.4706135  33.2196522
 108.7866688  67.6299238  33.9277101  81.7166424  87.4666214  70.3455591
  82.4488926  86.9539261  70.0032377  82.1301365  88.1956291  70.8079481
   1.4183339  77.5713015  80.1844025   1.0681389  76.7527866  79.8328018
   2.3328218  77.5815153  79.9018478  11.2674248   9.2679369  67.2227907
  10.7828271   9.0629101  68.0223942  11.3998914  10.2152252  67.2592497
  29.9897790  29.4899583   5.3532648  30.8918762  29.8093772   5.3326792
  30.0609612  28.5920644   5.6772316 116.3752842   6.0888529  24.2461729
 116.2432194   6.2649208  23.3146191 117.2677422   6.3868392  24.4220805
  45.3311682  52.3631859  21.0180163  46.0145330  52.9027224  20.6203437
  45.4111481  51.5151405  20.5813813  92.5361824   4.3983337  71.3244152
  91.8156815   3.8250080  71.0628605  92.8192997   4.0556771  72.1721554
  10.8683038  41.6524935   5.8923250  10.1047635  41.1058283   6.0777771
  10.7129908  42.4567938   6.3875157  53.1663704  20.7903647  52.7960968
  52.8035116  20.3348756  52.0364285  52.4112415  21.2131190  53.2050991
  24.9196720  45.5240870  24.9863982  25.4173398  44.7299480  24.7917151
  25.1056314  45.7033634  25.9080863  73.5407448   3.4183791   6.7689830
  73.7663603   3.0071366   5.9345913  72.6072645   3.6163357   6.6937733
  72.4690056 110.1404476  86.4386368  73.3037758 110.2972698  86.8799973
  72.5035572 109.2191696  86.1811924  43.0204821  79.7235250  21.3178062
  42.1034813  79.8321152  21.5699005  43.1907463  80.4478931  20.7156968
  17.8577459  65.6000805  12.2980881  17.9242849  66.5300322  12.5148606
  18.0741620  65.5551577  11.3667560  45.7556629  48.9184523  44.4330406
  45.4711008  48.1164742  43.9947605  46.5372992  49.1899586  43.9518309
  30.9435487 101.3881683   7.1425474  30.1891088 101.9326401   7.3675078
  31.0480785 100.8022022   7.8921807  51.8629789  49.0589952  21.4360881
  51.7625904  50.0105524  21.4096379  52.7908325  48.9108706  21.2533903
  57.5480127  28.3686566  18.4465992  57.0088482  27.5796294  18.3920896
  58.4112930  28.0904436  18.1407022 105.4740810  57.4606943  92.4545383
 105.2335358  57.7747011  91.5828896 105.2313805  56.5347815  92.4509716
  64.3695688  56.4340830   5.0830895  64.1401291  57.3018456   5.4156154
  65.2944756  56.5049219   4.8469546  52.1117640  46.5941048  19.9821091
  52.0775509  46.8972015  20.8894086  51.2837934  46.1315441  19.8527300
  34.4960618  28.8209319  10.3262949  34.2977619  27.8943682  10.4619038
  33.6640549  29.2061901  10.0513899  57.7734137   6.4950937   0.8045452
  57.0591307   5.9988791   1.2043020  57.3356819   7.1802622   0.2994043
 115.9623241  23.6464095  89.8141670 115.2799034  23.0273628  90.0736332
 116.4064503  23.8699818  90.6320858  95.7467365  38.8896251  94.2639256
  96.2448025  38.9895344  95.0752068  94.8326588  38.9880037  94.5303917
 110.9044838   7.8153980  91.0381126 111.6173935   7.8453439  91.6761494
 110.2764416   8.4669715  91.3499546  84.4270611  86.6157913  77.3656082
  83.7965107  87.1525383  76.8854618  83.9166927  85.8688068  77.6782942
  66.1604452  52.1560526  12.7053642  67.0183277  52.0029593  12.3093426
  66.3568211  52.4818659  13.5837245 102.5992298  10.3071821  92.3077869
 102.2680664  10.9054208  91.6379642 101.8131447   9.9191129  92.6921082
  42.8912926  53.3132744  20.4809523  43.6318064  52.8721046  20.8971786
  42.7329540  54.0829039  21.0276055  15.8705711  47.0243740  26.5408444
  15.0583506  46.5637493  26.3302398  15.8154166  47.8439903  26.0495019
  79.5631123 106.5473557  78.9153719  80.0267792 107.0931339  79.5504856
  79.7961521 105.6504250  79.1550398  47.4363565  54.4822598  11.9675338
  47.0365381  53.7653780  11.4751327  47.8741360  54.0530109  12.7026033
  84.5180702 110.3410721  92.1179295  85.2312279 109.8236847  91.7438221
  84.1519737 109.7832870  92.8042793  24.1686273  75.9543943  25.0497556
  23.8011861  75.1491356  25.4141402  25.0605965  75.7172680  24.7959995
  10.4428804  43.4695721  45.2625942  11.3194656  43.5310745  44.8830557
  10.4381096  42.6283789  45.7193184  59.8940086  58.0730009   4.0008387
  59.1572714  57.8034925   4.5493111  60.4248333  57.2819996   3.9071915
  65.2083349  62.4271393   1.8958919  64.9026012  61.5502357   2.1278344
  66.1170578  62.4510527   2.1957035   1.9270788  10.4994702  80.0562763
   1.3854991   9.7399902  80.2710247   2.1141329  10.4038990  79.1224146
   2.7588686  24.6996689  63.1405878   2.4769393  24.5327163  64.0399647
   1.9438651  24.7781491  62.6447630  30.3861761  80.1701450  38.0929589
  30.4841161  79.8012209  38.9707589  29.4569993  80.3907490  38.0281687
  36.5654445  14.0430737  55.0090647  36.2108660  13.6827791  55.8218956
  36.3758993  13.3764398  54.3488359  53.2597303  50.6455088  18.5665107
  52.3729753  50.8954906  18.3068860  53.5174799  51.3082218  19.2072976
  75.5421066  89.7157288  94.0724182  75.6892824  89.8929977  95.0014782
  75.9228420  90.4693794  93.6215401  65.9076071  56.9908094  16.8097401
  65.2948618  56.9705582  17.5448334  65.4822922  56.4693880  16.1289656
  32.0603204  55.2312565  11.9895828  32.5371194  56.0366726  11.7890799
  32.6343989  54.5300388  11.6814256  24.8368025  11.6497242  84.3441296
  23.9329410  11.6524410  84.6591854  24.8072863  11.1373019  83.5361767
   9.5715946   6.4756012  91.2458706  10.0417328   5.7156265  90.9028816
   9.9582499   7.2226298  90.7890606  30.5731225   8.5606998  90.9292889
  31.0880184   8.0086738  90.3407478  31.2035370   9.1895318  91.2805462
   5.9791780  13.2620871  91.0579395   5.8858907  12.4560583  90.5501556
   6.8778586  13.5469258  90.8921909  64.5782328  77.0958328  12.5292492
  65.2515984  76.6799498  11.9908750  63.7670279  76.6506004  12.2844136
  40.6770039   3.7467870  94.4879150  40.7628632   4.6326989  94.8400784
  40.6135082   3.8706163  93.5408783  19.5009303   7.7184504  85.5690765
  19.3509126   8.1786209  86.3948917  19.4841981   8.4072387  84.9046040
  53.6843931  49.1234306  -0.1595717  53.0168497  49.7449306   0.1308793
  53.4703695  48.3106235   0.2984495 111.1584663  23.6953664  87.1987152
 111.3015079  22.8348088  86.8047428 111.8368244  24.2505550  86.8142223
 102.7375031  45.9235954  93.7427425 102.1869278  45.6536293  93.0077362
 102.1823311  46.5120077  94.2543983  56.4240122  48.9046812  21.9331098
  55.7659578  48.3589125  21.5026093  56.2223911  48.8319921  22.8660059
  45.5090046  59.7391558   4.8026666  45.6787634  60.2035236   3.9830500
  46.3389254  59.3102694   5.0112873  31.2339473  59.2299700  10.1117754
  31.5551615  58.6752081  10.8226156  31.0061598  60.0565767  10.5372930
  16.4062321  68.3519268  17.1099234  16.5969312  67.7201653  16.4165688
  16.5294564  69.2061996  16.6960800  70.1171064  68.4233952  14.1653180
  70.3573132  67.4973583  14.1967595  70.5252886  68.7496185  13.3633196
  61.3417101  41.7378426   2.0679572  61.6466856  42.6438808   2.0199120
  61.7242241  41.3989687   2.8773293  50.3321314  91.9540977  17.0221317
  51.1779785  91.5070248  17.0521832  49.7668695  91.3639355  16.5237212
  92.6474512   1.0053013  66.2081289  93.3823383   0.8371494  65.6183004
  93.0444515   1.4231632  66.9723320 109.2132759  39.5984697  85.6095219
 108.4038544  40.0465441  85.3639507 109.5155430  40.0611544  86.3910484
  70.5979872  25.5735755   7.6661849  70.3795099  24.6973181   7.3488963
  70.6528854  25.4772615   8.6169434  65.0618649 103.5638237  46.2105513
  64.6206903 102.8018475  45.8350706  64.9848413 104.2406559  45.5380964
  53.0173016  47.4445057  17.5350261  52.7154064  48.3490419  17.4519432
  52.4641609  47.0693731  18.2202542  22.0322633  67.0752525  16.2557244
  21.7598009  67.9475307  15.9708941  21.2122250  66.6002131  16.3902736
  69.4414997  36.4914751  13.1984735  69.6519184  37.3774838  13.4933317
  70.2399683  36.1864829  12.7675939  53.0532503  37.7139139  17.8277493
  53.8363838  37.2757125  18.1607914  53.3777380  38.5336041  17.4548602
  35.9107614  66.9572783  11.5230596  36.7667866  66.5770769  11.7202973
  35.3023362  66.4854097  12.0917380  41.4985228  64.2604923  11.2710845
  40.8008814  63.7989759  10.8057642  41.1591053  64.3754148  12.1586776
  20.6953621  26.9277501  62.9313850  20.2045512  26.7689180  62.1250963
  20.0456715  26.8389535  63.6287022  14.0233326  46.8811035  29.1204143
  14.0442538  46.9521427  28.1660843  13.1509697  46.5391445  29.3160677
  30.6555915  30.1703835  27.1971297  29.9867010  30.8524585  27.2570610
  31.4720798  30.6149411  27.4250531  42.6911736  49.4483089   7.7938056
  41.7473841  49.5036554   7.9435605  43.0768251  49.9618483   8.5035819
  67.8217983  45.2683401  10.4834723  67.8302574  44.8223734   9.6365529
  67.3879623  44.6525621  11.0740948  31.0777378  77.6920366  11.3820279
  30.4226184  77.9345083  10.7276154  30.5761194  77.2642756  12.0760238
   8.8200861  96.1857414  76.8756104   9.3682265  96.3441277  77.6441717
   8.4459049  97.0419025  76.6677380  41.1156988  53.0651474   6.2761903
  40.5643463  53.7619972   5.9203297  40.8588123  52.2832823   5.7873887
  40.7209539  45.6900597  34.2897582  40.0565147  45.0742722  33.9806437
  40.6840372  46.4152622  33.6660957 101.0752869  91.1864853  89.4629288
 100.4406357  90.5329895  89.1690063 100.5629349  91.7958927  89.9943066
 116.4869976   9.8944020  67.0101833 116.5737343   9.6287555  67.9256821
 115.6523800  10.3617084  66.9744349  41.4696312  39.3172240  12.4184144
  41.3470888  39.7838259  11.5916753  41.6634178  40.0050879  13.0552208
  24.1034698  40.7258272   0.5917454  24.0259504  41.5516520   0.1140075
  23.8256192  40.9376621   1.4829002  41.1094570  32.1371341  18.2606459
  40.7757616  32.8304672  18.8300037  41.2008238  31.3777924  18.8362157
   8.2663399  10.0359559  90.3805256   8.6510831   9.2178321  90.0660706
   8.3106965  10.6261778  89.6282578  48.2273340  69.0640020  26.1455107
  48.8160515  69.3661594  26.8371367  47.6754808  68.4074926  26.5705824
 106.6421318  22.5144458  75.5191135 107.3064423  21.8767452  75.7803822
 106.0118198  22.5124836  76.2394857  69.9910212 107.1223450  83.4665012
  69.2113638 107.5427151  83.8293457  70.3098106 107.7379322  82.8064632
  44.6513462  95.3072166   1.2425812  44.0761089  94.5514965   1.3618442
  45.1557970  95.1023579   0.4553099  25.6957293  91.4231014   2.1641144
  26.1208081  90.6001568   2.4055764  24.8975134  91.4442635   2.6919740
  83.2586861  87.5340176  92.3685265  84.0684128  87.8206825  92.7908897
  82.9123592  86.8566513  92.9494476  18.4388578  92.7491283   3.7440774
  18.0045855  91.9077682   3.8846627  17.9974997  93.3497715   4.3446222
  26.0846043  59.2004967  32.1178246  26.9011712  58.8435364  31.7684960
  25.3968263  58.7113762  31.6662073  76.5042639 108.8513851  85.1839542
  77.0203972 108.8880444  84.3786621  75.5947447 108.8494778  84.8856258
  44.2708111  59.7557545  11.9306386  44.6384287  59.2451382  12.6519990
  43.9085150  59.1008711  11.3338947  52.1318102  33.9445090  20.2829528
  52.6692820  33.8906550  19.4927251  52.2726774  34.8336363  20.6082869
  53.3850861  39.1784334  13.5871959  53.4617853  39.9942040  14.0820396
  53.1865597  39.4581389  12.6935613  41.1985350 111.2543774  87.4652004
  41.8518305 111.7046356  86.9297504  41.6677237 110.5081177  87.8382874
  28.3542800  48.9030170   4.1772762  28.0406356  48.1568050   3.6663687
  28.9703274  48.5226297   4.8033944  93.5235882 102.1884441  92.6565742
  92.8961086 101.5815544  93.0492306  93.1770229 103.0569267  92.8612041
  27.7256155  79.9002790  17.7630007  27.7322745  78.9504957  17.6442301
  27.7786446  80.0235176  18.7107515  90.9681129  64.3332529   6.1794811
  90.8153534  65.2778912   6.1558485  91.8973827  64.2356396   5.9717220
  46.5821171  20.6125093  19.9041247  46.8812704  19.7589052  19.5909154
  47.2397709  20.8752871  20.5480742  21.6422129  59.3430758  25.0494814
  21.5088964  59.0793514  25.9599257  22.5198317  59.7249889  25.0368023
  68.4124470  21.7827010   8.7417996  67.5659180  21.7704487   9.1884184
  68.5099220  20.8982587   8.3889681  15.6339741  20.1173615  87.5113773
  15.2738869  20.9425235  87.8364563  14.8694515  19.6210074  87.2192001
  74.8691368  52.9478598  13.1805098  75.4931498  52.3857927  12.7212453
  74.9488401  53.7978888  12.7476978  29.3350363  32.6033616  89.7466469
  29.2842507  32.5639653  88.7916088  28.9962220  31.7574263  90.0396156
  41.3833237  75.2256966  42.9895210  41.7150068  75.2926016  43.8849211
  42.0655251  74.7492981  42.5163651  47.5434160  64.9057388   2.9144651
  46.8361616  64.8470783   3.5567898  47.0960093  64.9662066   2.0704271
  43.4119892  69.1946936  22.8984714  43.8812256  69.0794516  23.7247705
  43.9845181  69.7544432  22.3739552  30.2836227  45.9646654  86.3919449
  30.0032401  45.8510971  85.4838085  29.6588206  45.4489946  86.9017887
  61.8128490  59.4728136  30.7122302  62.7484369  59.3178320  30.8421993
  61.7745686  60.2123594  30.1057339  31.2920761   2.5531003  79.6561003
  31.9018579   3.1024393  79.1635323  30.7915688   3.1700766  80.1900101
  36.8790913  21.6486263  11.3393462  36.9686937  21.7149687  12.2900307
  35.9983683  21.2983704  11.2056422  21.4938617  19.6334052  84.9789238
  20.8524942  18.9318359  85.0915241  22.2145557  19.2244387  84.4997787
  81.8667316 105.4074478  73.6313963  80.9879208 105.4836750  73.2597733
  81.8655205 106.0103416  74.3748617 112.6358414  19.5669103  95.4020786
 113.4260273  19.0875614  95.6512165 111.9815159  18.8857841  95.2466679
  76.3609934  74.5482397  40.8533287  75.7891464  74.0264940  40.2902985
  77.1631765  74.0309572  40.9251261  44.3170691  54.8683834  26.9521141
  44.5856333  54.1102839  27.4711370  45.1063824  55.1233578  26.4744020
   2.5694951  46.0798264  78.3940649   3.1124017  46.0173512  77.6081991
   3.0546692  46.6664410  78.9743376  36.4158511  85.7585335  25.7687521
  35.5353022  85.3841496  25.7422996  36.4649487  86.1953354  26.6190624
  33.6519051  68.2889795  20.7233882  33.0485535  68.8947487  20.2929902
  34.5107055  68.5097694  20.3629112  48.7667370  94.9884892  94.2913342
  48.1333876  95.3200054  94.9278831  48.7690115  95.6427860  93.5926819
  69.6688843  73.9021206  13.7112689  69.4829702  72.9875040  13.9237547
  69.6057749  74.3603086  14.5493090  15.8720040  56.3364267  43.9577961
  15.6240547  56.4213276  43.0371761  15.3429568  55.6076145  44.2821026
  54.7071075  53.1803989   8.4287196  54.6370792  53.5277033   7.5395030
  54.4463778  53.9092636   8.9917535 106.5955734  33.7033033  80.5534935
 106.2661171  32.8861523  80.9276104 107.2909260  33.9773130  81.1515236
  23.1714535  96.9735909  13.1107020  23.4473252  97.7633381  12.6454842
  22.2889853  96.7988968  12.7836537  19.6176517   8.4324473  93.3876419
  20.4881477   8.7372208  93.6437321  19.4073403   7.7475506  94.0224075
  30.7185006  38.0592465  11.3170850  30.3148532  37.8139710  12.1496367
  31.5505767  38.4628510  11.5640342  42.3293257  29.0983462   5.3043312
  41.9050884  29.8290634   5.7541144  41.6069508  28.6021686   4.9193543
  75.7913589  64.7651243   9.5625669  75.1136351  65.3148079   9.9559796
  76.2568760  64.3877840  10.3089833  22.2770834  66.6624069  27.4491215
  21.9340110  67.1905661  28.1699443  22.8562260  67.2563219  26.9715357
  43.2556820  77.7890539  19.2117822  43.1545115  76.9688320  19.6947229
  43.4927130  78.4325361  19.8795998 116.0100269  95.0456333  75.8181143
 115.7391453  95.8740711  76.2137508 116.4916801  95.3019714  75.0316477
  46.3202906  88.1992626  20.5965805  45.3784609  88.0767441  20.4774952
  46.5939665  87.4510288  21.1271238  39.1303611  79.9146986  34.4832873
  38.6442566  79.2132807  34.0497565  38.9036131  80.7033157  33.9904356
  45.9044170  87.7440357  94.9375057  46.7824793  88.0697727  94.7396946
  46.0198545  86.8013096  95.0565147  81.3109875  86.4006805  16.4926422
  81.7816544  86.0918999  15.7184613  81.9993877  86.6848183  17.0939696
  76.6415310 104.0100765  93.0438232  76.2967110 104.4219875  92.2515774
  76.2550449 103.1343746  93.0461311  35.3950047  29.3953133  12.8582609
  35.1266432  29.4482851  11.9409776  35.6381130  28.4780931  12.9841018
  80.2753353  64.7570562  10.6205416  79.8319912  64.0907860  10.0954092
  81.0935020  64.3417788  10.8932638  38.1800771  81.1204243  27.5322652
  37.6811171  81.9308090  27.4295139  37.6665092  80.4619789  27.0643640
  33.8880157  50.0587606   6.3986892  34.2333031  49.1769361   6.5379649
  33.0247092  49.9192429   6.0095030  58.6074686  86.9246674  25.7362795
  59.0860701  86.1508751  26.0336256  59.1833210  87.6589966  25.9493446
  29.2416430  64.0500164  24.5868993  29.1065931  63.2242393  24.1220522
  29.9104929  64.5058823  24.0759587  41.3041830  44.7662497  23.5193133
  40.5051088  44.5791817  24.0119767  42.0143461  44.5355940  24.1182280
  18.5392618   5.4039156  81.9933128  18.5955811   6.2041819  81.4711666
  18.9516628   4.7332308  81.4489365  51.6400242  54.3600035  20.7006097
  52.2861481  53.8440180  20.2184153  51.2709188  54.9534035  20.0464940
 115.1768780 101.0853481  75.4445601 116.0955238 101.2520504  75.2335215
 115.0786972 101.3921928  76.3459110  87.6744556 107.9223633  59.8194933
  87.0194435 108.3941841  60.3338623  87.1879101 107.2064209  59.4109154
  34.3950772   5.6239140  92.8019142  34.3134212   4.9117261  92.1675968
  34.1779160   5.2216834  93.6429119  83.2678795  69.2003441  30.8484077
  82.7678490  69.2173910  31.6644454  83.1360245  68.3165932  30.5051351
  14.4027853  67.6414490  19.5894682  14.6783888  66.9963884  20.2407503
  13.5928547  68.0085087  19.9437463  26.1798692  50.0983191  15.3938389
  26.0117888  49.3371058  15.9492958  27.0308971  49.9196529  14.9937630
  45.9087372  40.6470633  21.6467667  45.9579992  40.2090979  20.7970643
  46.8000698  40.9559774  21.8090343  21.1384845  60.7365990   8.9730883
  20.4370499  61.2445307   9.3807971  20.7474041  59.8789930   8.8063699
  55.2159071  51.1488438  16.4708877  54.9436283  50.6209755  15.7202542
  54.5802879  50.9383202  17.1549177  52.1205282  50.4141569  15.6911969
  51.6612577  50.8598185  16.4030159  52.0122862  50.9932137  14.9367380
  80.5757999  25.0726628  85.8526516  81.0275269  25.5697727  85.1706982
  79.9889088  25.7077765  86.2630463 115.4262638  12.1416938  70.0325966
 114.8668194  12.5575149  70.6886101 116.0013485  12.8438473  69.7284794
  14.5427406  15.8152866  26.9716859  15.2511883  16.4238811  26.7620540
  14.9254143  15.2128243  27.6095200  50.2484083  64.6007299  34.9220037
  50.6414938  65.4237366  35.2124834  49.3205357  64.8058844  34.8071337
  47.2138643  70.1169586  16.3055122  47.4880886  69.4399166  15.6869245
  46.5060139  69.7113991  16.8062150  35.2783966  45.9455824  32.7139950
  34.6774507  45.2851248  33.0588055  35.6148887  45.5633831  31.9034839
 104.3486309  21.8317294  80.1064777 103.8118172  21.0528612  79.9600983
 104.0691948  22.1579170  80.9618950  37.0729375  56.5036011   9.7858882
  37.6270413  55.8388090   9.3769181  36.3269949  56.5917253   9.1925597
  58.6297655  74.4280148  33.3302832  58.2710505  75.2146244  32.9194331
  57.8654957  73.9722824  33.6830378  13.2587421  14.5162117  93.2687569
  13.6755872  14.3785870  94.1193676  12.5587797  13.8640928  93.2367420
  13.7641072  77.1001911  31.4608693  14.2752993  77.9044914  31.5503860
  13.2649052  77.0417595  32.2754955 114.9654770  23.7095332  26.2882805
 115.0298023  22.8093624  26.6073227 114.1853619  23.7118959  25.7336330
  63.1995583  89.6527576  11.5882325  62.6808596  89.8146915  12.3762405
  64.1072273  89.6670914  11.8918157 101.4039230  78.3103371  95.2622223
 100.5026150  77.9891205  95.2357292 101.6609478  78.3787155  94.3427181
 117.7642536  79.5800591  79.7618008 118.3817101  78.8724518  79.9469280
 118.2779312  80.3805161  79.8696518  98.0135632  93.5926533  77.8457212
  98.7779903  93.4054184  78.3905268  98.1776142  94.4683170  77.4956656
  30.8052230  78.1262302  42.8126574  30.1525402  77.4702549  43.0574656
  31.6464210  77.7003956  42.9778337  92.8053570  22.0827603  83.1922817
  92.4013042  22.9127884  83.4453201  92.2829819  21.7785192  82.4501228
  44.4384146  68.8857365  25.4612708  43.6003828  68.5576439  25.7872891
  45.0720978  68.2126713  25.7095957  50.1104546  30.6899166  21.5953803
  49.9737167  31.4282084  21.0016966  50.8096981  30.1800036  21.1863804
  45.5310726  61.8916368  14.6078074  46.0128450  62.3093700  13.8939273
  44.6132994  61.9460583  14.3414235  40.0637817  90.7602215   2.7631232
  40.9943104  90.7916641   2.9852858  40.0030422  90.0923824   2.0800968
  41.4143372  52.1913099  38.8013411  40.9191465  52.1336699  37.9842162
  42.1984386  52.6899242  38.5715628   9.0892917  17.0646358  68.8354683
   9.2120707  17.5855923  69.6290445   9.6030802  17.5197649  68.1683016
  25.7016039  28.2200170  12.4826539  25.7519507  28.9124846  13.1415808
  25.2214575  27.5132585  12.9141438  93.0278873  47.6970339  90.4059315
  92.4839497  48.2339716  89.8296833  93.3844185  47.0173693  89.8339462
   8.4100384  32.1527839  67.9891682   8.3546025  31.8383026  67.0868063
   8.3349228  33.1042433  67.9162598   7.7142817  94.7227287  10.5021024
   8.3174515  94.6677113  11.2433112   6.8616998  94.8994732  10.8997154
 102.2011471   7.4148148  82.1254063 102.9609394   7.9242533  82.4072456
 101.7091560   7.2532070  82.9304314  45.8314943  67.3475313  21.8048239
  45.2513742  66.8378925  22.3704743  46.3776922  67.8482246  22.4108005
  44.6316051  17.4070692   3.7770250  44.1986942  17.7472162   2.9940057
  44.6424246  16.4581800   3.6516327 108.8788509  26.2912250  95.6544399
 109.2616749  25.6198192  96.2191391 107.9366493  26.2266111  95.8103752
  95.9353447 101.7519569  89.9329472  96.0764217 101.5700626  90.8620548
  95.1612949 102.3147297  89.9139023  40.9007645  31.0427427   6.6905689
  40.5107450  30.1926208   6.8940711  40.6991863  31.5870953   7.4516720
  24.0277052   0.6451876  94.1535854  23.3145189   0.2372409  93.6624813
  24.4164228   1.2675467  93.5389328  37.7077675  40.3997040   9.5777416
  37.8267527  39.4917822   9.8565900  37.7444649  40.9062195  10.3891146
  32.9852319  36.6525245  27.5732541  32.6547980  37.5324845  27.3923874
  33.9374781  36.7414951  27.5339842 114.5567131  51.9505978  84.7199154
 114.0087032  52.3509598  85.3949165 114.2491150  51.0456944  84.6672726
  39.6524405  54.9220085   4.7392365  39.9776936  54.7396803   3.8576478
  38.7193108  54.7126627   4.6983209  50.8759356  37.5444794   8.3240420
  51.7606449  37.7557158   8.0258834  50.9493160  36.6608620   8.6846906
  18.2270718   2.6944685  34.2477131  18.5769451   1.8734404  34.5937371
  17.6581061   3.0243552  34.9431872  35.0895667  22.4193358  42.0835829
  35.9942889  22.1088552  42.0473862  34.6353173  21.7713046  42.6220512
  46.9303989  62.3069525   0.4362281  46.6763687  61.7557430  -0.3039558
  47.8448105  62.0780373   0.6026072  46.7333269  79.9704266  36.2141609
  46.9534111  80.4675007  35.4263091  45.7780027  79.9119329  36.2013841
 110.5905533   6.8045622   2.4098587 111.4343166   6.6585422   1.9821133
 110.6796074   7.6603186   2.8293625  54.0713596  66.4824533  18.4509027
  54.6823645  67.0061874  18.9691746  54.6309519  65.9642744  17.8724730
  52.3067617  94.5352936  27.6727843  52.9330349  95.2591038  27.6625609
  52.4458981  94.1101170  28.5190129  51.9075727  51.4636993   0.3241216
  51.4538193  52.2892666   0.1544883  51.9760942  51.4196253   1.2778482
  19.4793499  47.7130842  59.6244144  20.0644493  47.2261429  60.2047443
  19.7973692  48.6149740  59.6654797  42.7656174  62.3535442  28.2882214
  41.8157721  62.2623062  28.3637667  43.0733395  62.4116755  29.1927409
  86.7787075  86.3712978  95.6959915  86.8834591  85.5948830  95.1460457
  86.1659527  86.9259262  95.2131176   9.7409803  77.8421688  54.7316217
   8.9225841  78.3366251  54.6871853  10.2738357  78.3177328  55.3689098
  21.7917895  71.1135960   8.4348738  21.4325762  70.2281475   8.4912312
  21.4470267  71.5615463   9.2073435  92.1889114   9.1760546  28.4738851
  91.5409756   8.4855205  28.3339643  92.8737164   8.9960057  27.8297973
  53.4274054  65.0349474  35.6305909  53.4675360  64.1455078  35.2791381
  54.0151405  65.5409193  35.0695252  34.7991490  70.9544373  94.5674229
  34.0548205  71.3792610  94.1411209  34.8942232  70.1201820  94.1078472
  18.5739112  80.8302116  25.8332086  17.7473116  81.0911846  25.4271793
  19.2153740  80.8809566  25.1245594  31.5884542  31.3447452  15.6523156
  32.5336814  31.2581658  15.7759356  31.2107539  31.0548401  16.4826941
  83.2627583  51.6903210  15.4376972  83.2440281  51.2098885  16.2653852
  83.3756542  51.0134459  14.7703695  23.8671708   6.1684626  79.9098730
  23.0696917   6.3826263  80.3940105  24.5758629   6.3275826  80.5333042
  95.6599998 108.4986019  94.8819065  94.8718262 107.9557800  94.8628807
  95.3663254 109.3346977  95.2437592  65.2743864  63.9257050  46.6712761
  65.3502989  63.3684826  47.4458551  64.3426514  63.9065027  46.4527941
  33.3774304  65.7825804  42.8518438  33.8139129  65.4336309  43.6289835
  32.7759814  66.4449549  43.1920624  28.5270905  88.8192558  17.5770104
  28.6285114  88.2021618  18.3016753  28.4957218  88.2676792  16.7953348
  12.2949219  65.7991743  43.9473534  11.9813430  66.6217089  43.5713959
  11.6945279  65.6226063  44.6716356  50.9370089  26.8228507  14.3349814
  50.2164984  26.3273668  14.7243285  51.2796354  27.3528409  15.0546670
  23.8982892  86.4561558  17.8596187  24.3788147  86.0392475  18.5748184
  24.4676661  86.3540363  17.0969832  30.4998589  81.6093349   3.5342690
  31.1634588  82.0468044   4.0676379  30.7933784  80.6995583   3.4854573
  59.1349936  69.3743515  17.9873192  59.3403769  69.3983364  17.0527208
  59.8646450  68.8956928  18.3806825  65.3343439  99.5398426   1.3256094
  64.7653008  98.8426685   1.6517483  65.6616545  99.9708652   2.1151170
  58.7397909  19.3282723  88.7517166  59.2014933  18.8082671  89.4094849
  58.2624626  18.6840236  88.2289028  25.5508590  26.0436869  90.7114124
  25.9934092  26.4642453  89.9741745  25.9032512  25.1538396  90.7262993
  46.8535757 108.5785675  33.1047773  46.8661690 109.5286560  33.2205796
  46.9371271 108.2280636  33.9915681  51.0131884  28.1729627  18.7720573
  50.1876211  28.0555701  18.3020747  51.6430807  28.4146166  18.0930352
  52.5830078  19.7331595  70.5735493  52.1602821  19.5729780  69.7298241
  53.1799603  18.9934981  70.6866121  18.9838839  63.5588694  49.4895315
  19.6012092  63.0999804  48.9198256  18.5035157  64.1419649  48.9017534
  19.2679024  24.2608190  83.2724667  19.5393741  23.3636451  83.0785179
  18.9209294  24.2187333  84.1635704 111.7404079   6.7384684  14.1898572
 111.1997509   7.3990434  14.6229458 111.1230946   6.0521013  13.9367557
  60.2944565  45.7885313  11.9196534  60.9136534  45.1721191  11.5286767
  60.7981634  46.2346077  12.6004815  22.1588087  44.0891981  93.5192871
  22.2266197  44.0149498  94.4711876  22.0926523  45.0301409  93.3565521
  47.2296190  61.8329382  16.6817629  46.4440060  61.9945383  16.1593437
  47.6061821  61.0362768  16.3079047  61.7703199  53.8963604  18.1352210
  62.7043533  54.0149546  17.9627442  61.6856575  52.9724407  18.3706820
  16.4822066  99.3817902  90.7685757  15.8978450  98.9812183  91.4122295
  16.7792773 100.1906109  91.1854553  39.7961831  77.0355797  17.4645853
  39.5050550  77.0279598  18.3764064  40.3161955  77.8353453  17.3858678
  60.7658148  98.7913132  20.1864171  60.6015015  98.2305431  20.9445548
  60.2940559  98.3683586  19.4689298 113.0178928  17.3786712  90.3337669
 112.8378963  16.6273963  89.7685909 113.6709785  17.0590413  90.9562969
  23.0002761   5.6971395  88.4315109  22.1657085   5.8696908  88.8673496
  23.0320597   4.7445250  88.3434963  23.3981133  87.8018379  23.3717966
  22.9372954  88.5219097  22.9412460  24.2287064  87.7334785  22.9009748
  29.6272087  38.1702065   8.8479483  30.1548553  37.9674387   9.6204150
  28.7475705  38.3243799   9.1924793  40.0829506 103.9154911  18.9491010
  40.0626802 103.3810806  19.7429705  40.6761551 104.6363068  19.1606891
  42.1502924  69.9699306  20.1721239  42.6158047  69.1552973  20.3615880
  42.7029991  70.4183292  19.5320535 113.6490154  19.1863835  86.7412281
 112.7084637  19.3623102  86.7665386 114.0070248  19.6922827  87.4707031
  44.1857386  31.2633991  88.0129147  44.7738743  31.0833168  88.7463284
  43.8334513  30.4064918  87.7724266  65.0221825  70.4246092  17.8909969
  65.0870752  71.1846972  17.3128164  65.7447672  69.8571110  17.6225805
  60.1311207  72.7603197  14.6844852  59.7139692  71.9033098  14.7725010
  59.7250462  73.2955170  15.3663194  41.6095877  72.2084570  45.4424620
  42.0443201  72.2832346  44.5929623  41.4233875  71.2740946  45.5348015
  68.8154125  77.3992872  13.5444736  68.7934256  76.6446877  14.1329706
  69.1462612  78.1158400  14.0860665  28.8995266  83.2659054   5.9824812
  29.4472408  82.7025509   5.4357886  28.0145168  82.9177570   5.8739388
  36.5866399  19.9517393  76.4510155  37.0107627  20.1226091  75.6100893
  37.0699406  19.2109287  76.8168736  61.7507362  79.3841267   3.7292835
  61.1615753  78.9546490   3.1090695  61.8051577  80.2886486   3.4208786
  27.2399676  52.8566364   1.3649530  26.3907778  53.2473090   1.1588354
  27.1383202  52.5181964   2.2545309  38.3710051  57.0938492  20.5529571
  38.5430837  57.7055073  21.2688470  39.2247915  56.7078686  20.3572655
  58.4686661  97.6000977  83.0683422  57.5574017  97.7154636  82.7990437
  58.9371586  98.3175373  82.6416969  60.2088165  85.0381470  16.7904282
  60.4756927  84.6415615  15.9611344  60.9140778  84.8181248  17.3990583
  55.6297874  64.7810984  13.2402670  56.1882114  65.5513620  13.3455539
  56.2038660  64.1201735  12.8531659  36.1855674  42.8390312   3.5509369
  36.2342358  42.9252434   4.5030034  36.4320827  41.9300842   3.3798403
 105.2682495  68.6092854  12.7235997 105.6422424  67.7283907  12.7038383
 104.3248653  68.4672737  12.8016126  48.1786108  90.4484653  39.3501449
  48.7713957  90.1475239  38.6614704  48.6471939  90.2682686  40.1651239
   2.7330619  96.2372112  94.9822235   1.9126138  95.7461548  95.0264454
   3.2478914  95.7838058  94.3146896  63.3504009  73.1103516  13.1822503
  64.1650915  72.9733324  12.6987863  63.1634617  72.2610188  13.5821474
  21.0817838   1.5303026  86.2339306  21.5146470   2.0712821  85.5734730
  20.5753779   0.8945248  85.7283878  62.1579313  93.2969761  25.6712294
  61.9880009  94.0466690  25.1008630  61.2887335  92.9638481  25.8942819
  45.1082993  71.5310335  24.8141241  45.0600338  70.5806303  24.9172831
  45.6707954  71.8216133  25.5320334  39.9755883  99.2113781  15.6621838
  39.9581861  98.6476040  14.8888266  39.0556765  99.4154358  15.8305788
 100.2618885 102.1326447  95.7438850  99.9633884 101.6522598  94.9716377
  99.6530628 102.8674412  95.8189964  73.9691925  63.7315464  11.9956040
  73.1245756  63.7780571  12.4435878  73.7782383  63.9976883  11.0961950
  98.7397099  49.3252611  32.4413276  97.8747082  49.4334412  32.0459723
  98.6603928  49.7295046  33.3053470  37.9595304  74.4539595  21.8398142
  38.7407064  74.5248985  22.3884177  37.6210928  73.5763597  22.0173168
  58.5509968  55.1613188   3.6113796  59.0977430  55.3058767   2.8391078
  57.6734638  55.4273081   3.3367652  35.4276919  80.9863186   6.5033162
  35.3411293  81.8690395   6.8632179  36.1283040  80.5855179   7.0178425
  57.6723862  58.1605864  11.3279998  57.9531097  57.3822021  11.8091917
  58.4372854  58.7359953  11.3361204  54.9010658  48.3032703  19.6438515
  54.4300890  48.9714241  19.1458702  54.3895626  47.5043535  19.5160770
 107.6101780  93.0222416  86.6850471 107.0755768  93.7648201  86.9661236
 107.2295761  92.7563477  85.8479881  16.2321985  76.8995142  11.6546071
  16.7627048  77.5391769  12.1296072  16.6257846  76.8620110  10.7828760
  89.8792839  47.3544407  30.1985550  89.0225029  47.0331097  30.4794598
  89.7729111  48.3041668  30.1443648  64.4697618  87.6010895  22.7046800
  63.7589502  87.4011326  23.3137703  64.9339533  86.7708683  22.5974536
  57.1493101  51.6739416  14.1657329  57.4063492  52.5209713  13.8014519
  56.2120152  51.6089964  13.9827132  27.3457360  21.9412398  89.1508389
  26.4879036  21.9586778  88.7265110  27.6464725  22.8494620  89.1204739
  24.3260002  24.0697646   9.4333708  23.5361338  24.1550779   8.8994586
  24.7470522  24.9275303   9.3769300  95.1693249   1.6189644  82.1379471
  95.3309059   0.7152906  81.8668461  94.6527958   1.5397136  82.9399109
  58.5080242  68.9021587  59.0236759  58.9958668  69.1831875  59.7977972
  58.7881470  69.5027208  58.3329630 109.0712070  40.3012705  92.4785423
 108.2730579  40.7972050  92.2962189 109.3039513  39.9048853  91.6389370
  61.7835712  67.7758980  17.4884367  61.4760303  67.1369553  18.1314003
  62.5219011  68.2097054  17.9161191   4.2599580   7.0235187  89.5842934
   5.1870823   6.9388556  89.8067856   4.0643603   6.2398010  89.0707207
  25.4090619  67.8227186   3.4081948  24.5494437  67.4868727   3.1542352
  25.7073450  68.3184958   2.6456568  63.4463930  83.3104038  45.6296825
  63.2636881  84.1964626  45.3170252  63.1171179  82.7389717  44.9359417
 114.3442535   7.2413445  87.0224571 114.1340542   7.6128566  87.8792191
 114.0320206   6.3377535  87.0700932  51.7631960  61.5681839  29.0536141
  52.4010468  60.8796453  28.8657522  51.5092707  61.9008064  28.1927323
 114.7336769  13.1296813  93.9844704 114.1105843  13.8378823  94.1470814
 115.4656601  13.5529780  93.5358524   6.2633318  83.7974453   5.7665133
   6.2666684  82.9657650   6.2403685   6.8063891  83.6357307   4.9950412
  53.9950085  96.1975193  12.0961010  53.2569122  96.0213470  11.5126562
  53.5896540  96.4388084  12.9289877  40.9678936  85.6157875  39.4984865
  41.4819193  86.3712215  39.7836637  40.4935646  85.9262085  38.7272072
  76.8079615  49.0117836  10.2175939  77.2343111  48.4186172  10.8361471
  75.9884214  49.2570591  10.6470478  11.6081250  25.6349826  83.9641190
  11.0312378  24.9323344  83.6645889  12.4807358  25.2416301  83.9716339
  55.1961994  96.5344524   0.4833157  55.3287458  97.1258640   1.2241892
  55.7005501  96.9266605  -0.2294485  59.4094419 108.3741951  38.6365128
  60.1529789 107.8564548  38.3277559  59.7364569 109.2735291  38.6584806
  26.0012388  11.5339756  92.3639393  26.4163923  11.5834022  91.5028763
  26.1303592  12.4036622  92.7423668  71.9906998  65.8968401  23.6705399
  72.4781799  65.1586533  23.3049202  72.5113583  66.1787176  24.4226646
  62.1768570  69.5838737   4.4319603  62.0402670  69.6761036   5.3748637
  62.7556181  70.3106403   4.2015666  52.9390383  43.3388996  73.6334896
  52.8107786  43.0528593  74.5379066  52.6787472  44.2600250  73.6344099
  14.3744397  89.8702621  21.9035840  14.2958343  89.9908924  22.8498936
  14.3971741  90.7594109  21.5498590  57.2405863  66.9817019  13.4039867
  56.7552233  67.4939632  14.0506983  57.0598841  67.4156284  12.5701487
  29.8653674  96.9425964   8.6125898  29.6369147  97.5756836   9.2932093
  30.8187079  96.8719578   8.6614501  46.2337685  96.6360474  25.8140421
  47.1805000  96.5293121  25.9064603  45.9543228  95.8705235  25.3119326
  37.4134326  44.7306299  22.5302482  37.2044039  45.5744934  22.1297097
  37.5464463  44.1399908  21.7888403  97.4342918 107.1127033  93.6453915
  97.0530796 106.2368202  93.5843182  96.7956829 107.6172638  94.1492081
  30.3978324  47.3495531  22.2014332  30.8576560  48.1124020  21.8509293
  31.0502768  46.9040680  22.7418923  33.9265776   3.1500480  91.5622520
  34.5443892   2.4791759  91.8528843  33.3010054   3.2277492  92.2825623
  53.6901188   6.6378176  32.1906495  54.5887232   6.5576774  31.8707681
  53.5780048   5.8914649  32.7793932  30.9286332  64.1183567   7.6337165
  30.2135611  63.9159679   8.2369924  31.5299559  63.3784199   7.7182114
  49.2024136  57.0099115   1.9237348  49.8450041  57.5850821   2.3390427
  48.8458824  56.4897060   2.6438072 111.8511772 107.6247406  77.5235558
 112.3048210 108.2112026  78.1289482 111.8104172 108.1137276  76.7016983
  95.0117874  67.1397066  16.9220161  94.4434834  66.3911009  16.7407429
  94.6157551  67.8639507  16.4373946  68.8512802  79.2462301  21.3225436
  69.2134428  78.6243486  20.6914091  68.6796665  80.0357914  20.8093381
  35.9167957  83.3906651  29.8504448  36.1649394  82.4760246  29.9849296
  35.9304070  83.5053062  28.9002323  29.5548177  24.3873024  95.7535362
  29.5046806  25.1113153  96.3776493  30.4925966  24.2289448  95.6452370
  59.2717123  63.0240583  45.1087379  59.8743629  63.5529709  45.6315184
  59.3515158  62.1416473  45.4709673  16.1169243  81.7738628   9.3004817
  16.5989828  82.0647335  10.0745904  16.6289699  81.0396862   8.9613277
  57.5181866  51.7848492  18.1886435  58.1272411  52.4513960  17.8708434
  56.8812418  51.6855335  17.4810624  91.6302204  86.6600513  21.5724993
  91.4907169  87.2193432  22.3366666  90.7542038  86.5257835  21.2108278
  51.2141943  54.6047449  24.6582675  52.1066666  54.4664574  24.3410873
  50.9684944  53.7686491  25.0542545 115.3144205   0.4378364  15.6010616
 115.9015978   0.8208225  16.2528086 115.5304945  -0.4946568  15.6026006
  69.5166206 100.7163429  28.9975476  68.9591074 100.9928226  29.7248507
  70.4094505 100.8369255  29.3208790  21.7185497  28.1638002  76.5760183
  22.4330020  28.3991885  75.9840870  21.1095095  27.6662397  76.0303640
  76.8733215  64.5407963   7.1463788  77.6134539  63.9460802   7.2678363
  76.4753866  64.6083117   8.0143189  59.0216875  62.9142857  35.7672167
  59.8823452  62.5197506  35.6263351  59.1844130  63.6316538  36.3796997
  29.6994042  27.9231620  95.5252647  29.0148687  27.3042536  95.7794189
  29.6526909  28.6158562  96.1842251 107.5616646  52.6013231  76.8954420
 107.8164959  51.6790342  76.9214964 107.4543476  52.8462124  77.8145409
  27.6582813  21.1261487  85.8761883  27.3099828  20.7950139  85.0483799
  28.5870194  21.2783289  85.7015038  56.1378336 111.5686512  14.1490948
  56.0555553 110.6262207  14.0032482  56.8879700 111.6553974  14.7373128
  25.3660369  79.8951721  21.0669684  25.1814532  79.9376106  20.1286936
  24.7410035  79.2539883  21.4052725  67.0943356  56.7937660   5.1795799
  67.3220444  57.2952318   5.9624696  67.9129410  56.3715553   4.9190870
  60.8362389  53.3884239  13.0973184  61.5843201  53.2239485  12.5232553
  61.1038589  53.0364561  13.9462757  14.0594220   6.3059688  90.8469105
  13.6993515   6.9321746  91.4749622  14.7427070   6.7938280  90.3871918
  80.1336765  93.8333893  38.0665398  80.7912159  93.3037090  37.6156449
  80.0120449  93.3973026  38.9099050  60.1490593  15.1462364  86.8974018
  61.0763979  15.3499377  86.7758369  60.1343060  14.5196593  87.6208782
  33.6042094  91.6925049   2.3385166  32.9875040  91.0566425   1.9757651
  33.1113744  92.1378517   3.0277228  32.0445776  89.9662304   0.9998356
  31.4199734  90.3741074   0.4000606  32.5040603  89.3197536   0.4639371
  60.4928303  67.1079111  36.3962841  60.8376217  67.0264244  35.5070639
  61.0837078  67.7259207  36.8265843  62.7742672  81.5643883  13.2307673
  63.2824802  81.3858414  14.0220165  62.6582432  80.7066631  12.8220034
  49.0633095  86.6169315   1.0213823  48.9131987  85.9802323   0.3225870
  48.6293263  86.2395411   1.7865438   6.6789418  12.0457351  77.4012136
   6.3850170  12.9274035  77.1720839   7.5529474  12.1729696  77.7702093
  18.4184361  30.8790302  93.8613796  18.6885560  30.0140095  93.5531425
  17.5555623  31.0141826  93.4696960  22.3673654  65.3248644  21.5660024
  23.2278109  65.0778151  21.9048715  22.5519633  65.7404947  20.7237411
  31.4810944  45.5614710  31.8855023  30.6548047  45.1579046  32.1512246
  31.5082002  46.3896132  32.3647523  82.5481224 102.0278072  24.1436577
  82.0740891 101.2951183  23.7503386  83.3605289 101.6402817  24.4693160
  35.2344966  63.3311796   8.1294531  35.6298685  62.5057077   7.8492647
  34.8512077  63.1351471   8.9843750  22.4718809  95.9388447  36.2020230
  21.8370104  95.7515812  36.8934703  22.0234895  96.5585709  35.6265926
   5.7364029  54.7457123  20.0715685   4.8367161  54.5287752  19.8271656
   6.2112302  54.7692776  19.2407751  47.1316290  88.7229156  14.9257767
  47.1966505  88.0115128  14.2886662  47.0520210  89.5145321  14.3935728
  45.7408619  37.2006273  24.4910526  46.3500547  37.9389477  24.4906425
  45.9609461  36.7089534  25.2822876  91.8517399  72.5909424  92.7523708
  92.6795578  72.5255585  92.2762775  92.0974255  72.9244232  93.6153126
  12.6005471  32.5471616  84.6447945  11.8262351  32.7663374  84.1264915
  13.2401729  32.2407341  84.0019703  40.4170942  26.5930510  94.6422291
  41.2788773  26.9938517  94.7558975  39.8621821  27.0311999  95.2874660
  45.6241846  49.8912001  19.7020769  44.8830318  49.3543911  19.4214308
  46.3255835  49.2619371  19.8702967  17.5726449  79.2803001  12.8993165
  17.0228112  79.8611546  13.4251714  17.8391981  78.5891342  13.5055065
  39.9812126  27.6442289   4.5959276  39.4856191  27.9185629   5.3675234
  39.7815943  26.7128253   4.5017388  70.5899143  46.8816376  18.0822945
  70.9870577  47.6703215  18.4517348  70.0182676  46.5536356  18.7764621
  48.6807871  72.2449493  12.3975456  48.1611395  71.4767933  12.1606219
  48.6316109  72.2820520  13.3527625  18.6524022  64.9680901  51.7635250
  17.8384924  64.7859955  52.2332335  18.5697460  64.4813156  50.9434938
  29.1372538  32.1599388   5.3610641  28.5591817  32.5464320   4.7032732
  29.3509126  31.2941813   5.0131440  34.1403890  53.9604425  22.8330159
  33.4592628  54.1129923  23.4880161  33.7067246  54.1203308  21.9948006
  55.0500107  60.8003569  21.3477039  55.9420490  60.7330847  21.0071468
  54.6106958  60.0132656  21.0256505  30.3521633 109.0797520  18.5717583
  29.8459530 108.2888889  18.7575781  30.0739717 109.3414783  17.6940691
  10.0151074  38.8935375  96.1112976  10.0508809  39.8162103  96.3635445
  10.8679163  38.7210822  95.7122898  48.6612463  54.0861893  15.0678062
  48.6986351  53.5394335  15.8525944  47.8702688  54.6133137  15.1806021
  19.4671321  56.9008350  88.9856339  18.5464609  56.6422844  89.0273952
  19.8875940  56.4036751  89.6872520  68.5407782  96.2664223  86.9088268
  69.1038847  96.8693352  87.3942471  69.0252447  95.4409313  86.8998241
  29.0774417   2.6899034  91.3663578  28.4026623   2.6578814  92.0445061
  29.4966674   3.5421032  91.4856815  39.5272350   9.4452488  86.0954189
  39.6611238  10.2198756  86.6415501  40.3148890   9.3949676  85.5538464
  29.3395686  51.7164421  24.2399001  29.4917083  50.7886124  24.4193935
  30.1011443  52.1605396  24.6127415 112.0756245  50.5519724  71.3228035
 112.8959179  50.9468031  71.0270834 111.5550995  51.2901163  71.6397190
  63.5525465  67.5953484  28.9241052  63.8805246  67.7053547  29.8166084
  64.3242884  67.3497105  28.4139061  64.9117279   2.1306816  25.9822822
  65.7897139   1.9038126  26.2887192  64.7615719   1.5512210  25.2353501
  20.8310246   2.2291692  94.1578007  21.2374687   1.3681298  94.0595913
  19.8927784   2.0466921  94.2090702  58.5594511 105.7701397  81.5318966
  58.6064148 106.6412926  81.1380291  58.6872578 105.1684856  80.7984734
  61.9564533  70.4401112  45.3208590  61.9171429  69.5614910  44.9430847
  61.1377859  70.5277634  45.8090544  55.0492620  74.9504709  13.6893654
  55.8126259  75.1975918  13.1674039  54.5165777  74.4188643  13.0978656
  31.6620779  88.0011368  21.9170141  30.9025335  88.1886005  21.3654828
  32.3605800  88.5472775  21.5563726  47.6087284  87.7008247  35.4952812
  47.2468090  88.2522488  34.8016095  46.9965839  87.8004742  36.2243795
  47.5276566  63.9116764  28.1148767  46.7748308  64.5001268  28.1715679
  47.8274345  63.9928198  27.2094607  60.5079031  56.1116409  12.4314451
  59.7656679  56.4106894  12.9567015  60.6370211  55.2008295  12.6959848
  80.7405090  77.5999975  12.0213366  81.5108395  77.4165440  11.4835942
  81.0940075  77.7814865  12.8921580  98.9268780  75.5085516  10.2303731
  98.2488155  74.8835897   9.9736947  98.6984253  76.3139009   9.7662097
  40.2773619  54.7581911   1.7468368  40.1264715  55.1356316   0.8802336
  40.3950024  53.8224220   1.5833391  48.0494452  74.7097921  10.8055794
  47.7133369  74.1814709  11.5295541  48.0884409  74.1043615  10.0651979
  87.2952080  41.2254429  77.0124769  86.8211365  40.3960085  76.9531059
  88.1807709  41.0169983  76.7148829  67.3166323  50.7604218   1.8865283
  67.8647327  50.8735752   2.6630697  67.5456190  51.4987946   1.3220811
  29.2102575  98.1506348  24.6396399  29.9884009  98.4180641  25.1287270
  28.9989805  98.9075565  24.0931463  34.6412182   7.5329602  76.5883064
  34.2067790   7.5674361  77.4405432  34.6714163   6.6009182  76.3723946
 116.5382576  16.5213966  94.1607380 116.8642902  15.6600571  93.8999176
 116.3246250  16.4256501  95.0888634  21.9726944  54.3665028  18.0899727
  22.5771689  55.0103140  17.7207184  22.1979547  54.3321180  19.0196538
 110.4548454  96.2325001   7.9465038 110.8902550  96.4036274   7.1114182
 109.5318413  96.4226341   7.7787542   5.1640326 107.4556541  80.7175827
   5.9391207 107.7747726  81.1797810   4.7762734 108.2403183  80.3300571
  73.2604980  95.0452805  13.3591497  73.5406542  95.8242989  13.8396394
  73.2537651  95.3191090  12.4419773  46.8473434  44.5410442  17.1136498
  46.1213017  44.0175247  17.4528098  46.9062853  44.2985487  16.1895537
  56.2916183  75.9081697  11.5515256  57.1463537  76.3053703  11.7185318
  55.6940222  76.6514015  11.4695978  24.5351434  18.7838602  94.0051270
  24.8282361  19.3577206  94.7129536  25.0852299  18.0046153  94.0852165
  92.0059681  62.0691586  58.4872770  91.8550491  62.7289057  59.1641712
  92.3754883  61.3225269  58.9586926  16.1052358  32.2354388  23.5726929
  15.4800344  31.5738559  23.8687730  16.9597888  31.8128228  23.6585188
 104.8762608  18.3005309  91.8781662 104.0490723  18.7701726  91.9851303
 104.7990990  17.8704417  91.0265255  29.0625572  71.0919285  46.8268156
  28.5363865  71.4284563  47.5521564  28.8323998  71.6507292  46.0845232
  54.7639132  49.6160460  14.2682636  53.8978910  49.6502113  14.6745539
  54.8368359  48.7218428  13.9346206  37.0031786  55.4840851   0.9994439
  37.1604419  55.2931070   0.0747661  36.0555243  55.6038046   1.0614846
  17.2498059  71.0763979  33.8408685  17.7704191  70.6790829  33.1427765
  16.5829003  71.5867233  33.3814788  29.2255259  67.2424746  25.2154803
  29.1181564  67.0420408  24.2856789  29.9127364  66.6454744  25.5113888
  95.2438438  98.8384824   0.6143064  95.7708395  98.7619262  -0.1810866
  95.7797087  99.3657260   1.2068338  89.3803120  83.9206982  92.0512199
  89.9691391  84.6643734  91.9229507  89.4654083  83.7052250  92.9799652
  26.7471004  37.6378083  94.1276455  25.7952785  37.6464558  94.2286015
  26.9360614  38.3950424  93.5734558  39.1632938  68.8890839  50.8139706
  39.4381237  69.4171286  51.5635490  39.3881297  69.4212723  50.0507832
  66.5260553  75.1779366  15.7219768  67.4556017  75.3203487  15.9005499
  66.3187933  74.3582392  16.1707163  57.3940468  72.4189854   7.7193469
  57.9689026  71.9401026   8.3163720  56.9718981  73.0780220   8.2704371
  46.3402224  51.1997318  17.2452843  45.7545090  51.9005203  16.9588053
  45.9213543  50.8426332  18.0283952 114.8626518  50.0102472  50.3369665
 115.0140953  50.5254507  49.5445871 115.4798031  50.3666544  50.9759760
  48.7586164  80.2171612  16.2788200  47.9031467  80.4910183  15.9480596
  48.8352299  80.6477070  17.1302831  30.2159619   2.6359311  74.4496107
  29.2616749   2.5635386  74.4676876  30.3870940   3.4146839  73.9199972
  28.2603168  20.0837040  82.4932575  27.5348234  19.4603753  82.4564552
  27.9041409  20.8883047  82.1164417  22.4116158  61.6683149  18.8884759
  22.8957605  61.2599325  18.1707978  23.0286002  61.6751289  19.6202648
  54.4740677  33.9384675  86.9428539  55.0757074  34.1996503  87.6400185
  54.3959332  34.7160435  86.3901234  26.4180279   8.9094216  83.5634518
  25.7229018   8.3215410  83.2677650  26.8841290   8.4107536  84.2345047
  38.8358784  66.5681171  32.8709793  38.9310169  65.8239603  33.4654617
  38.7649155  66.1729622  32.0020437  65.1107836  23.1115746  74.9557781
  64.2893839  23.2059860  75.4380846  64.9738741  23.6094761  74.1498089
 107.6575279  16.7108619  89.7643661 107.8421688  16.7509413  88.8260078
 107.3734570  15.8091629  89.9142742  23.7760186  59.7665596  40.7636833
  23.7082815  58.8254595  40.6025314  24.5258904  60.0461197  40.2385426
  61.6865063  61.8213749  20.6326938  62.2224426  61.4447355  19.9347353
  61.6501999  62.7559376  20.4289722  15.7588053  32.4623227  95.2453709
  15.7947612  32.1431065  94.3436813  15.7035553  33.4141469  95.1604557
  61.7431116 103.3199787  35.8066940  61.7425871 102.8258228  36.6264772
  60.8419561 103.6286545  35.7125211  41.1164761  86.1119652  14.5458710
  40.1803255  86.3115978  14.5448732  41.5349197  86.9243813  14.2610550
  63.5318041  50.4969263   3.9218068  63.1155252  50.5400991   4.7826669
  64.4115877  50.1633215   4.0976506  75.6479263  44.2087936   5.4091418
  75.4521799  45.1374292   5.2844220  76.1221981  43.9555264   4.6172100
  24.5418429  87.3127556  40.9885263  23.7930012  87.3258305  40.3924608
  24.8388386  86.4028358  40.9800720  92.4633217  88.8486481   6.4201099
  92.7991295  88.4718895   5.6067729  92.0630932  89.6762371   6.1533767
  81.8703842  21.7999291  16.0905051  81.4145660  22.3746181  15.4755342
  81.2260151  21.6234159  16.7759681  83.7494659 102.6289749  14.7402370
  82.9495335 102.8119183  14.2474198  83.9354038 103.4441471  15.2062428
  67.1645403  92.9829979  23.2871652  66.7222595  93.8114071  23.4725332
  68.0970764  93.1951427  23.3272982  56.1551762  56.6162348  34.2860484
  55.4819584  56.3348675  33.6665034  56.1626434  55.9342813  34.9576998
  59.2386007   6.7595035  79.7942257  59.6147346   6.4422846  80.6152725
  58.2943010   6.6485012  79.9047041  75.1487589  91.4577675  15.4751551
  74.8511410  91.7871857  14.6271336  74.8882723  90.5366993  15.4791331
  25.4465985  91.2499714  22.8720975  26.3732052  91.0833645  22.6992512
  24.9841309  90.5906391  22.3547602   2.9583892  50.1902580  81.2260151
   2.0555773  50.5034351  81.2815285   3.3575070  50.4622936  82.0524120
  31.8026829  88.5647678   8.2987273  31.1544275  87.9794502   8.6903811
  32.6058197  88.0450344   8.2659447  90.6591702  70.1033688  11.7708862
  91.2782669  69.8506165  12.4557710  89.8749924  69.5859146  11.9540274
  35.6817913  93.0234623  19.8804927  35.6518245  93.7603951  19.2703545
  35.6070662  92.2484016  19.3237853  51.9471836  86.0961628   2.8589877
  52.5350618  86.8118000   2.6171353  51.5704584  85.8046818   2.0287171
 111.4926338  47.9633760   5.5163687 112.2188091  48.2467318   6.0718966
 111.6218662  48.4356308   4.6938694  17.8340816  57.7600622  25.6084585
  17.0387185  57.2477865  25.7540607  18.3509016  57.2321844  24.9997926
  69.6622849  73.5102892   2.8569201  70.0998449  72.8274155   2.3485333
  70.3700399  73.9460135   3.3317503  40.8334351  79.5363235   2.9262614
  41.6192055  79.4166183   3.4596229  40.8672333  80.4528713   2.6523325
  72.9250717  80.2651405  21.8286204  72.6100445  79.3637657  21.8957353
  73.8597345  80.2075958  22.0269442  92.1221352  13.9955115  22.6271200
  91.4069080  14.5843494  22.8678370  92.7110863  14.5365524  22.1011496
  44.4827807  27.6668305  96.6529784  43.8036215  27.8628583  96.0075669
  45.2450049  27.4175114  96.1303997  89.6061134 101.1956596  31.3756847
  89.1941547 101.5142822  32.1788025  89.9419117 101.9842720  30.9495974
  67.2560263  37.4913383  15.5637038  67.7674055  38.0027366  14.9366498
  67.6176500  37.7284908  16.4176464  23.7775040  56.1975861  91.5384960
  23.2095909  56.1028910  90.7738113  23.3650565  55.6563187  92.2116566
  22.0765972  47.0860672   8.7383133  22.7982712  47.7049351   8.6268818
  21.2941408  47.5863028   8.5064530  49.9934292   6.8386060  88.5252094
  50.8125448   7.2331554  88.8245583  50.1360559   5.8960253  88.6114216
  66.7566776  82.8430653  41.6524410  66.8496990  83.6833954  41.2036371
  66.0995007  83.0045414  42.3294020  46.3520288  24.8278284  92.2790432
  46.9934273  24.9732065  91.5835571  46.0666943  23.9224291  92.1562862
  65.4042864  78.4588528   7.1348572  66.3239574  78.2051468   7.0569199
  65.2032042  78.8889170   6.3036901  89.7182655  77.4392700   8.5357362
  89.9599934  76.5985775   8.9243627  90.4908466  77.9908848   8.6585391
 105.1872253   3.4268782   8.2105881 106.0613918   3.8067329   8.2987607
 104.9529743   3.1563458   9.0983772  90.8294296  90.6753254  29.8012972
  91.6333389  90.1587868  29.8575187  90.1277637  90.0447941  29.9635339
  70.6584835  50.7251740  17.8710449  71.0976791  50.2343893  18.5656452
  69.8137188  50.2875090  17.7658844  99.0122128  48.0442190  88.6633492
  98.8901424  48.3248472  87.7563953  99.3639469  48.8157368  89.1075134
  71.3844013  75.3778887   3.8787699  70.9892416  76.0058880   4.4834957
  71.3824558  75.8260489   3.0329695  50.5067825  89.2198277   1.0839955
  50.3570271  88.2745743   1.0664538  51.4565611  89.3132591   1.0103496
  54.5971251  66.7882824  28.6176467  54.1975594  65.9306288  28.7625790
  55.0341797  66.9917202  29.4445848  91.7727757  67.5347710   1.1248498
  91.2569332  68.3408308   1.1451717  92.6141739  67.7790880   1.5103334
  97.0261002  28.2697010  96.3443375  96.3329601  28.8929844  96.5618134
  97.8207874  28.8013744  96.2992001  23.1062317  16.6121852  89.2765522
  23.1329775  17.3999810  88.7335110  23.9214087  16.1534464  89.0733814
  15.8580410  23.2106614   6.1390972  16.2723958  23.2624888   7.0004076
  15.9397566  22.2903371   5.8889878  17.9116964  83.5153008   2.9801825
  18.4740603  84.2864323   3.0531418  17.1654439  83.7085247   3.5476351
  11.2644672  92.2903728   9.2367035  10.9856117  93.2028675   9.1603220
  10.6933856  91.8141556   8.6339527  86.3268375  87.4835491  33.2282948
  86.8067169  87.4197292  32.4025369  86.6315079  88.3022118  33.6197162
  57.7257299  85.2574444  35.6858158  57.5512886  85.1726151  36.6231561
  57.5781631  84.3794346  35.3343058  38.8027143  73.5983896  31.7362761
  39.4602609  73.7444735  32.4163675  39.0100694  74.2434263  31.0601401
  69.9613237  82.6154995  27.2523260  70.5669498  82.1407318  26.6830850
  69.9293375  83.4986210  26.8844819  29.5439482  74.2414236  25.1022363
  29.3659735  74.0915728  26.0307312  30.4276180  73.8983536  24.9693322
  79.4130564  11.1005628  30.5957174  80.0557709  10.8488333  31.2588787
  79.6967030  11.9669783  30.3039932  64.9899483  85.1214123  36.4855218
  65.4162931  85.1714039  35.6299734  64.4974852  85.9391880  36.5558672
  36.5243530  36.4388657  81.0851383  35.8488035  35.9872317  81.5909958
  37.1715546  36.7083764  81.7368412  29.1161132  31.9832945  94.6536064
  29.9186993  32.1334147  95.1531506  28.4779716  31.6954708  95.3064251
  40.1803732  87.8550816  18.8336444  40.5599594  88.5722637  18.3259058
  39.3679714  87.6407337  18.3750677 113.3368874  59.1115856  71.6188431
 113.2910061  59.5122957  70.7507706 113.2964325  59.8503733  72.2261190
  55.5074263 106.3556099  23.3712506  55.8355522 106.6801262  22.5326467
  54.5735884 106.5655231  23.3604693  80.3017044 111.6881657   8.0621547
  79.8484039 110.8898926   8.3332956  81.2159824 111.4225674   7.9631811
  60.1487970   2.4448395  11.6002679  59.2930937   2.5847551  11.1947632
  60.6255960   1.9021791  10.9722459  72.9338121  78.0079126  18.7924516
  73.1444216  77.8310728  17.8756070  73.7007189  77.7031755  19.2774487
  83.1465721  73.5599422  19.4818759  83.8012505  73.3593941  18.8129950
  82.5815678  74.2166281  19.0747273  39.4093704  37.1120167  93.6863708
  40.2565575  36.6882062  93.5489082  39.6022272  37.8515625  94.2626572
   3.1940994  32.9949760  88.7091160   2.2503182  33.0972552  88.8317966
   3.3876586  32.1239376  89.0556145  44.5678043  67.1702576   3.0376270
  45.3851318  67.5953817   3.2973829  43.8871622  67.8077936   3.2532808
  37.4026346  36.2217379  89.1712189  37.9135776  36.9030261  89.6082687
  36.9434953  35.7737947  89.8816872  65.7977295   2.2478797  70.6521749
  65.6616354   1.3134170  70.8086681  66.4520264   2.2810575  69.9542999
  87.1023273   3.0768439  17.8636611  86.8328857   2.6552853  18.6796999
  86.3040352   3.1106201  17.3365796 112.5367928  26.3315606  68.4861994
 113.1947136  25.6680083  68.2786942 112.5219631  26.3632226  69.4427633
  59.0491390  89.6371555  26.5050721  59.8934889  89.2689323  26.7652941
  59.2664623  90.2830887  25.8329248  81.2729931  81.3291550  39.6868515
  81.1330223  82.0991039  40.2380562  80.5101395  81.3063049  39.1091323
  15.1671600  42.3687696  84.8772240  15.0551939  43.1028557  85.4812241
  14.5982933  41.6825819  85.2261734  60.1361132  66.0142374  22.5934792
  60.9373093  65.6497097  22.9695535  59.8454380  65.3545809  21.9637203
  16.4191222  43.3227491  82.7121258  16.1212194  43.1206703  83.5990620
  17.3699677  43.2191420  82.7494049  99.9784279  48.5831833  76.8317080
  99.0821362  48.3519745  77.0754910  99.9565887  49.5325375  76.7113590
 104.8749638   4.2497039  89.0695763 105.2594852   3.6182210  89.6775246
 105.2049828   3.9866060  88.2104492   6.7469972  22.2816181  88.1391335
   7.5917941  21.8383789  88.2171631   6.7165571  22.8732061  88.8910198
   6.1771321  15.1386166  34.6090031   5.9051287  14.2306376  34.4755101
   5.7400906  15.6248295  33.9098454  48.6958838  28.5485172  83.9551163
  49.0064478  28.4974694  83.0511379  48.4900808  29.4741583  84.0857601
  69.1272593  77.8909445  25.5633998  68.5194016  77.4080753  26.1233830
  68.6237288  78.0818701  24.7720480  83.6589336  97.0407963   3.8301224
  84.0782070  97.8938484   3.7172586  82.7556133  97.2477245   4.0697750
  27.0937276  91.7289925  29.7738409  27.0309162  92.4805450  29.1843963
  26.2565923  91.2756920  29.6740294  99.0754128  77.3188543   5.3763700
  98.3254528  76.7317152   5.4715747  99.2829323  77.2927952   4.4422990
  36.7090726  18.9247739  80.2579403  37.5947881  18.5662878  80.3147793
  36.3517237  18.8212323  81.1398697  80.3730488  64.4461107  13.9445841
  81.2201595  64.7531939  13.6215568  80.4126930  63.4941053  13.8532269
  50.2923727 107.0776749  15.9770226  51.0773802 107.5208187  15.6551397
  49.8770523 107.7166939  16.5561569  86.8986511 111.0848236  85.7450485
  86.1901188 111.3442612  85.1560593  86.5274525 110.3740406  86.2677574
  88.0433941  39.4136310  24.4214892  87.4046421  39.8790050  23.8814425
  87.5131607  38.8790488  25.0125027  62.3064041  92.4442482  35.7728410
  61.8764019  92.6313210  34.9383736  62.9975939  93.1031036  35.8391166
  94.1570282  86.9103622  20.7601404  94.2383862  87.8376484  20.5370998
  93.3500004  86.8570709  21.2720966  62.1783543  67.7961636  47.0056438
  62.4907160  67.8605652  47.9081488  61.7449903  66.9437790  46.9624329
  53.8841581  73.1364679  34.2997789  53.4781933  72.8588581  35.1209712
  54.1012192  74.0582037  34.4395065  58.5228825  85.9381485  32.1555614
  59.4776011  85.9177303  32.0897746  58.2513857  85.0372028  31.9800019
  72.3314095  77.5052929   6.9936138  73.1673241  77.3867512   7.4446380
  71.8375444  78.1008959   7.5571632  83.8361549  48.4828234   5.0962681
  83.2814121  48.1848526   4.3753612  83.5818577  49.3954754   5.2327442
  42.2301626  74.4052505  14.2191708  42.4222183  74.2929268  13.2881880
  41.4555120  73.8638496  14.3709421  83.4521008  84.9883652  11.9546294
  83.8069820  84.3101501  11.3798928  83.6627197  85.8109856  11.5128529
  99.3269062  71.5488911  33.8004780 100.1840878  71.1234570  33.7788558
  98.7326717  70.9105492  33.4059668  83.2593441  70.4180384  16.5964663
  84.0050983  69.9178410  16.9279647  82.4917889  69.9363470  16.9047773
  90.7219601  80.1932907   7.1881741  90.8446693  81.1289406   7.3485994
  90.0789547  80.1539803   6.4801979  88.3360863  98.3600903  87.0428753
  88.5555553  97.8578281  86.2581444  89.1501617  98.3867264  87.5456619
  15.8114648  30.8367777  84.9326515  15.7927537  29.8825049  85.0050640
  15.3087974  31.1441255  85.6870365 112.1159172  29.6267128  93.6267948
 111.3904953  30.1112747  93.2328510 111.8719769  28.7066031  93.5262108
 100.4540730 109.1889668  95.3104115 101.3513660 109.2800713  95.6310368
 100.5118179 108.5263538  94.6220398 105.5470467  86.8149567  28.7599039
 105.9660053  87.5256729  28.2745361 106.1980438  86.1132431  28.7666607
  53.5481548  75.0203085  37.7392364  54.4169664  74.6545315  37.5731063
  52.9604006  74.4996738  37.1917677  44.8069477  87.8076172  17.4647164
  45.7639742  87.8157616  17.4810421  44.5845079  87.6275063  16.5513110
  52.9892159  24.2449856  90.4976273  53.2193565  25.0342870  90.0074482
  52.0460939  24.3198347  90.6430626  79.5158339  34.8348999  38.9444661
  79.3243742  34.2314339  39.6623802  80.4693604  34.9185061  38.9496946
  40.0615978  11.6669154  87.6378822  39.6292806  12.5184727  87.7025700
  40.9718275  11.8757451  87.4278736  42.5251293 108.3600426  12.9148686
  42.0926714 107.8457737  13.5965908  42.2009897 109.2512035  13.0452180
  96.2521935  85.8022976  22.1945596  95.5425262  86.2792301  21.7642832
  96.8990326  86.4752865  22.4064851  64.6818686  15.5113399  41.5910339
  64.9804163  15.9462023  40.7922888  64.7377014  16.1869824  42.2667694
  97.4296284   7.3488861  10.2281392  98.3357334   7.6062095  10.0578952
  96.9289112   7.7517760   9.5187724  80.7931805  77.7854776  16.6316402
  80.6029892  77.1509075  17.3225665  81.6860104  78.0781794  16.8144190
  92.0127869 104.6515274  36.6047049  91.6021538 104.4901943  35.7552433
  92.9263592 104.3935490  36.4819670  16.3269711  42.1235085  80.2221489
  15.3788126  42.1438837  80.0924778  16.4585137  42.5080156  81.0887909
  83.9628887  75.0906229  21.5878797  84.0068436  75.9860754  21.2525296
  83.8046455  74.5520067  20.8125806  46.5141392  39.7467518  55.8189917
  45.9446192  39.0836740  55.4288578  46.7764473  40.3000736  55.0832891
  44.0422726  37.8377414  91.4191055  44.4555235  38.0233049  90.5758858
  44.5440578  37.1046925  91.7755985  56.0648775  89.8743057  25.3925037
  56.0988855  90.6430817  25.9617591  56.9813490  89.6833801  25.1928473
  94.6343136  87.1084404  67.3809052  95.4160213  87.0870590  67.9329062
  93.9272213  87.3564053  67.9765272  73.2355261  81.6626167  52.9281902
  73.8605404  81.5035343  52.2208834  73.7465858  81.5488720  53.7295055
  45.8939171  58.3704853  21.6135669  44.9833584  58.5804701  21.8209839
  46.3774776  59.1698933  21.8217826  23.2645679  27.4764800  10.7629979
  23.7477255  27.0428729  11.4664018  22.9468966  26.7599344  10.2135623
  71.5684319  79.6342659  91.0219669  72.4895620  79.7166014  91.2689018
  71.1276531  80.3335571  91.5045929 104.4919968  69.7450972  77.6190424
 103.7666512  70.3041744  77.3405886 104.4585991  68.9956188  77.0245695
  23.5799623  37.1163535  61.4182234  22.9755354  37.6578903  61.9258070
  23.7703586  37.6369405  60.6378603  40.2030373   8.0690259  16.3905632
  39.7079110   7.3002827  16.1075163  40.8641577   8.1922424  15.7094097
   0.6336331 100.9462210  95.8172628   1.5378403 100.6357905  95.8650433
   0.2737069 100.7701775  96.6865696  71.0305643 104.8355484  84.3649578
  70.5206251 105.4792118  83.8731384  70.4632378 104.0660381  84.4122410
  72.8970301  38.9803508   0.4673643  73.8233530  39.0498927   0.2364511
  72.4996340  39.7719196   0.1044149  41.8355846  77.6479149   0.6094606
  41.3142443  78.2425547   1.1487558  41.3373041  76.8306541   0.6037937
   0.8257476 103.0932522  88.5446548   0.7201798 104.0093613  88.2880878
   0.5806841 103.0738354  89.4697475  60.8499002  81.5521240  55.7148170
  60.7230282  82.3891640  56.1614704  61.6497707  81.6725636  55.2030277
  20.0961018  26.5540743  85.8327770  19.4936812  25.8297348  85.6635094
  19.7114730  27.0164680  86.5774155  50.5227184  56.5803051  14.0494502
  49.8202419  55.9384680  14.1533959  51.3279057  56.0723114  14.1486800
  23.7668991  31.2906075  19.5465958  23.8341928  31.0116792  20.4597783
  22.8502607  31.5452123  19.4408572  70.3047276  65.8066511  10.9032631
  69.8865414  65.8994770  11.7592621  69.9252272  66.5081167  10.3739655
  46.1215115  85.1628304  17.8854668  46.2925577  84.8765659  18.7826991
  46.6912174  85.9223270  17.7636611 108.8940811  64.3194532  96.2793350
 109.5279026  64.9153709  96.6785812 109.2542171  64.1325188  95.4123974
  29.1703176 102.4036312  62.9107952  29.5428634 101.7187500  63.4661007
  29.7062826 102.3870277  62.1178865  59.2602253  44.7854280  15.5814111
  59.8261690  44.1159773  15.9658241  58.6418724  44.2944288  15.0403070
  27.8677058  79.8516464   2.7215880  27.2122765  79.8242044   3.4186488
  28.6708713  79.5356131   3.1354460  47.8135347  53.7582541   6.5590495
  47.8283072  54.2339611   7.3895407  48.5082436  53.1053448   6.6446298
  97.5817871  80.7261658  77.4493837  97.1427631  80.6473351  76.6024590
  98.4363937  81.1040878  77.2418976  28.7501264  55.8584023  10.1857305
  28.6992002  56.7994690  10.0183094  29.2863536  55.7842445  10.9751582
  71.9321537  26.8090558  29.4629645  71.4089632  27.6103115  29.4851065
  72.6483059  27.0072222  28.8595653 114.8539162  21.4802146  78.5221720
 114.3111324  20.9108973  77.9767370 115.7227421  21.4372230  78.1227732
  23.3481979  38.4278393  83.5603714  22.5532675  37.9501343  83.3234787
  24.0375614  37.7637839  83.5539818  57.4007797  25.5466843   4.3423918
  56.9520569  26.3444877   4.6223703  56.9494343  24.8422480   4.8074627
  22.4372363  53.2385731   1.1020155  21.8010449  53.8927650   0.8130097
  22.4515200  53.3231831   2.0553619  98.2603359 106.8824863  70.3320265
  99.1817093 107.1341515  70.3949070  97.8694439 107.5449276  69.7622824
  50.2592611  39.6767879  44.4306517  50.3026247  40.5955791  44.6955585
  50.9132862  39.2392564  44.9756718  45.2168322  40.5137777   4.3711025
  46.0744953  40.2706957   4.7197527  45.4136848  41.0378790   3.5947001
 116.8005753  19.3713021  90.8119011 117.4084854  20.0544643  90.5291271
 117.2147274  18.9869916  91.5845585  18.5601044  48.2973576  32.7653909
  18.2675409  48.2461166  33.6753416  19.5137608  48.3557749  32.8233457
  47.4430084   5.8120281   4.7553173  46.5654135   6.0889184   5.0187427
  47.6497841   6.3598222   3.9980882  74.1046762 110.7267094  79.3966389
  74.3289566 111.2435627  78.6228180  73.3000851 110.2686024  79.1537380
  99.7847462  97.3926926  92.3778725  99.4619942  98.0741787  91.7882538
  99.2523003  97.4874210  93.1676483  61.0305452  51.6619062  15.2843022
  61.9800901  51.6929960  15.4010284  60.8418989  50.7417774  15.0998843
  71.2860537  79.7426701  39.5741606  71.9436884  79.2222357  40.0355673
  71.7545509  80.1111794  38.8251996  28.0098081  79.8783636  83.1205750
  27.4626970  79.1967344  82.7303314  27.7449536  80.6827354  82.6743984
 113.9721298  81.6781616  72.6573133 113.8618755  81.4472198  73.5796642
 114.7447681  82.2429943  72.6425362  78.4542274  74.7770929  78.4174967
  77.8815699  74.0543938  78.6744022  78.3091545  74.8747396  77.4764061
  18.8160741  21.0632491  84.8494434  19.7271490  20.7776690  84.9174023
  18.6485314  21.5267944  85.6699848  59.9255705 101.0114098  13.0500507
  60.2735710 101.3851452  13.8596499  58.9820862 101.1643505  13.1018269
  64.2977190  57.2479010  19.0720475  63.3726597  57.3530197  18.8496935
  64.3435431  56.3984537  19.5108855  39.0801859  32.6331377  89.8535538
  38.4089828  32.0365286  90.1848793  39.4292307  33.0594206  90.6362915
  43.7158203  29.1448617  69.7447634  43.0587769  29.4478345  70.3714466
  44.2933559  29.8979926  69.6203375  64.5338249  26.0198665  13.2417154
  63.9117289  26.7257118  13.4178019  65.3896666  26.3998604  13.4401333
 109.2115593 107.7377033  79.7957706 109.2440510 108.3595181  79.0687752
 110.1157093 107.4402618  79.8971176  10.5784655  45.8743525  95.2440166
  10.2908862  45.3380394  94.5051670  11.3792026  45.4492760  95.5512047
  66.4829206  81.7033863  64.9029970  65.6399107  81.8239403  64.4659281
  66.5165901  80.7682800  65.1046848  98.4194565 101.1452198  93.4687805
  98.6722946 101.9587517  93.0323601  97.6158237 100.8748722  93.0245781
  60.4676247   1.2631655  14.2741239  60.6388712   1.3824782  13.3399558
  59.5323706   1.4424559  14.3709934 108.5021305 100.3602028  86.8812847
 109.4062138 100.0473404  86.8500519 108.2692432 100.5114746  85.9652615
  73.3095789  99.6470070  81.9340134  72.9438019 100.1518726  82.6603413
  72.7038860  98.9142132  81.8227100 105.3107738   3.0405569  86.6703606
 105.6176281   3.2404479  85.7859898 105.4625225   2.1007107  86.7698288
  24.9529338  67.3923874  17.2980702  25.7358146  67.4869251  16.7554939
  24.3297434  66.9268227  16.7402911  42.3408842  75.8434725  10.9258437
  42.3483276  74.8946905  11.0522938  42.1255493  75.9600925  10.0004995
  47.0444155  25.6830764  15.0279450  46.6816139  25.0643277  14.3941045
  47.4303484  25.1308084  15.7078612  21.5052772  30.3904343  92.5341129
  21.9574571  30.0696278  91.7538261  20.8105898  30.9540844  92.1936131
   3.8241541  13.5172188  89.0262222   3.6035177  12.8565264  89.6827602
   3.3706814  14.3074048  89.3198204  97.0920753 105.4616928  84.0162468
  96.7160988 104.9576569  83.2945633  96.6290092 105.1491261  84.7934818
  82.9603100  76.3891554  81.5624905  82.3070335  77.0604897  81.7593956
  83.7111187  76.8773794  81.2246227  54.3961430  61.7527246   3.7381580
  53.9747715  62.6105356   3.7914678  55.1088905  61.7959642   4.3756133
  88.9104557  47.7617788  23.0307078  88.6486816  48.0467033  23.9062190
  88.1986618  48.0534983  22.4610829   8.1790370   6.6545671  81.7293072
   8.7136781   7.4328017  81.8866062   8.5235190   6.2879103  80.9149837
 111.4715576 109.4359875  81.3845158 112.3129559 109.3807125  80.9315014
 111.3251686 110.3743267  81.5042114  55.0993204  53.4282255   2.0079179
  55.3620148  52.8641558   1.2805599  55.3831244  52.9568434   2.7911720
  35.1504278  49.4834328  15.8995438  35.0316024  50.0120163  16.6886640
  36.0979056  49.3664312  15.8300567  45.3274107   5.5088973  28.0125999
  45.4056358   6.1281055  28.7383366  45.3920650   4.6474046  28.4247661
   7.1669757   9.8897636  75.4492092   7.8259814  10.4114890  74.9912310
   6.7995405  10.4866695  76.1010742  57.7596283  39.6967721  95.4761314
  57.8577185  40.4595566  96.0460186  57.7990913  38.9472890  96.0702324
  65.0549746  88.6082840  75.7166052  64.8646545  89.1593933  76.4757395
  64.2724848  88.0671215  75.6113005  69.8153925  66.9000673   5.2565289
  69.6727991  66.9949675   6.1982793  69.0586901  67.3275709   4.8554367
  82.8885252 110.9197386  76.4972067  82.2993616 110.5002605  77.1242285
  82.3060877 111.3119610  75.8466959  22.1002507  19.4368541  93.2052517
  23.0191422  19.4448936  93.4732151  21.9584823  18.5545146  92.8623104
  51.1728668  46.4052057   6.0507214  50.9980440  47.2135878   6.5325844
  50.5649137  45.7673120   6.4245075 112.1280193  27.8521490  84.1340160
 111.1891460  27.8159380  84.3168640 112.2809887  27.1314669  83.5229111
  72.3873043  51.2041950  12.2471714  73.2687759  50.8741999  12.4213529
  71.8690634  50.9100246  12.9962552   2.7166399  43.3063936   9.4725531
   2.7207929  44.1167450   9.9820137   3.1475037  43.5384607   8.6499143
  72.4463463  92.0520687  10.2306676  72.4069834  91.1712360  10.6032395
  71.5535116  92.3871422  10.3131568  47.1982861  59.6984529  19.0124631
  46.3404751  59.2760563  19.0568781  47.0018768  60.6324816  18.9400327
  85.0529766  90.7642555  77.7383757  84.9004459  90.1197529  78.4294462
  84.6381950  91.5642548  78.0611801  59.9880219  47.1714020  18.3528411
  60.4367876  47.6411438  17.6498568  60.6347275  46.5414143  18.6708391
  60.0441360  49.0451097  13.7819278  60.4719925  48.2081509  13.9626622
  59.1348314  48.9120054  14.0496588  40.7303667  21.5496016  12.5632691
  40.1334190  22.2883368  12.6822650  41.2746763  21.7993760  11.8165600
   9.4735986   5.4506826  79.2602301   9.4292921   4.5053592  79.1165924
   9.6088153   5.8194995  78.3873510  99.6030521  89.4105148  91.5648174
  99.4065857  89.0002537  92.4070263 100.2525806  88.8335133  91.1630535
  86.2475872  51.7687511   2.3094796  85.5573463  51.1283827   2.1370734
  87.0017052  51.2424231   2.5750268 116.2707138 100.1273537  92.1627045
 116.8645191  99.5884800  92.6854420 116.4262390 101.0209179  92.4686146
  61.7998409  99.9936390  83.6833096  60.9851313 100.2798176  83.2702923
  61.7851877  99.0396595  83.6063099 108.5404968 103.2464314  81.5656662
 108.8144207 103.7137508  82.3548508 109.3596649 102.9741287  81.1520863
  75.8141816 102.0425841  96.5165596  76.1464680 101.6085574  95.7307889
  75.7165063 101.3374802  97.1564951  68.3030605  56.4642763  14.8603117
  67.4130487  56.1990833  14.6283996  68.3663368  57.3731422  14.5667326
  43.5100126  25.5949640  29.4651461  44.1896296  24.9227595  29.4151807
  43.7634754  26.1367249  30.2124667  33.1098127   7.6085496  89.8513794
  33.7351060   6.9494510  89.5499992  33.3271289   7.7406055  90.7741833
  76.2488937 102.8931141  80.4100800  77.0998049 102.6116943  80.0739479
  75.9396935 102.1514988  80.9302998  64.1776705  25.8234739  24.4274592
  65.0039339  26.1190128  24.0451264  64.0728092  26.3586164  25.2141333
  18.8941836  97.7480602  76.2356663  18.8935268  97.6324272  75.2854776
  18.5580838  96.9197559  76.5779829 104.4116402  75.0703144  88.8842106
 105.0008965  75.8069563  89.0465927 104.9508762  74.2942190  89.0363121
   2.8000784 108.3314610  89.0071774   2.3492026 109.1018772  89.3527222
   3.0507404 108.5796738  88.1173515 110.7853603 104.5494938  93.5409069
 110.6886005 104.1484070  94.4046211 110.4200840 103.9046574  92.9351044
  94.6006775  98.6721325  85.5735207  93.8166237  98.2217884  85.2593899
  95.1310349  98.8057995  84.7879696  87.7087784  94.5729446  71.2716627
  87.4041653  94.9300861  70.4374599  87.8013039  93.6339283  71.1106777
  54.2183638  47.2976160  12.9518235  53.4855413  46.8470192  13.3715498
  53.9849472  47.3216057  12.0238304 100.6537914  98.0462170  88.2141685
 100.1562405  97.2320461  88.1380177 100.2163601  98.6511612  87.6150608
  23.2400584  15.3107798  66.6484547  23.7206578  15.6875443  65.9113646
  22.8482151  16.0646451  67.0893383  10.6353736  86.2591362  73.0859423
   9.7141206  86.2385654  73.3449841  10.6344104  85.9673214  72.1743059
  41.9908619  38.5895181   7.1654731  42.5347996  38.6120820   7.9527801
  42.6080751  38.4250593   6.4525676  37.7552772  20.9295058  14.1688335
  38.5332990  21.3075471  14.5787072  37.0292234  21.4578724  14.5003510
  98.6888790   3.0819207  73.2766628  99.0634251   2.2141790  73.4282160
  97.7662182   2.9143417  73.0846930  72.0427895  28.0276895  16.3156188
  72.1062946  27.1670413  16.7297232  71.8237829  28.6228752  17.0325732
  46.8385267  24.5137453  -0.1815005  47.5255680  25.1225734   0.0896864
  46.3406086  24.3429661   0.6179626  41.7715311  49.1170931  11.2328768
  41.2346172  48.3641434  10.9858572  42.1893311  48.8545704  12.0530939
  95.6444454   2.2389479  85.8312511  94.9320221   1.6380793  85.6129742
  96.3742733   1.9551489  85.2807522  20.2193403  20.1148176  62.8053856
  21.0772586  19.9079525  63.1760836  19.8678243  19.2687166  62.5282907
   4.3735957  22.5925303  62.4320364   3.6447188  21.9826889  62.3177433
   3.9572129  23.4227061  62.6636934  11.5277791  91.9294167  81.8753529
  11.4266300  90.9927177  82.0445061  11.0072660  92.0881748  81.0878944
  69.9077177  93.3945179  67.0273161  70.6462288  93.9617920  66.8059015
  70.3000593  92.6694393  67.5136852  69.0794706  67.2094440  88.8457394
  69.6583319  66.4471626  88.8370705  68.2489300  66.8756485  89.1848850
   4.6338490   5.0543606  78.4344292   5.1818001   4.9630225  79.2139387
   5.2062291   5.4644626  77.7860260 108.5777569  47.1650934  94.8252392
 108.5908031  48.0499029  95.1901627 109.0331745  46.6308832  95.4759598
  47.5359011  86.7692661   5.3771961  47.8738594  86.2472630   6.1048782
  48.1454563  87.5038433   5.3059983  67.6362371  68.1229210   4.2134896
  67.3304987  67.7876520   3.3706647  67.1042776  68.9035654   4.3679389
  81.5278721 111.0230923  28.1307793  81.1287880 110.6374550  28.9106798
  81.0218334 110.6656551  27.4011278  63.6282158  72.8663731   1.3881901
  64.0552139  72.4709558   0.6282249  62.8818989  73.3417797   1.0231742
 104.4353676  91.7460632  29.4018865 104.4691944  92.6203632  29.7900844
 104.7853374  91.1689377  30.0806141  23.4592843  26.6541004  80.4901791
  22.5378394  26.5401602  80.7229710  23.5016537  26.4261484  79.5614815
  78.3275175  55.1555014  10.2246106  77.7802563  54.4605112   9.8589259
  78.9927197  54.6932459  10.7345641  97.7232933 109.1189194  68.8417244
  97.6736546 110.0354195  68.5700464  98.6500359 108.9759445  69.0339088
 113.9421463   0.4627741  93.4690475 114.7545242   0.1151191  93.8370228
 113.7362671  -0.1267561  92.7435780  38.1945014  28.4297967  30.8722782
  38.9750600  28.1646633  31.3587570  38.3798909  28.1795430  29.9671626
  19.1941881  13.6163568  89.1567898  18.2658541  13.8449371  89.2034817
  19.2961228  13.2024598  88.2997417   6.9884813  10.1688528  94.1496849
   6.5304911   9.4064689  94.5035839   6.2909746  10.7359385  93.8208485
   3.7014410  14.6569896  91.9226074   3.0497634  14.5188165  91.2352467
   4.4958419  14.2421305  91.5863705 109.2696857 105.1558781  69.7188234
 108.3276558 104.9867821  69.7042084 109.6417522 104.4887543  69.1419744
  24.5754981  14.7358930  75.6705475  25.2544045  14.0613627  75.6886292
  25.0588489  15.5612791  75.6339073  87.7453995  26.3018560  15.4808855
  87.0992947  26.4265037  16.1760402  87.4732208  25.4955459  15.0426924
 101.3651657 103.5039520  72.5670290 101.6936016 102.7880383  73.1109285
 102.0428848 103.6306572  71.9030428 105.0943184  98.9819336  76.9036436
 104.5649147  99.7773266  76.9612408 104.7459316  98.5168934  76.1429930
   3.3030176  43.5923672  81.2866974   3.7311175  43.2911015  82.0880699
   4.0181050  43.9224291  80.7426834  69.9900246  59.7697067  11.6785419
  69.8975134  59.2839479  10.8589613  70.5996752  60.4775476  11.4699268
  12.0661819  18.0876362  84.3554688  11.1872959  18.1770933  84.7239685
  12.0388603  18.5958385  83.5447788  44.3816853   9.3582964  75.3963900
  44.8866558   8.6078197  75.0833082  44.1182184   9.8188645  74.5997143
   2.4572657 105.8299923  66.9825745   2.1984886 106.4950848  67.6204729
   1.6317666 105.4403305  66.6945648   2.1057606  41.0000944  76.6020727
   2.2453362  41.1652088  75.6696081   1.5557332  41.7269373  76.8943119
  39.5853043  43.8815403   4.1612959  39.9052167  43.5801029   5.0116038
  38.9053535  44.5207691   4.3741024  95.0782312 111.1545363  86.9952393
  94.1214920 111.1707791  86.9703674  95.3459967 111.7780237  86.3201141
  34.2729807  20.0975537  74.6187353  35.2175927  19.9833798  74.7231627
  33.9038014  19.2384946  74.8235750  46.0186815  18.9409828  92.1704674
  46.8613720  18.7666976  91.7512608  45.3712320  18.5743463  91.5682888
  49.8942327   1.8342210  73.0338383  49.0297985   2.2361569  72.9476213
  50.2312326   2.1670304  73.8656425  36.2623596  26.5384245  77.4569130
  35.4980493  25.9933972  77.6440144  36.9841838  26.1022377  77.9096222
  81.3151360  38.3551598  63.7381172  82.1862316  38.0734253  63.4587336
  81.0253429  38.9547348  63.0505419  30.3481460  20.6555223  93.6678886
  30.4721999  19.7075188  93.6217499  29.6160984  20.8303499  93.0764771
  49.3453407  75.0118017  38.6886215  49.8092508  75.0384092  39.5254660
  48.6148643  75.6202173  38.8002634  68.3129025  74.7954035   7.7231383
  67.6671600  74.3527651   7.1723920  67.8272676  75.5106974   8.1339222
  32.5312638  24.7539020  59.9203587  32.9911661  24.0713167  60.4090309
  32.7384949  25.5635166  60.3870583 104.2690659  33.2415175  93.6279011
 103.8707733  33.7660885  92.9333401 104.9134254  32.6961899  93.1766224
 103.1797028  84.2758369  86.2864399 102.5839329  83.8455105  86.8997097
 102.7946758  84.1141891  85.4251385  86.7989254  34.7369933  27.6542401
  87.0309258  35.0525737  26.7808461  85.9145927  35.0718212  27.8028107
  25.0385785  19.1788912   5.4857439  25.3106833  18.7586319   6.3015705
  25.7718563  19.7487056   5.2536881  60.1403284  41.0698557   9.8633987
  59.4151545  41.5957165  10.2007794  60.0645494  40.2340460  10.3237295
  61.4178562  44.2664766   3.7335053  61.6558790  45.0779057   4.1820133
  60.5585623  44.4467306   3.3522525  62.6051903  38.7085843   3.1600398
  63.0673552  38.0722833   3.7057102  62.2791576  39.3624139   3.7784585
  61.7551231  53.6189032   9.1196513  60.9563446  54.0626192   9.4047892
  62.0906639  54.1637325   8.4077507  72.7410364  27.3110580   0.9984623
  73.3323526  27.6117921   1.6884911  72.3006344  28.1057620   0.6972613
  40.5114937  60.8082390   9.8027760  41.1179590  60.7422018   9.0651619
  40.2900362  61.7383575   9.8482352  49.8903608  33.4184885  65.5175543
  50.5501509  33.8558054  64.9793530  49.7720718  32.5634837  65.1037836
  37.2825480  59.4864464   9.9132198  36.9474959  58.5927343   9.8407847
  38.2237768  59.3790007  10.0502443  77.4178600  90.6832218  10.5271554
  77.1753454  89.9820995   9.9223024  76.6487455  91.2523651  10.5548382
  16.7869067  15.1179373  88.8013268  16.0577381  15.3797352  89.3634701
  16.7259860  15.6996095  88.0435753  95.8563042  63.0607033  19.6453714
  95.5214691  62.5963402  20.4124999  95.0971985  63.5299349  19.2992282
   8.7794703  85.1117420  77.2730589   8.4827375  85.4871559  76.4440584
   9.0140867  85.8694935  77.8087807   3.6920968 102.6671791  87.6301861
   4.0533900 101.8705940  88.0189514   2.8518271 102.7895164  88.0720139
  10.3633618   8.0737805   6.3459110   9.4638562   7.9333061   6.0502970
  10.8958769   7.9490989   5.5603445 117.2596909 110.2190208  80.7813168
 116.9960197 110.7050514  79.9999905 117.2009720 110.8576965  81.4918613
  86.3766861  20.4406953  50.3851223  86.0292625  20.7063842  49.5336914
  86.6314125  19.5258653  50.2649736  30.8579540   1.2807906  89.8075867
  30.3244472   1.8936026  90.3136063  30.6365776   0.4201774  90.1633453
  37.6639366  23.8821363  82.3966026  37.7600145  23.9065576  81.4445496
  37.9338670  24.7533655  82.6869965  66.2267208  96.0503197  11.7790771
  66.9340849  95.4703808  12.0611227  66.0125923  95.7541943  10.8943784
   3.7828487  34.6730185  81.7305470   2.9551253  34.2466617  81.9526482
   3.5402665  35.3559732  81.1052895  58.9092779  64.7797155   0.3000566
  58.3460379  64.6751833   1.0669086  59.4254780  63.9741755   0.2704267
  36.4934111 108.2091618  95.4141426  37.1332932 108.7545776  95.8716488
  35.7970858 108.0677509  96.0555172  16.5219831  11.5547371  87.3945045
  16.4798737  12.3972929  86.9422245  16.3238776  11.7628610  88.3075619
  66.1305904  97.7930641  15.9825492  66.6140270  98.6134911  16.0796690
  66.8065834  97.1153736  15.9818614   8.5762560  20.6809068  52.3115921
   8.0752593  21.0683250  51.5938568   9.3157405  21.2758255  52.4359608
  12.9033911  38.5029125  90.4406548  13.3358777  39.0632153  91.0850525
  13.6043811  38.2371426  89.8454952  52.0726633  45.1766062   3.5857999
  53.0101633  45.3474474   3.4955817  51.8611622  45.4642820   4.4739112
  49.6302938  63.9646959  13.5309744  49.2159605  63.8244009  14.3823731
  50.0082874  64.8421001  13.5902262  54.1445494  76.6053772  29.8580575
  54.8162413  76.8308496  30.5016589  53.7103224  75.8352089  30.2248335
  37.3618507   4.7148794  92.8700733  37.6162267   5.0478905  93.7306690
  36.4789820   5.0579238  92.7318954  78.9244080  96.6944885  12.3325849
  79.2647409  97.5875950  12.3851132  78.9398813  96.3787556  13.2360804
  14.6577919  11.5088010  51.1984062  14.9522805  10.7706296  51.7318964
  15.1460218  12.2591197  51.5373516  16.7198944  53.6531687  12.4958920
  16.0634887  54.2382479  12.1176827  17.4865103  54.2097950  12.6326430
  33.8889647  75.5410528  20.9547663  33.3595443  76.2958574  20.6974411
  34.5213342  75.8942080  21.5805626   1.0194466   6.3667667  66.1596823
   0.8669942   6.8151426  66.9915199   1.4290942   7.0285189  65.6024551
  13.6303473  13.2868540  89.3343830  14.1071725  13.4690857  88.5246563
  13.4093702  14.1509509  89.6818542  76.8994904  63.6387444  25.6642532
  76.7247915  62.7022314  25.7573175  77.3479462  63.8804197  26.4746308
  36.3641381   3.4489039  78.1940079  36.1620927   3.2104793  79.0987539
  36.5104389   4.3944293  78.2224512  60.5773544  69.4355154  29.5857978
  60.9676981  70.2575493  29.2889524  60.7404852  68.8208246  28.8704109
  41.6807079  26.2462711  81.7585754  42.1872234  25.4413533  81.8671322
  41.8883610  26.5422344  80.8722782  14.2777753   2.3589368  95.0517368
  14.9817336   2.9995424  95.1532173  13.6230493   2.6177987  95.7002354
  31.7753601  92.9714012   8.2774442  31.1278987  92.4440575   7.8095329
  32.6128960  92.7274513   7.8834200   7.0264298  15.4629755  83.7098885
   6.9688845  16.0297501  82.9406738   6.1736280  15.5499256  84.1357994
 109.0323734  76.7819691  90.9452534 109.2234325  77.7144384  91.0463619
 108.9449596  76.4568615  91.8412971  17.5735128 102.3558235  85.1661205
  17.3823380 102.1533108  84.2503357  18.3075726 101.7836475  85.3897476
  56.7927217 110.6050014  10.7290733  57.1573067 111.2592983  11.3250625
  56.2626791 111.1109447  10.1131964  45.4309988   2.3413993  90.0156021
  45.8627319   3.1558174  90.2735996  44.9604321   2.0607118  90.8004761
  99.0386772  58.4539366   0.7097505  99.1602993  59.3563414   1.0048903
  98.3829594  58.5154343   0.0151386  32.3362637  57.0180798  17.8935516
  32.0596600  56.1027002  17.9360104  33.2567835  56.9783449  17.6341414
  46.1763859  41.6937304   8.3312821  46.5893745  40.8304358   8.3510560
  45.2594090  41.5158367   8.1221402 111.5937996  23.2791257  83.9328861
 111.7138958  23.7471938  83.1066227 112.4333954  22.8460765  84.0870762
  87.6793957  74.1655684  26.6563272  88.4060478  74.2530823  26.0394430
  88.0992031  74.1120291  27.5148892  63.6229897 103.6242294  29.9358702
  62.6768351 103.5055637  29.8525763  63.9799404 103.2868576  29.1142869
  58.8791895  52.9591942  16.1756241  59.8138475  52.7747011  16.0828555
  58.4547138  52.3603249  15.5612874  49.6611404  26.0625744   3.4652185
  49.1801119  25.2350235   3.4631148  49.2650700  26.5680265   4.1750652
  48.6013174  16.1589587  85.6219769  48.8538265  16.3417053  86.5270042
  49.4169283  16.2320685  85.1263332  11.9142532  29.0903497  87.5276852
  11.0200560  29.1011882  87.1863270  11.8093050  29.1612911  88.4764576
  27.1639824  20.6312418  93.5607147  26.4567327  21.2747431  93.5167313
  27.6435995  20.8565807  94.3578529  78.0566311  69.6737385  39.2289805
  77.3859072  70.2080345  38.8036728  78.3553123  70.2063513  39.9660969
  19.6532929 100.9301472  88.9200115  20.2771759 101.3068962  88.2994747
  20.1964140 100.4436398  89.5401382  30.9942818  13.4801877  93.8780403
  31.4332724  13.9194024  93.1496048  30.6200480  14.1923761  94.3966579
  64.3130922  55.7895231  15.0726438  64.2287111  55.6191349  14.1345179
  63.4287024  56.0238886  15.3540051  12.5676262  64.3232965  78.6029863
  12.4808419  64.7300434  77.7408600  13.4992349  64.1164732  78.6775541
   6.7286593  28.5682487  83.1781387   5.8479631  28.3203673  82.8967857
   7.1556324  27.7377057  83.3882046  93.9336395  45.2642345   8.8627613
  93.3420658  44.5800924   9.1761655  94.3323135  45.6186914   9.6575266
  56.1054754  34.5461202  89.4349575  56.0084534  34.2152143  90.3278828
  57.0510769  34.5636225  89.2874336  49.6274137  52.1994448  13.0925715
  49.5460463  52.8559828  13.7843561  50.5495310  51.9434547  13.1125772
  22.6888490  22.3964334  79.0315485  22.9604983  22.5567269  79.9352884
  22.3287749  21.5096211  79.0433931  41.8575048   7.7142149  87.8736973
  42.0679903   8.4708112  87.3264408  42.3050165   6.9811004  87.4512005
   9.3702716   2.9006687  84.2458153   8.5276341   3.1991115  83.9035702
   9.9720746   2.9833317  83.5060596 101.0890007  42.7701569  55.8864260
 101.4961720  43.2962036  56.5746975 100.1491070  42.9080439  56.0039616
  61.2874699  71.4656639  11.4868963  61.9027662  72.0613146  11.0592937
  60.7532072  72.0322275  12.0434952  84.0540123  90.3893852  91.4964294
  84.2271996  89.8340225  92.2565746  83.7211323  89.7873783  90.8308411
  50.3459358  72.5000381  10.1593459  49.9485826  72.4825907  11.0300004
  49.6277523  72.2856283   9.5639658  67.7920246  90.0178051   4.1625303
  67.8815317  90.9376717   3.9133731  67.9650211  89.5331287   3.3554420
 105.1739407  92.9093075  96.4202595 104.2269611  92.9243088  96.5589714
 105.3350544  93.6126709  95.7913303  44.3740702  48.4053802   1.3039933
  44.2685890  47.8560972   2.0807776  45.3020811  48.3302641   1.0817540
  25.4125309  96.1283302  91.5946484  26.2333083  95.8542633  91.1854458
  25.2233410  95.4423523  92.2348690  10.4815710  35.0816298  92.7111244
  11.2976384  35.4153824  93.0837822  10.6534338  35.0239182  91.7712498
 115.0204372 102.6922035  77.9286098 115.0088596 103.4882164  77.3971415
 115.8322048 102.7522564  78.4322596  50.4548836  85.6390858  15.8878613
  51.0125017  86.2536526  15.4107904  50.0985861  86.1522675  16.6130650
  70.9657907  11.0039127  91.0945988  71.7139769  10.4403305  91.2916374
  71.0538769  11.7395437  91.7006683  42.7957058  79.0361214   4.7999194
  43.5167933  78.5216379   4.4371894  43.2234764  79.7687531   5.2431983
  82.1998024 107.3617172  75.7500458  82.6532650 106.5642262  76.0232115
  81.8695450 107.7404690  76.5647268  42.6994848   2.7432215  88.8939476
  42.8920078   1.8139264  88.7691402  43.5584784   3.1650126  88.9153099
  34.1793060  30.8822179  89.1981697  33.4026527  31.1456919  89.6917534
  34.9153423  31.1699009  89.7382832 110.7451725  90.4654121  74.4839334
 110.4286194  89.7613621  75.0499153 110.8066940  91.2269402  75.0605822
  54.8405027  35.4395485  83.4345818  54.9299669  36.2014747  82.8621292
  54.0785980  35.6373072  83.9792156  56.0336781  44.4337320   4.8808715
  55.4238558  45.0604963   5.2701139  55.4925537  43.9064169   4.2932004
 116.4439201 109.7129250  78.1445503 117.1785355 109.1794109  77.8413439
 116.5933704 110.5723572  77.7505159  43.8659191   2.0662940  92.3328304
  42.9493999   2.2141841  92.0996857  43.8897562   2.1643774  93.2846928
  68.6172962  90.5900860  16.1925280  69.2490005  90.4137516  16.8897247
  67.8686714  90.0310707  16.4006138  52.3188448  52.2931337  13.8570285
  52.6467752  53.1874132  13.9516675  52.9168463  51.8836546  13.2317662
  24.8240959  38.0227132  96.2418429  24.8121941  37.2324605  96.7818331
  24.1228640  38.5675473  96.5991495 112.8324318  96.5567017  81.1438560
 112.7555847  97.0422935  80.3225517 112.6778698  95.6445789  80.8981609
  48.6076355   1.1704136  94.9709606  48.4268761   0.2571081  94.7486305
  48.1524467   1.3093510  95.8014584   3.3765256 106.7705536  59.4045639
   4.2912826 106.5147305  59.2862129   2.9904112 106.0534286  59.9074316
  91.2918854  81.9575977  18.8907707  91.7854786  82.6505947  18.4521735
  91.9602489  81.4181042  19.3132341  46.9001532   3.2457614  20.3187895
  46.0219479   2.9240662  20.1150823  47.2900295   2.5548941  20.8544493
 107.2137260  69.6829653  69.7804070 107.7803421  68.9118338  69.8034859
 107.7408791  70.3793335  70.1720810 111.4680004  92.2459507  41.0569096
 111.3298512  92.1306896  40.1167679 112.2546101  91.7350292  41.2478161
  44.3695498   3.5597551  31.5089774  44.6048403   3.5342777  32.4364614
  43.6735535   2.9086122  31.4204693  50.3450584  12.8478301  60.3436565
  50.1566410  13.0573463  61.2584448  50.5968237  13.6847317  59.9532175
  44.8375320   1.4329663  61.9202375  44.7871256   2.1106148  62.5943899
  45.4831266   1.7638952  61.2957907   0.7463553  93.6861992  88.7024021
  -0.1513042  93.6577606  89.0335083   1.2734821  93.3088970  89.4066811
  40.3044367  35.3603244  43.1740236  39.5562053  35.9532857  43.2431746
  40.6255484  35.4830694  42.2806835  35.4325914 105.3374004  32.9406881
  35.6009269 104.4168854  33.1420588  36.2034774 105.6197643  32.4485111
 108.4223175  65.0424242  11.9560719 108.2920361  64.9921703  11.0091114
 109.3722534  65.0097990  12.0692110 112.7222729  75.8629990  11.4903271
 112.5413513  76.0160112  10.5629182 112.1814251  76.5058374  11.9491029
 114.8540020  75.7149458  62.1654797 113.8991737  75.6510878  62.1868372
 115.1089382  75.2306175  61.3802004  83.3015347  97.9832458  70.7821417
  84.1931248  98.2883263  70.6141472  82.7447796  98.7197304  70.5294704
 103.2179642  61.9746685  19.6516895 103.8082504  62.6416683  19.3011022
 103.7057018  61.1553144  19.5679903   9.7904176  61.6318274  14.0865123
  10.0170600  60.8830261  14.6380174  10.5565917  62.2037506  14.1324770
 110.9421062 110.6921482  14.6603513 110.4927540 109.9801445  15.1157176
 111.3736820 110.2675915  13.9189172 107.6051807  84.8455429  30.0158262
 106.7434311  84.4352055  29.9434280 108.0428219  84.3615913  30.7161760
  91.0463619  75.3245449  14.3885088  90.9651661  74.3720388  14.4371414
  90.4983044  75.5739641  13.6444247 107.1622562  74.7214508  23.8171649
 107.3159599  75.0988483  24.6832919 108.0367088  74.5143890  23.4875035
 111.6586018  76.8361950  68.1104612 111.8954849  76.2875748  67.3627090
 110.9184742  76.3834524  68.5147667   2.7623662 111.2389851  46.4587975
   2.9037121 110.9270477  45.5649614   2.1524465 110.6070232  46.8393850
 101.1424160  80.5798149  10.3774440 101.1684513  80.6057739  11.3339376
 101.3206387  81.4809895  10.1084495 117.9452038  50.7924414  64.1393471
 117.3933411  50.0112915  64.1779852 118.7171268  50.5161572  63.6453533
 110.2998066  76.3926458  47.0283985 109.4080734  76.1817837  46.7516613
 110.3660297  77.3414373  46.9205046  14.3129086  61.6192627  65.2861691
  13.4098613  61.9017935  65.1415539  14.3246710  60.7032871  65.0085354
   9.6155500 100.8496189  32.1197152   8.7352896 100.6590748  31.7955756
   9.5895725 101.7778683  32.3518801  45.6862879  22.0565486  25.6962061
  45.4749966  22.3054957  24.7964215  46.3887644  22.6545382  25.9514904
  44.0213585  49.5594168  22.8275657  44.0248585  49.7447872  21.8884921
  43.2596016  50.0326347  23.1622720  15.1018286  95.9697342  19.4532764
  15.8020651  95.5871296  19.9819708  15.5371344  96.6429329  18.9302731
  27.2986412  12.2027147  51.7558575  27.9902840  12.6422572  51.2612200
  26.7836905  11.7442334  51.0918903  16.6344750  82.5761223  18.4825027
  17.4757540  82.1805763  18.7105954  16.2887418  82.0184898  17.7855468
  15.6459534 101.2345409  32.3978734  15.4744911 101.6027546  31.5311241
  15.3308320 100.3324604  32.3414993  10.3317499  88.7633228  31.3422418
   9.6776855  88.2050133  31.7626357  10.2418208  89.6094418  31.7806721
  40.8343267   9.9940115  35.8800769  40.2731752  10.7674634  35.9358311
  41.1565924   9.9963790  34.9787593  10.2431703  81.0366726  54.1546106
   9.4998765  80.6893349  53.6615515  10.1409483  80.6692123  55.0325394
  27.3636627  68.9627647  26.0798335  26.8501210  69.3174934  25.3541136
  27.7787471  68.1793165  25.7190704  89.2607498  73.2770586  47.1817970
  89.3961143  72.4775696  47.6904535  88.3157063  73.3092403  47.0331621
 104.3704414  63.5063171  50.5270243 104.3835831  63.0570793  49.6818972
 103.5254192  63.9555454  50.5463600   6.9824439  70.2438498  55.6724072
   6.3047463  70.7481146  56.1225986   7.1441823  69.4946623  56.2458086
  85.4968166  38.1995225  89.1514969  84.8953247  38.9399886  89.0730476
  86.2987995  38.4957647  88.7210464  48.8713884  86.9611168  31.4272118
  48.8100195  87.4642563  30.6152272  48.0067730  86.5630436  31.5282416
   4.9573398  85.2714157  16.8109548   4.4023812  84.5188141  17.0155156
   4.8689851  85.8475685  17.5702167   4.5005199   9.0498936  70.2627325
   4.1438320   8.1684995  70.1525021   4.9300706   9.0292221  71.1178923
 110.9582996  82.7457047  47.5018358 110.7476711  83.0660057  48.3789158
 111.8526745  83.0484104  47.3446798 104.8214722  94.1742229  17.8480804
 104.4403553  93.7314987  18.6063540 105.4730606  93.5580158  17.5134587
 107.1803284 100.8103085  26.7816710 106.8321228 100.1658726  26.1654854
 106.4079857 101.1542130  27.2305059  48.5206461  20.4138017  13.9328229
  48.1273508  20.8910680  14.6634150  47.9926443  19.6193218  13.8537836
 102.8771019  19.6997917  93.6259365 103.0786037  20.2410793  92.8626347
 102.1788597  20.1735234  94.0779018   0.4274271  75.2355623  53.1245232
   1.1603951  74.6200371  53.1354761   0.1445216  75.2548742  52.2102880
   7.8289282  72.0855045  34.7842407   7.1063161  72.6631689  35.0299358
   7.8558707  71.4270592  35.4784703   1.0554906  87.3540878  22.0487189
   0.8227740  86.5182495  22.4530101   1.7412347  87.1326923  21.4186621
  46.4864731   7.6957035  29.5372128  46.0270929   7.4838924  30.3498244
  47.3149252   8.0802232  29.8236465  24.1218925  90.1032734  40.5589676
  24.1666269  89.1835880  40.2973986  23.3240318  90.1643467  41.0842514
  33.0767965  30.5467439  45.7572842  33.8321042  30.9195018  46.2120342
  33.4137011  29.7507524  45.3460360  16.2524080  53.4156561  51.9356775
  16.6247356  52.8974915  52.6491928  16.3145673  54.3212128  52.2395563
   8.1775868  78.7178373  16.9989431   8.9911294  78.2148600  16.9615865
   7.4858540  78.0601406  16.9270468  39.4334555  29.3267632  43.2566595
  39.2156291  29.3251824  42.3245764  38.8467288  28.6753178  43.6408520
 112.3086452  60.3030586  82.5883675 112.4530220  59.3867445  82.8245068
 112.9752350  60.7845449  83.0783272  99.3572235  89.6834946  72.7541065
  99.0033340  90.5047798  73.0953979 100.0480080  89.4450855  73.3723450
 114.6582890  31.3636661  55.7627583 115.1229763  31.8767524  56.4238453
 114.2886162  30.6261659  56.2482119  29.9888659 107.5304031  40.2263165
  30.4323745 107.1492577  40.9841204  30.4938602 108.3180904  40.0244045
  43.1514931  98.0917072  92.3680782  43.0913258  98.2855701  91.4326477
  43.8968468  97.4956703  92.4417019  28.0728221  98.2869148  37.3911786
  27.6576638  97.4799156  37.6955175  28.8172221  97.9905510  36.8674731
 112.0129681 102.6868439  19.9955690 111.1642742 103.1119156  19.8720562
 112.6268101 103.4101391  20.1231289  28.7452126  75.4655838   0.2808701
  28.4137344  75.9711456   1.0230049  29.6528721  75.7528782   0.1816483
  42.7127981  20.4737592   3.7597382  41.8666410  20.9208775   3.7413839
  42.5076628  19.5846617   4.0489724   3.7084037  94.1391468  23.4102345
   3.8235691  94.9524879  22.9188752   4.2669126  93.5058403  22.9594231
 109.3204689  62.5069237  45.5120564 108.3715439  62.6283550  45.5441809
 109.6647644  63.3701181  45.2827311 111.4441204  74.2876101   6.5174061
 111.6343880  74.9397707   5.8430785 111.2714005  74.8018885   7.3060232
   2.8840706  92.2866440  67.8323412   2.1347445  92.4260998  67.2532940
   3.3776054  93.1055355  67.7868176  49.8631525  12.1006370  11.2084341
  49.3531275  11.9679391  10.4093742  50.6543541  11.5781593  11.0771036
  39.1942167 109.4075966  42.3785686  38.6954141 109.1094017  41.6179705
  38.8592815 110.2867603  42.5549603 101.0092163 108.4281635  40.0156164
 100.2327538 108.9271069  40.2693653 101.0379791 107.6986122  40.6346226
 104.3839836 108.6531162   9.2921954 104.5553780 108.1131363   8.5206503
 104.9775791 109.3983078   9.1996771   6.1935830  83.8024044  14.6754861
   6.0795259  82.9085732  14.9984252   5.8562219  84.3562984  15.3794885
 107.6279163  83.3427048  42.1397066 107.9762459  83.8207817  42.8922606
 106.7191124  83.1553841  42.3747206   0.0137197  65.2694130  32.1544242
   0.2645944  65.1624012  31.2369037   0.4718534  64.5643187  32.6117969
 102.7364540  58.5804892  41.3248682 103.3122730  58.7651205  42.0668793
 102.9749680  57.6948023  41.0511875  39.8160815 105.6807804  26.0278320
  39.7721744 106.4436722  25.4513836  40.2368450 105.0039101  25.4977012
  70.3045130  23.0370331  91.9025135  70.0362110  23.4863472  91.1010361
  71.2064219  23.3232045  92.0470715   2.2049902  68.2790709  44.9137545
   2.1846397  67.4046421  44.5249176   3.0605012  68.6308193  44.6675682
  46.4101505  81.0582161  24.2457938  46.0734224  80.3753948  23.6656189
  47.2760248  81.2655640  23.8943696  75.8457708  82.4746037  41.9535923
  75.2431488  83.2176399  41.9847727  76.4350128  82.6744652  41.2262154
  38.6814737  83.4252739  49.1879272  38.8711596  84.3345737  48.9567709
  38.3845901  83.0270672  48.3696842  92.8042221  99.1185760  82.4981213
  93.4922409  99.7050667  82.8126049  92.1574974  99.7004318  82.0988560
   1.5517585  84.4461441  34.8188615   1.6239102  83.5563087  35.1641321
   0.9213331  84.3745708  34.1021514 107.1904850 102.7720833  42.8993654
 107.5757980 103.6323452  43.0658293 106.2458420 102.9259968  42.9133272
 116.4806843  96.1940861  45.7324934 117.1690750  96.6794968  45.2778244
 116.1594009  95.5688763  45.0827885  13.3929849  77.0508385   1.7671007
  13.3281636  76.1827517   2.1651669  12.5888276  77.1404791   1.2557054
  78.0457306   5.9713286  40.2510548  77.4538136   6.7235267  40.2433157
  77.9084969   5.5673605  41.1079121  88.7086391  74.7084141  41.9452143
  87.7739525  74.7300816  41.7399883  88.7987328  75.2745342  42.7117825
  83.2861137  94.8888779  37.2369981  83.1484985  95.4461575  38.0029821
  83.7105751  95.4610348  36.5976977 100.1598072  92.8052330  37.0042109
  99.9468040  92.6783848  37.9287481  99.3119335  92.9308891  36.5781307
  99.3378830  88.0126953  29.9026179  99.8477936  87.9025745  30.7051730
  98.8147926  88.7992668  30.0572348  37.2482085  89.9614048  66.0745478
  36.7877007  89.4953537  65.3767157  37.3234081  89.3204689  66.7815018
  17.6507139  58.8482618  49.3934155  17.5987589  59.7607946  49.6776915
  18.2246530  58.4298086  50.0350714 115.0159931  80.4201984  34.5938110
 114.2282486  80.7666874  35.0129104 114.8631763  80.5441570  33.6570549
   2.9827982  62.1780920   6.9271940   2.0598385  61.9252300   6.9481289
   3.0049610  62.9579449   6.3726050 117.2645187  86.8014812  27.9314661
 117.2353840  86.0040665  27.4027681 118.1556892  87.1318054  27.8177762
  91.8997574  57.1264696  47.4339724  92.7217484  56.6682625  47.2589874
  91.6542721  57.5082493  46.5912342  19.9449480  90.6994152  11.5972388
  19.4102073  91.1751938  12.2327828  19.9587536  89.7991276  11.9220948
 107.7617455  64.0942049  61.8134928 107.8549194  63.1820440  61.5386963
 107.1563911  64.0605640  62.5542021 112.3190403  69.4007587  88.0844116
 112.7666283  68.5641956  88.2111168 112.4925709  69.6293545  87.1712494
 107.1135616  78.1652117   5.5806047 107.5973511  78.8972664   5.1981431
 106.7766953  77.6808596   4.8268449 109.5065117  87.3655128  41.0961914
 109.0649033  87.8620148  41.7851639 108.8391495  86.7611599  40.7711887
   9.3863231  78.3771324  35.4880381   9.7852039  79.2472363  35.4812932
   9.2527521  78.1677103  34.5636296  17.6726043   8.9763629  35.3037167
  18.4521520   9.4433612  35.0029659  17.2073400   8.7444812  34.4999790
 118.3283675 110.0551510  57.0225716 117.4429753 109.7261143  56.8675041
 118.6433077 109.5509243  57.7727652   2.3655494  98.6828136  10.6944656
   2.3935552  98.2027149   9.8668492   2.2083038  98.0097198  11.3566220
   5.4647833  86.9633293  41.7740297   5.4151660  87.2556877  42.6841354
   4.7173560  87.3818588  41.3469315  92.0767212  70.8540392  41.1599541
  92.9533291  71.2145615  41.2934256  91.4852524  71.5527916  41.4394999
  20.5322170  89.1525173  54.2778683  19.9505854  89.7519112  53.8102627
  20.3096366  88.2868481  53.9353609  38.4664559   3.6267477  29.0918422
  37.5735331   3.4199977  28.8158441  39.0230107   3.2110080  28.4333301
  33.1549287  70.5219269  27.1889257  33.8946748  71.1292982  27.1992540
  32.4343801  71.0153866  27.5807667  97.6875114  97.2999954  19.1585684
  97.3526764  96.4052582  19.2182124  98.5601902  97.2042274  18.7771297
  86.6956329  29.6948266  22.1433282  87.0328522  30.2879500  21.4719725
  85.9674835  30.1722956  22.5409031  10.6397355  98.0971241  27.2947168
  10.1301920  97.9128838  28.0837989  11.4252412  97.5577068  27.3854589
 118.1579465 108.2530594  31.2383151 118.7966265 108.3633900  30.5339384
 117.3917863 107.8719330  30.8093977  24.9571943  82.5794601  31.5745091
  25.9094071  82.6456451  31.6462302  24.6245265  83.2159615  32.2073054
  94.3049526  43.3047295  88.3496094  94.5987988  44.1898537  88.5651112
  94.3857479  43.2507467  87.3973560   6.3478327   6.6877198  54.4628143
   5.9333575   6.3628781  55.2621365   6.5004784   7.6172370  54.6328974
  14.2106831  79.0474558  53.6863327  13.4480405  78.5366249  53.4149265
  13.9126468  79.9566126  53.6573410  16.9879484   3.9469767  36.3100386
  17.3833215   4.6074745  36.8789458  16.2603056   3.5942593  36.8222475
   9.0418369  85.0723934  14.9920774   8.2149649  84.6352673  14.7885251
   9.4701350  85.1820278  14.1430950  77.7207613   6.3990897   7.2556406
  78.2087374   5.7300884   6.7754859  76.8203211   6.0746932   7.2699893
   8.0298263  74.5579529  75.4038715   7.4342668  74.7806168  76.1193848
   7.5786626  73.8633347  74.9240923  24.5234275  56.7700434  10.7548726
  23.9627266  56.3899803  10.0785613  24.2166448  57.6726532  10.8409619
  18.9903069  26.5340424  46.8117857  18.7663591  27.0903015  46.0656929
  19.8854780  26.2449312  46.6348219 117.2199191   4.8752788  71.7630434
 117.2295744   4.4685617  70.8966017 117.4026192   5.7998544  71.5956736
   8.8241792  95.5784607  22.2743678   8.5390872  96.3812542  22.7108145
   8.4927702  95.6613159  21.3802004  33.5539341  72.9214239  59.2414665
  34.1149545  72.9930019  60.0137138  33.1796980  72.0422268  59.2979527
  18.7361431  67.1277475  15.9067607  17.8918672  67.0379305  15.4647624
  18.7098074  66.4767933  16.6080415  77.8228569  24.2474937  69.9114609
  77.7905607  23.3776498  69.5132685  77.1851397  24.7614932  69.4161320
  98.3918858 103.1235695  45.4704428  97.4660301 103.3665085  45.4725933
  98.7520313 103.5455418  46.2504864  13.7537408 106.0327435  54.7679901
  13.6823666 105.1768589  55.1906061  13.1473470 105.9861946  54.0288353
 112.1340752  67.0524597  17.8764355 111.9055653  67.9204750  17.5439274
 111.7991352  67.0436335  18.7730777  55.0464678  25.8442879  31.8386674
  55.6556797  25.2339458  32.2540879  55.2525425  26.6926908  32.2310686
   0.3185849  74.2974567  32.4152279   0.2354340  73.8422489  33.2531452
   0.8867037  73.7327528  31.8912196  22.8541732  66.5165472  19.0345252
  23.5529494  67.0841217  18.7092578  22.4715686  66.1317682  18.2459879
  16.6711509   2.7379939  40.1890659  16.0448754   2.0511529  40.4176712
  16.1579990   3.5458109  40.2074671  59.2205238  10.2112937  34.0477848
  58.5044956  10.7390630  33.6942387  59.2734432  10.4658103  34.9690080
  15.0180864  76.3970137  59.3717194  15.6629872  76.6305494  60.0393963
  14.1908014  76.3347960  59.8491716  28.9397287  73.1076145  44.9707508
  28.6972237  72.8651237  44.0770960  28.2774234  73.7467527  45.2335930
  14.0490103  99.6078587   7.1342301  14.9301195  99.2362881   7.1768165
  13.5100126  99.0054893   7.6469374  99.7426605  69.7997379  49.8713827
  99.5478058  70.7330561  49.9561405 100.5647659  69.7701788  49.3819857
   6.8207204  62.8006554  40.1909208   6.3017356  63.3063364  40.8163643
   7.2830153  63.4606886  39.6743250  47.8514290  14.6809494  67.4567938
  47.5179529  13.8243067  67.7236080  47.2169447  14.9949026  66.8125153
  67.4977875  80.9101486  87.2581959  66.8358469  80.2424240  87.0787144
  67.1096230  81.7243862  86.9379330   8.8677388  95.4263496   6.2704211
   9.1082716  95.0428963   7.1138310   9.4644338  95.0183678   5.6429356
   7.6323575  80.6480598  40.7156181   7.4404854  81.5721607  40.8751392
   6.7913544  80.2055645  40.8302546  22.6498365 110.0026321  24.4444203
  22.7567816 109.3816376  25.1649499  21.9900346 109.6016884  23.8786125
  47.8138781  38.9693284  24.9486995  48.3487272  39.0410256  25.7392859
  48.3891726  39.2641830  24.2427731  83.8700390   5.5222160  78.4430552
  83.1795120   5.2480310  77.8395367  84.4520187   6.0645175  77.9106665
 112.7389526 101.1845207  25.4878354 113.5518074 100.8244991  25.1330328
 112.4715328 100.5563545  26.1587477  55.9356689 109.8607349  25.5819345
  55.7633972 109.0450096  26.0522032  55.3248167 109.8460197  24.8451328
   0.4064635   3.7223560  39.0885234   0.2223713   2.9163331  39.5708823
   1.2028438   4.0667892  39.4927216  20.8929968  79.1995621  35.1944232
  21.6426277  78.6539030  35.4322147  20.5960560  79.5733356  36.0240936
 103.6219978 100.5923939  42.1936417 103.0108547 100.4552269  41.4698267
 104.0796757  99.7563934  42.2823763 107.8692913  90.3130817  33.6343360
 108.5203266  90.5661774  34.2888069 108.0048370  90.9263897  32.9120350
   9.7747302  96.8794060  39.2283654  10.2756894  96.0643578  39.2596793
   9.9824405  97.2554970  38.3730054   1.5753974 100.1574230  65.8926773
   1.3201432 101.0769749  65.8184719   0.7509824  99.6901512  66.0277033
  13.0467892  98.0435944  42.8514338  12.9160953  98.7481499  43.4860611
  12.1815002  97.6463223  42.7530289  36.7905354  -0.0473072  51.2759304
  37.5793957  -0.0906136  50.7355165  36.9733834   0.6445549  51.9116306
  20.8190179 109.6430683  45.7913351  20.6940699 109.1026402  45.0112295
  20.9375954 110.5301094  45.4517221  79.9321270  99.2250633  24.1776109
  79.1958237  99.7983170  24.3908525  80.5189514  99.7728157  23.6562276
  75.7220793  89.1597748   4.8958212  75.8983326  90.0998211   4.9342313
  75.9713221  88.9054680   4.0073180  84.5672512  33.8500714  84.9259377
  84.2268944  34.7348809  85.0582027  85.2593708  33.7592936  85.5808926
  22.2806478  99.7217274  33.1205511  22.7228642 100.5500698  32.9347539
  22.2491574  99.2723370  32.2759891 115.7044029  72.7078629  22.2389603
 115.3159237  72.1354246  21.5774202 115.3104687  73.5647678  22.0753551
 108.0875969  14.1098225  94.8855877 108.1731987  14.4984412  95.7561493
 108.9434338  13.7172604  94.7133255 114.9111366  87.9881954  27.3962641
 115.8231163  87.7962875  27.6146626 114.6628952  88.6890984  27.9990363
 112.8555870  99.2492485  69.4789362 112.2923660  98.4761429  69.5150614
 113.3720016  99.1323185  68.6815214 102.4807549  67.0867729  45.9340620
 103.2571793  67.1259546  46.4925003 102.8280544  67.0608664  45.0424671
   4.5317578  75.8697987  47.0104837   4.1701740  75.7171488  46.1374474
   5.0469929  76.6713572  46.9195414  13.3227634  86.4480495  23.0378699
  13.9140141  86.0608578  23.6834240  13.7670517  86.3209724  22.1996021
  59.6135473  89.1033363  10.5671847  59.9627161  89.9016190  10.9634852
  58.9618397  88.7898827  11.1942875   7.7038193  55.6462765  12.2801530
   8.0591482  55.2576160  13.0794752   8.4095103  55.5625057  11.6388941
 102.4368000  37.5261188  57.0008516 102.2958183  37.2920489  56.0834837
 102.2713184  38.4682584  57.0358038  40.7152653 103.8348675  31.1815119
  40.1893568 103.3699894  31.8323135  40.2395487 103.7154675  30.3595233
  25.3367209 102.7426147  28.7086558  26.1956215 102.3812580  28.4896994
  25.5060053 103.3360577  29.4403720 111.4543915  96.9644165  39.3743372
 111.7400742  97.4664307  38.6110544 111.4937782  96.0515690  39.0890551
  43.1083059   4.4477755  38.5379052  43.3262730   3.5157356  38.5426879
  42.1723413   4.4738466  38.3390856  53.8268375  17.7456594  49.1979408
  53.6086655  17.0453811  49.8129559  54.1508484  17.2898436  48.4211016
  47.5899696  14.4480646  36.0466957  47.3309708  14.3399310  36.9618249
  47.8522158  13.5710824  35.7667685  63.0367994  12.1308708   6.5730602
  62.3580647  11.5901744   6.1690801  62.7065802  12.3119128   7.4530649
  83.8235092  16.8195891  72.5045633  84.0622616  16.3726580  73.3166504
  83.5487175  17.6929748  72.7837038   0.6214393 111.4166832  41.7194986
  -0.2306685 111.5849686  41.3172245   0.4136521 110.9931660  42.5523758
  35.8509994  94.7050953  36.0100055  35.0325584  94.9361134  36.4493394
  35.9201980  95.3301620  35.2883887 103.0363274  82.1462059  27.5749469
 102.6976585  82.3223591  26.6971636 103.1927681  83.0129910  27.9497170
  18.5301733  89.7986603  69.8326826  19.1295874  90.1422596  69.1702080
  18.6019850  88.8477039  69.7504997  65.3637171  10.8079529  40.6367207
  64.7099686  11.3181436  41.1147928  65.4154110   9.9789917  41.1125183
  42.2403002  97.4334049  46.1265135  41.7837906  97.3955727  46.9669914
  42.5293922  96.5343761  45.9702969  49.2802429   1.6624503  63.6855316
  49.5140696   1.0791290  62.9635239  49.2888784   2.5379026  63.2985687
  47.9382849  91.5269852  27.7835989  48.1246090  92.0480251  27.0025516
  48.7937450  91.2021637  28.0645132  45.7275105   8.3638012  23.7273598
  46.2419128   8.0879831  24.4860077  46.3457346   8.8517767  23.1833839
  11.7664492  55.3809690   5.1070547  12.3563468  54.6297216   5.0447643
  11.0348964  55.1594877   4.5308536  95.1626015  44.1121626  94.8790741
  96.0516644  43.7621212  94.8219109  94.8322868  44.0747452  93.9814568
  63.5316038   4.9323756  29.7003555  63.1474257   4.6523246  28.8695645
  63.8558102   4.1246238  30.0986743   5.4725128 104.5476627  35.0010109
   5.9866929 103.9161205  34.4980121   4.9464309 105.0048828  34.3449497
   7.8773618  73.7366104  13.4402120   7.7561504  74.6651745  13.6384702
   8.8229603  73.6004496  13.4996772  16.9716406  93.6031151  24.0065646
  16.0318840  93.7846279  24.0184879  17.1050584  93.0828571  23.2142520
  32.4805760  93.7097549  63.0709219  32.2924399  93.4766102  62.1618128
  31.7705321  93.3094025  63.5727119   3.4097883  88.7512875  16.7682624
   3.0440047  88.1746101  16.0975313   4.0339750  88.2017136  17.2421753
  24.4103456  96.2201786  57.8635597  24.6087337  95.9458828  56.9682217
  24.0148115  97.0864201  57.7665997 114.5135784  86.4056396  72.9287100
 113.8357162  85.8450603  73.3061981 115.3372765  85.9876919  73.1798458
   7.1481299  75.3184080  29.1532636   6.3278389  75.7378244  28.8935661
   7.7432692  75.4828596  28.4218311  72.6451969   1.6068015  30.2639604
  73.2439280   1.8185760  30.9801316  72.9087114   0.7306513  29.9826193
  50.3461123  34.9276924  92.1646309  51.0925817  35.0766850  92.7449894
  49.8076296  35.7132292  92.2605324  12.4450338  78.6364460   6.9978738
  12.0994186  77.7461481   7.0622993  13.1876731  78.6493540   7.6016563
  55.9345245   1.0957827  34.7073531  55.3919125   1.8430510  34.9591374
  55.3908682   0.6007173  34.0945053  41.2357044  24.1677618  36.8876672
  40.3100109  24.3851829  36.7778683  41.6887999  24.7211432  36.2515020
  24.6839738 109.0894222  44.3356848  24.9458265 109.1552925  43.4173536
  24.7157383 109.9898148  44.6589708  52.2633219  92.3667622  86.2267303
  51.3899469  92.7316093  86.0841656  52.3050499  92.2066879  87.1695328
  33.8920689  79.8335457   9.1459221  33.3567357  80.5286026   8.7631071
  33.6014056  79.0360975   8.7033981  19.5110691 109.8826313  55.4032326
  19.0098381 110.0770092  54.6112633  20.1612711 110.5833244  55.4531813
 104.4733429 102.3872375  40.1178026 103.6099529 102.3197556  39.7100854
 104.3943596 101.8871403  40.9301424  50.2286291 103.1210804  94.7457123
  50.1596546 102.1943855  94.9753094  49.6593142 103.5663414  95.3732872
  12.4995124  36.9048834   2.0147692  12.1814156  37.7201772   1.6270322
  12.4957168  36.2781358   1.2913013  11.4166605  62.9294586  11.1258590
  10.9690106  63.5841894  11.6617441  11.7096901  63.4122229  10.3530014
 104.2110062  65.4902029   6.7071021 103.8701344  64.9557686   7.4243295
 104.6365070  66.2298489   7.1408176  96.7837811  33.5813975  22.7597141
  96.4715481  32.6827765  22.6537895  97.0650673  33.6310983  23.6733007
   4.4773874  57.7907324  10.6980741   4.8985246  57.4116945  11.4695704
   5.1967430  57.9523230  10.0876260 104.4739532  90.9340000  23.4455061
 104.8094368  90.5560684  22.6325750 105.1391792  90.7223797  24.1004300
 118.0047607  77.6229239  46.4298201 117.3968601  77.7662468  47.1551800
 118.6943913  77.0722532  46.8005133 109.8131084  31.0726666  48.1326818
 109.9347210  30.6967092  49.0045166 109.4090080  30.3702688  47.6231956
  13.1355524  56.2385321  62.6613569  12.7044475  57.0074654  62.2883749
  12.5543022  55.9572363  63.3679342 107.7017021  42.3524761  40.7616758
 108.6515713  42.3051786  40.6532717 107.4036980  42.8925085  40.0297022
  94.4923401  65.9177589  34.6444726  93.6717319  65.9674120  34.1542006
  94.8616219  66.7987347  34.5832276   1.6618814  35.7301855  43.8769245
   1.6993226  35.2522087  44.7053957   0.7276116  35.8715057  43.7239552
  14.0770674  89.5247555  29.8622894  14.7362030  90.0024414  29.3587089
  13.2790613  89.5934105  29.3381643 105.0109005  10.2357090  90.7111645
 105.0787735   9.3532926  91.0758114 104.4232273  10.6974530  91.3092136
   7.6808625  52.4045324  16.8963253   8.6303312  52.3684454  17.0122492
   7.4229640  51.4947844  16.7477441  95.7180595  29.0451908  20.7599616
  95.4488659  28.7112403  19.9042463  95.2859592  28.4676290  21.3892031
 106.6563320  50.0396252  26.3210416 106.9779873  50.9375238  26.2400913
 106.3703537  49.9688530  27.2317767   8.9317578  51.6215611  20.4117537
   8.8559288  50.7354355  20.0578308   8.0402720  51.8521929  20.6730819
 105.5558586  90.6545639  20.7745266 105.0045967  89.9660397  20.4026771
 105.3132153  91.4435387  20.2898979   6.6086847  64.3388700  26.3558984
   6.8962342  63.7928772  27.0876360   5.6528586  64.2996740  26.3889503
 117.2434902  81.2679291  16.8056762 116.8283749  80.4054260  16.8072128
 117.2577000  81.5252590  15.8838236  47.6053333  65.6852913  23.4716821
  48.4185696  65.9135437  23.0213690  47.0066595  65.4294968  22.7699780
  21.4274359  65.3248787   6.2073922  20.8921456  64.9307871   5.5186325
  21.0430288  65.0034094   7.0229417  26.9141483  82.2611904  45.8565712
  27.4356031  83.0391598  45.6589031  27.5570107  81.6021919  46.1186552
  26.0898805  86.0085011  31.1182833  26.1372709  86.2748528  32.0364571
  25.1819682  85.7310963  30.9959221  88.6725235  78.6331892  18.9258647
  88.6896992  78.6216497  17.9688883  88.8421059  77.7258968  19.1794169
 111.8015003  67.9733562  23.0105352 112.4462605  68.1607389  23.6927390
 111.3441086  67.1920633  23.3213568 109.5114708  31.6297364  20.2062488
 109.5582485  32.4925756  20.6180143 109.5923424  31.0126042  20.9334612
   5.2238917  17.7593935  16.6201460   5.0066453  18.5022128  16.0568905
   6.0971731  17.9610121  16.9562435  94.9433613  49.6135092  67.5434780
  95.7403755  49.1160774  67.3602915  95.2542019  50.4236317  67.9475927
  37.5158691  31.1942554  40.4209328  37.7288556  32.1273804  40.4329395
  37.0851517  31.0577321  39.5770884  23.8617492  74.6357489  19.2557049
  23.3454084  73.8376904  19.1428792  24.7623134  74.3657827  19.0758920
  10.4564714  77.1807957  17.3337173  11.1645305  77.8196669  17.4157369
  10.3485203  76.8281794  18.2170320  34.5600963  58.5097122   3.7670511
  34.4105077  59.0910482   4.5126417  33.7478733  58.0096817   3.6864796
  55.2326965  18.0993915  88.6885166  55.2785397  17.2719216  88.2095337
  55.1444817  18.7659371  88.0072212 107.1211433  51.0617685   4.0676886
 107.5663185  51.9016981   4.1797891 106.3451576  51.2695694   3.5472107
 102.6117039  72.5918436  68.4285259 103.0897331  72.8393555  69.2200184
 101.7702770  73.0414581  68.5064554  35.7639027   4.7293890  45.5134487
  36.2295628   4.1472983  44.9129820  35.9020901   5.6053889  45.1532269
 102.3709869  59.6499634  23.1435275 101.7679882  59.4673347  23.8641357
 102.0969772  60.5054331  22.8128934 109.8358631  60.8253479  47.5007772
 109.6716690  61.4960146  46.8378496 109.2139816  60.1274920  47.2946453
 111.7897701  51.1006546  30.1369023 112.3530102  51.6167021  29.5601082
 111.3489628  50.4840851  29.5522952 107.7679062  19.9054515  87.2937393
 107.9739666  20.7654619  86.9274712 106.8118286  19.8859334  87.3359585
  45.9136724 110.6141472  93.1187630  46.4645195 110.1292324  93.7333012
  46.1937904 110.3107452  92.2552204 115.4391956  54.5449209  31.0437536
 116.2680435  54.7146749  31.4914513 115.4860210  55.0710583  30.2454925
  73.6966324  22.0147109  69.3831062  74.6223354  21.9786739  69.6239471
  73.6327887  22.7620363  68.7884140 109.2120266  54.0128469  23.0004716
 108.9718342  53.5811472  22.1806097 109.9820805  54.5364141  22.7788210
 112.4009991  64.6157932  19.9812984 113.0676937  65.0692797  20.4971433
 111.8784809  64.1421986  20.6285310 111.1532974  96.1624813  29.3019795
 111.0121059  95.4514885  29.9271154 112.0806026  96.0995579  29.0731192
 109.4065666  61.5734100  26.6856980 108.8221264  62.2992325  26.4669609
 108.8426399  60.9350824  27.1224499  93.7248516  92.3749542  23.4509134
  92.9692650  92.7413177  23.9103746  94.4378376  92.4207401  24.0879297
  98.3127975   9.9166644  94.0680027  97.9587269  10.8030081  93.9955044
  98.4259701   9.6291184  93.1620502 104.2445755  45.4964972  16.6568708
 104.0339279  46.0525417  15.9067559 105.0833702  45.8306551  16.9746578
  13.4902835  74.7554255   4.4160840  14.3472087  74.5063543   4.0698555
  13.1133103  73.9354515   4.7351021   0.1733551  52.5217581  46.7640972
   0.6135029  52.6807928  47.5990868   0.4740540  53.2309914  46.1959410
 102.1783829  55.8227348  15.7746029 101.3777924  55.9588099  15.2678692
 102.0293331  55.0006723  16.2417567  48.2409143  64.6076536  20.5691910
  48.8375807  65.3542709  20.6219959  47.6238632  64.8427248  19.8762107
 107.3106384  46.4675474   6.8327463 107.1606731  45.7114649   6.2652260
 107.5900364  47.1626091   6.2368804 105.9590816  28.3903599   0.8601289
 105.0036526  28.4083271   0.9154277 106.2435818  29.1370034   1.3872093
 112.4094009  90.4825401   7.3286104 111.8382835  89.7145939   7.3460674
 112.4841022  90.7463741   8.2456958 110.0972557  53.9127684  68.3913612
 109.6407127  53.2567358  68.9180660 110.9780598  53.9487314  68.7643576
  94.2610455  36.3557887   3.9044267  94.9809647  36.7756605   3.4336233
  94.6916485  35.7813287   4.5375180  96.8573380  81.1089802  45.3998518
  97.5409508  81.5183926  44.8694801  96.2885189  81.8340397  45.6586409
   2.0703939  34.1427922   0.7554550   2.0039529  33.5739970  -0.0115456
   1.3106574  34.7214818   0.6910260 112.1427631  25.6092548  23.9530683
 111.2185955  25.6605268  24.1970348 112.2009182  26.0965514  23.1312466
 105.1691055  59.5686865   4.9379963 104.7647953  59.0038252   4.2794436
 106.0719490  59.6769190   4.6390015 108.3799076 102.1422100  33.4706402
 108.2676411 102.3801422  34.3909740 107.5260544 101.8000889  33.2058263
 102.2451591  67.3680925   5.5715495 102.2455215  67.1349669   4.6431726
 102.9227543  66.8133736   5.9580600   5.5065602  67.2432423  36.9829011
   5.6003803  68.1373835  37.3114586   6.3985449  66.9737005  36.7639470
  17.0036769  52.4496651   1.3033639  16.8311536  52.5162935   2.2425275
  16.3672876  51.8080235   0.9878708   2.9775259  78.7007856  28.5009646
   2.9571208  79.6182489  28.2287955   2.6294497  78.7076712  29.3926096
 103.4942913  72.9838943  38.3818579 104.2920589  73.5106421  38.3334088
 103.7942886  72.0831108  38.2601094  11.2119961  47.7507687   8.2262665
  11.9565392  47.1492004   8.2248521  11.4324510  48.4062815   7.5644994
   0.5312335  87.8437901   2.6770842   0.2426871  87.9718399   3.5807306
   1.3975707  87.4445820   2.7565801 103.2236767  44.7707510  46.9115257
 104.0024567  44.2269945  46.7929268 103.1834412  45.3073883  46.1199236
   7.1480149  66.8909121  28.5153985   7.0105076  66.2305403  29.1945386
   7.9450160  66.6098690  28.0659151  28.0342269  57.8267288  27.9044390
  28.6649632  57.1317816  28.0927253  28.5625672  58.5380316  27.5423121
  14.7128749  79.1460609  27.7111554  14.8009717  78.4615135  27.0479274
  13.7754226  79.3381262  27.7340651  25.2228808  88.5881042  21.3443255
  24.6923447  88.6490250  20.5499363  25.9910703  88.0813599  21.0810328
   2.4295852  68.0122089  19.5708287   2.3430717  67.2894192  20.1923776
   1.5499362  68.3852243  19.5133126 111.4197922  34.9450397  53.0238342
 110.5644894  35.0390124  52.6044703 111.8332672  34.2146873  52.5635624
  40.0550461  47.0768166   2.2791904  40.6120777  47.0830631   3.0575904
  40.6693077  47.0766830   1.5450861  88.8798714  68.1375456  12.3557544
  89.3622112  67.4615192  11.8797588  88.7841702  67.7853394  13.2406402
 116.7686462  51.7288351  30.1666903 116.2559509  52.5371504  30.1660299
 116.1854172  51.0755873  30.5531359  15.3077900  31.7163658  37.6020455
  16.0747838  31.9285965  37.0701504  15.2026677  30.7700324  37.5038910
  16.5259087  45.1014566  22.9776216  15.6545949  44.8510218  22.6704979
  16.7727482  44.4078732  23.5893774 117.4903202  61.6745710   1.4062648
 117.2562122  60.9176254   1.9433527 116.7620087  61.7668629   0.7920311
 113.9233971  36.1994624   3.1141180 113.0391026  36.5350890   2.9671282
 114.3243694  36.8333054   3.7088400  22.7127361  59.4915771  22.1610928
  23.1345367  59.5880461  23.0149126  22.9629636  60.2802658  21.6798544
  33.9842939  78.5382175  34.1536164  34.6130157  78.8124704  33.4859896
  34.3145609  78.9222860  34.9658036  16.0956347  63.8209820  24.1369033
  16.4415550  64.1846991  23.3218694  16.8649948  63.4784698  24.5918775
  18.5689199  47.0265150  30.1779699  18.1629324  47.8757668  30.0042510
  18.7151802  47.0199776  31.1239076  13.7609720  34.2808437  16.5902615
  13.1674778  34.9217820  16.1988628  14.3024218  34.7918820  17.1918452
  28.5188389  71.4166403  12.9638374  29.3707299  71.6600084  12.6015007
  27.8862643  71.7179441  12.3116910  90.8642673  18.1103241  89.3633938
  90.9492016  18.5616064  90.2032471  91.3600349  17.2993088  89.4760609
   3.9239138  45.6872892  46.1656475   4.6160659  45.2567053  45.6638956
   4.1229698  45.4766512  47.0779181   0.9518073  62.8308630  20.5576992
   0.9710234  62.6309490  21.4935923   1.7795895  63.2820797  20.3921199
   4.2302147 102.0065498  36.1850810   4.4429985 102.8807735  35.8584595
   5.0799769 101.6063118  36.3693237  17.1659148  77.9913568  29.5314288
  16.2906981  77.8371477  29.1758370  17.2601187  78.9439106  29.5312047
 109.7064781  75.3237152  38.5845280 109.4987297  75.2330685  37.6545525
 110.5750561  75.7257462  38.5978365 114.2358303  40.0711060   6.4255404
 113.9052582  40.8661604   6.0073966 114.6949863  40.3836536   7.2051060
  12.3593545  65.0377798  15.6094468  12.7228498  65.0433779  16.4949250
  12.4059689  65.9507465  15.3256285  96.3740158  68.6300516  21.0974336
  95.5525970  68.9230490  21.4919591  96.1833096  67.7499771  20.7728744
  32.6625347  62.9521179  22.2724342  33.3808732  63.5832119  22.2283959
  33.0718493  62.1092844  22.0766759  19.7795177  80.1520443  30.8825660
  20.2948904  80.9319115  31.0885644  19.8625994  80.0537109  29.9340630
  36.2112117 106.6567898  19.4918454  35.4546237 107.1053886  19.1142738
  35.8328390 105.9881306  20.0627851  17.1059895 100.8204842  46.0857582
  17.6271701 100.0652504  45.8133173  16.4973044 100.9653187  45.3613567
  31.8697548 105.6061649  80.3398228  32.5103974 104.9967098  80.7063866
  31.0652804 105.0926590  80.2665997 102.1156788  80.8158684  31.2619638
 102.5757122  80.8759880  30.4247141 101.3646126  81.4013195  31.1651444
  31.4826536  40.7269192  48.6695671  31.0356665  40.5754137  49.5023251
  32.0295763  39.9510288  48.5466719  17.3287141  69.9346972  26.4985561
  17.4421227  69.0805674  26.0816288  17.7817094  70.5465078  25.9182835
  17.4557936  94.6048737  19.7188675  18.3336258  94.7507381  20.0715256
  17.3620796  93.6525440  19.6959293  31.9170594  87.4730682  12.1084940
  32.1198845  86.8295670  11.4295316  31.8704629  88.3073425  11.6415298
  39.5485330  78.8476658  40.5400038  39.6695566  78.2843971  41.3044119
  38.6005688  78.8748074  40.4101706  67.4240160  16.2793326  63.1571913
  67.6554680  15.8203304  63.9646387  68.2503986  16.6494048  62.8467512
   2.5721949  46.0449457  21.4113331   3.4451759  46.4315271  21.3428569
   2.3579173  46.1007357  22.3425722 105.9512234  59.0476608   9.5843011
 105.5947685  58.7953377   8.7325376 105.9336948  60.0046778   9.5772898
  16.7801094  67.7609110  21.5658593  16.7685342  67.5625849  20.6295013
  16.1814487  67.1224070  21.9533443   4.8758399  83.2416821  22.1496487
   3.9513075  83.3039761  22.3896289   5.2767855  82.7502155  22.8665447
  11.1925197  83.3627605  41.0092497  10.4769135  83.8766289  41.3835239
  11.9112825  83.4629536  41.6334105  23.7143135   4.9977022  61.3804579
  24.0449286   5.5570740  62.0833302  23.6870360   5.5686921  60.6126976
 113.6633205 108.9398670  29.1749883 112.9279518 109.2657089  29.6939182
 113.2974243 108.8019180  28.3013058  18.2942152  80.0637913  41.1430693
  18.6268878  79.3926907  41.7390490  17.3843074  80.1922894  41.4109993
 116.1422443  76.8836927  55.3222847 116.1827850  76.6208696  54.4027662
 115.3063297  76.5367699  55.6339169  40.4895639  11.8544662  33.2584739
  40.3862524  12.7778208  33.4886360  40.0180769  11.7597198  32.4308538
  31.9637656  66.0384893  20.9286213  32.5863743  66.7498350  20.7783747
  32.1477652  65.4080629  20.2322435  28.3192992  85.0154018   9.5743167
  28.2496071  84.4332981   8.8176590  27.4953318  84.8944950  10.0462174
   2.2414462  52.6805496  37.8485060   2.3177768  52.8709555  36.9135451
   1.2985799  52.6400900  38.0084991   5.9391320  76.0497856  71.9957066
   6.2236643  75.2106810  71.6335201   6.0705453  75.9601545  72.9395962
  24.1180587 104.7066021  24.6677709  24.6699762 103.9449883  24.4900942
  24.6055675 105.4457378  24.3041277  13.8698578  86.7836285  28.8861251
  14.6153951  86.2384510  28.6347556  14.2543721  87.6363659  29.0891647
 105.2246571   7.8135878  92.2283077 104.9328518   8.2113904  93.0485821
 104.4152451   7.6091236  91.7600346   8.4555405  80.0047112   9.1590762
   8.5075539  79.0710878   8.9544690   7.7394283  80.0719643   9.7906566
  31.7964935  59.6391392  53.4566736  31.6377950  60.1196480  52.6441717
  32.7500606  59.5874786  53.5220385  34.7663426 109.4882011  12.9651403
  34.3712521 110.3595352  12.9347599  35.0496149 109.3221855  12.0660150
 102.5644398  13.5860968  95.4564667 103.4724617  13.4061539  95.2128696
 102.3201275  14.3448138  94.9264812   8.7375993 106.6785145  54.3794107
   8.2045865 105.8906078  54.4858599   8.9135975 106.7234516  53.4396029
 112.8552723  80.5575085  48.7731123 113.1411266  81.4659691  48.6770964
 113.4635258  80.1809788  49.4091129  91.0747814  82.9300594  11.0397553
  90.6530094  82.9062557  10.1808167  90.3704643  82.7350044  11.6579175
  96.9010448  57.4061394  31.7792702  97.4752903  58.1394672  31.5585804
  96.4093781  57.7083349  32.5429296  84.1092682   3.2731768  94.0368176
  84.5268440   3.1897321  94.8940754  83.7908363   2.3924887  93.8387680
 116.6399288  79.2917204   3.5012263 117.0004368  78.7382793   2.8084308
 115.8743286  79.7058105   3.1029534  19.5737100  96.5152168   8.6018378
  20.2905178  96.4003754   9.2257202  19.3838906  95.6305122   8.2895970
  97.5347424   3.8437557  92.4252224  97.2462940   3.0256766  92.0205307
  96.7919159   4.1204882  92.9617596  86.1560249  68.0818272  38.7375546
  86.0485554  67.2762680  38.2318282  87.0227814  68.4051275  38.4917188
   1.8674996  64.5696020  12.4517298   1.2816292  63.8127565  12.4385881
   2.6745364  64.2409182  12.8478229  75.6219673  51.2647438  83.8569355
  75.9935999  52.0093298  84.3299198  76.3087177  51.0038710  83.2433033
  19.1938806  58.5041380  15.0791502  18.3622944  58.0366802  15.1577795
  19.0328526  59.3510246  15.4951835 107.5295544  75.1562071   6.3496059
 106.9941139  75.9314537   6.1807132 106.9152451  74.5134163   6.7041010
 104.4198418  40.4682827  60.8037710 103.5020924  40.6522989  61.0040140
 104.3917465  39.9733090  59.9849653 115.5663204  89.8904610   0.4610945
 116.1800861  89.9344158   1.1942992 116.1237335  89.8241234  -0.3142248
  15.6062579  45.4467869  18.6012125  14.8848844  44.9371433  18.2322729
  16.1567330  44.7989798  19.0411603  19.8248506  96.8899727  20.0716519
  20.0598955  97.5374603  20.7362890  19.0046620  97.2148895  19.7002327
 115.4201889  10.9850037  91.0157776 116.1992168  10.6763697  91.4784813
 114.6969128  10.8005416  91.6150093   6.8090338  36.0755706  51.5015745
   7.2740954  35.2462196  51.6116953   6.4340800  36.2562037  52.3635530
  44.4580460 103.8241100   7.8256893  44.4825411 104.2980194   6.9944030
  44.8920250 104.4083977   8.4473735  48.5975313  98.7743378  39.3265843
  48.0386543  99.4236660  39.7534990  49.1641569  98.4490395  40.0261211
  88.5320377  21.1761045  93.8481522  88.4168816  20.2970552  94.2090416
  87.7541065  21.6556978  94.1328239  13.4535849  58.6301088  56.4298677
  14.1258764  58.8291025  55.7782078  13.6144888  59.2536306  57.1380758
  43.3261871  94.3723583  11.9182944  43.2228756  94.7252560  12.8020501
  43.8275528  95.0403881  11.4507389  43.7596846  76.6873121  92.4747849
  44.6680450  76.7985201  92.7554035  43.7995672  76.0140944  91.7955017
  21.7965651  89.3953037  33.1581426  21.6745377  89.9927711  32.4203277
  20.9908199  89.4770813  33.6683583  25.0227642  94.6191311  41.8325233
  25.9348798  94.8367023  41.6403246  24.5812869  95.4665279  41.8895197
   0.3289210  36.5383816   1.8272443   0.0516020  37.4136806   1.5567403
   0.1570212  36.5128899   2.7685359  49.5010782   0.4538296  26.2394834
  50.3557313   0.2190349  25.8780003  49.3853134  -0.1368954  26.9837046
  11.1853468 111.3698002  53.7732220  10.5756628 112.1012479  53.8707066
  10.7554638 110.6388680  54.2172623  19.0975535  84.3424892  22.5427294
  19.5462835  83.7361717  21.9534445  18.2356536  83.9493752  22.6799297
  31.1439610  86.7901421  32.2602105  30.6262922  86.0179424  32.0322824
  31.8141747  86.8389416  31.5785480  99.4307709  85.1440239  46.8596935
  99.1320705  84.3933678  47.3730326  98.6445522  85.6748009  46.7317629
  12.4772239  83.8153744  37.3117685  12.5505471  83.3054066  36.5050554
  12.3943603  84.7217751  37.0154428  26.3381362  77.3866558  42.5385237
  25.6689692  76.7724133  42.8404331  25.9303951  78.2480431  42.6279306
  35.5542278  69.0833044  13.9736104  35.0705814  69.6520329  13.3745539
  35.3953719  69.4577789  14.8400784 104.1655064  64.6877670  43.6760521
 103.3748531  65.1198626  43.3529615 103.8582516  64.1284180  44.3894672
   7.1774715  80.8936024  27.1294284   8.0746853  81.2236214  27.0811701
   7.2156608  80.0338173  26.7104483 102.6527500  33.1800723  35.6441879
 102.2693253  33.5407567  34.8447371 102.9382038  33.9473391  36.1402202
   4.0870699  96.5249062  30.6130075   4.5725551  95.7926083  30.9928370
   3.4271428  96.1116886  30.0562477  77.4801683  78.5735416   2.6930258
  78.3763456  78.4941101   3.0198109  77.4767208  79.3942356   2.2003973
 117.3518848  89.4194031  21.6359305 116.6126347  88.9356327  22.0043278
 118.0020618  88.7463951  21.4345384  37.2278619   7.1056235  41.9368744
  36.8176961   6.2751752  41.6953135  36.9248223   7.2717124  42.8295183
  46.4740086  55.2451515  25.5972314  46.5659046  56.1806631  25.4166603
  46.3204479  54.8495626  24.7392321 112.6317692  79.4858646  41.5070009
 112.1750641  78.6671638  41.7003393 113.4333134  79.4418764  42.0283699
  52.5432968  93.5433006  42.5790024  53.4536743  93.6013222  42.8689671
  52.5326872  92.8054714  41.9693136  73.4743881  27.0474458  82.9750729
  73.1219625  27.1571064  83.8582516  74.0399265  27.8089547  82.8466034
  19.7594714  80.9488201  21.5783715  20.2163601  80.9625053  22.4193811
  20.2618289  81.5451431  21.0231543  12.5882244  34.5572853  47.3439074
  11.7268181  34.2302918  47.0845079  12.4717033  35.5042362  47.4209547
  39.1471577  63.1461525  10.4112184  38.5072374  62.5282574  10.7646823
  38.6204004  63.7989426   9.9501055  29.7012734  83.5588837  35.2827907
  30.0559211  83.8121414  36.1350322  29.2177033  84.3297768  34.9859333
  51.0559177  61.4655828  18.9693880  50.2266216  61.0212898  19.1457486
  51.5782166  61.3198090  19.7581768   3.2842463  55.3879452   9.9517691
   3.6176527  55.1164055   9.0965855   3.3896989  56.3392925   9.9588925
  88.0604935   5.5574071  73.9460945  88.4971523   5.3219295  73.1274891
  88.1423759   6.5097994  73.9958715  24.1022539  83.7077808  16.2982547
  24.8703837  84.2733860  16.2188923  24.4582534  82.8192425  16.3002372
  91.9385910  64.9221754  11.8307936  91.3228512  64.7688389  12.5474429
  91.5671921  64.4439268  11.0894608 115.6028652  88.9955425  58.7269831
 114.9238968  88.4274292  58.3630180 116.3929749  88.4552097  58.7263584
  31.8422651  83.5354805  11.1592758  31.0630369  83.3072472  10.6523740
  32.1784019  84.3268204  10.7385433 105.4012775  50.8826399  36.4907479
 105.7442188  50.8579540  35.5974317 104.5045757  50.5570984  36.4121485
  24.0996790  98.0227566  34.0726829  23.2505798  98.3691120  33.7982726
  24.0028000  97.8677368  35.0122643  93.6224270  54.9399900  39.5639014
  93.7497997  53.9915752  39.5410824  93.5553074  55.1948500  38.6436987
   8.3662426  71.1520386  90.5555248   8.0929542  70.2494431  90.3916073
   8.2510138  71.5937185  89.7141743  24.4894123  85.1928902  65.9171295
  23.8373327  85.0324249  66.5992403  24.2492890  86.0444164  65.5517912
  45.4150677 102.5732231  90.5105400  44.7543764 101.9711685  90.1681232
  46.1925077 102.0292187  90.6365204  34.0359282  66.5592289  14.1149569
  34.4186831  67.4202204  13.9463496  34.7616363  66.0374069  14.4574165
 116.4845657  89.0955544  45.3412819 116.6848469  89.9919987  45.6105661
 117.1659470  88.8787365  44.7049332  25.6331873  75.6577682  52.4920416
  24.9575639  75.9320831  53.1121397  25.7957315  76.4339924  51.9560480
 111.8247986  79.5855188  25.3076768 112.0011711  80.5242538  25.3701615
 110.9175682  79.5317459  25.0072384  11.2348163  44.2851114  41.8771505
  10.5827975  44.6464062  42.4776268  11.3976502  43.4004641  42.2044373
  77.7868795  12.9712975  93.7612438  77.7850866  13.7456632  93.1985855
  78.1873608  13.2695365  94.5778751  13.9122474  57.8299236   1.0421583
  13.6416852  58.7416315   0.9334788  14.0371585  57.5090647   0.1490293
  26.6082478  60.8416080  25.5068207  26.2379670  61.6954899  25.2831984
  26.5258145  60.3270864  24.7038841  14.7746134  71.2906694  19.5847273
  15.1675892  70.9864950  20.4028225  15.5100191  71.6392469  19.0808392
  24.9298859  95.4650307  52.9672575  24.5162320  94.7689438  52.4567795
  24.5621419  96.2739277  52.6113462  80.6356907  94.5218563   2.8454432
  81.5029240  94.7729683   2.5275332  80.2681828  93.9871407   2.1416998
  27.4267125  71.2152719  17.4907160  27.7342057  71.7228174  16.7396629
  26.8269730  70.5708218  17.1149194  94.1276932  83.2152271  38.2698250
  93.9741135  83.5782623  39.1420913  93.4669018  83.6323738  37.7170300
 112.9563808  91.3304901  93.5193348 113.9019299  91.4389801  93.4173489
 112.7498245  90.5435276  93.0150890   0.9029471   1.0115491  79.8638391
   0.1010310   0.6026982  79.5382500   0.7556426   1.9506542  79.7515202
  28.8691592  79.5209122  55.5531836  29.5300841  79.9232769  54.9897003
  28.2793474  79.0718794  54.9476004  35.4457951  90.1264954  13.1269467
  36.1089778  90.5682278  13.6573148  35.2803040  89.3035793  13.5870063
  66.5276909  77.6557636   3.2114920  65.5716085  77.7006245   3.2001451
  66.7221785  76.7365694   3.3944988  27.5266790  91.6541386  61.2680244
  26.9581223  91.5743637  60.5021191  27.0633864  92.2581196  61.8483686
  71.4694881  11.2745059  44.5454073  72.1979904  11.0748768  43.9574766
  71.8522644  11.2381697  45.4219866  78.1462574  10.1092207  43.7492323
  78.0739260  10.2535892  42.8057528  77.4557400   9.4769716  43.9484215
  27.7935076  63.0022049  37.9228425  28.5395241  62.4715137  37.6434517
  27.1558738  62.9105949  37.2148418 106.4846706  97.0109177  30.1339269
 106.7334080  96.1604881  29.7718096 105.6282234  96.8597507  30.5337715
  19.9442995  45.8925772  42.6806784  19.0774441  45.5172920  42.5258970
  20.0125480  46.6070414  42.0473385  14.1121125  74.1729450  48.8142204
  13.8062751  74.7997046  49.4698620  13.3307743  73.6730003  48.5779905
  29.4666743  12.1717584  18.7167311  29.5062375  13.0337679  19.1309834
  29.7832918  11.5682590  19.3888724  21.1602950 101.3809681  46.3345909
  20.8417892 101.0127735  45.5104399  20.4859829 101.1538029  46.9748545
   2.0090330  54.9217415  22.3593092   2.7957210  55.1300240  22.8632665
   1.8236132  54.0070438  22.5718713  34.4633675  74.3004751  23.4901452
  33.5345721  74.0783119  23.5550714  34.8589349  73.5494041  23.0478191
  21.2192965  82.6037502  29.5718813  21.7660809  82.0822906  30.1595354
  20.6663013  81.9617558  29.1266060   1.6136524  57.0070410   3.8366893
   1.9055642  56.8797588   2.9340160   1.7198332  57.9454565   3.9926854
   3.1669495  88.6729813  77.2419167   3.7687409  89.1069603  77.8466749
   2.3303619  88.6569881  77.7067757 118.2811928  91.6008663  13.6181867
 117.8575516  90.7432938  13.5817182 118.3170509  91.8892765  12.7061737
   4.2216209  71.8500423  41.0629559   4.6349528  72.2915077  41.8049145
   3.4877020  72.4168301  40.8255816  23.3890438  76.2043285  42.7328348
  23.1698823  77.0491743  42.3398542  22.6517844  76.0110712  43.3119154
  35.0340271  81.1971951  35.5846214  35.6086540  81.9325352  35.7974982
  34.7372389  80.8713627  36.4343143  22.1420979  69.2996979  14.8675299
  23.0076432  69.0204620  14.5690513  21.8853879  69.9847889  14.2502928
   7.7067405  68.0781889   1.5264930   7.5183785  68.0305481   0.5892193
   7.2465903  68.8631582   1.8236716  15.0197780  94.5816898  35.4541302
  15.2006686  95.1328373  36.2155437  14.7091138  95.1918221  34.7851992
 115.4518700 110.9485340  30.2009034 116.0090256 111.1050415  29.4384646
 114.9561787 110.1607037  29.9776411  64.5817137  16.6854095  17.9026508
  64.6470833  15.8842289  18.4223318  65.3263235  16.6431236  17.3026454
 112.0013428  54.2283726  29.9527860 112.3212051  53.3290625  29.8809099
 112.6375294  54.7487831  29.4622064 115.8615685  97.3159218  30.8731794
 115.3889084  98.0969143  31.1610603 116.7843914  97.5675869  30.9092116
  11.7089057  85.8415318  18.0251086  12.5759447  85.5321217  17.7629268
  11.3546991  85.1337528  18.5634553  64.9127674  62.1384716  53.7465525
  64.4189739  61.4104557  53.3691978  65.8291674  61.9189024  53.5785294
  28.4605980  69.3993425  19.1074514  28.1001472  70.1165533  18.5859966
  27.7751589  69.1985178  19.7446918  41.1379337  77.8384829  24.2674446
  41.0333395  77.2640753  23.5089278  41.1342096  78.7226200  23.9006710
  99.5137882  79.2943954  62.3898840  99.8332691  78.5662842  61.8569565
  98.6860085  78.9799690  62.7534151   9.2967904  50.6211996  37.0916772
   9.6531355  51.2172318  36.4328933   8.6327261  51.1379385  37.5480008
   9.6447402  34.6804190  28.6999130   9.5960373  33.7770987  28.3870745
  10.4764867  35.0079203  28.3576083   8.7410879  80.6024265   5.0368524
   9.3572700  80.9764862   5.6666356   8.2743585  79.9278450   5.5301440
   6.0829037  93.3032322  20.1243496   6.2416029  93.9427090  20.8186984
   5.8218944  93.8298321  19.3688393  13.1502676  91.2691212  43.4338331
  13.7124527  91.0028267  44.1613436  13.0023038  92.2041702  43.5753012
  68.8311386  17.1646988  19.8698306  68.4194708  17.8343177  19.3235934
  69.6768522  17.5410247  20.1135063   5.5253375 110.3778172  47.2164774
   4.9283916 110.2375412  47.9514647   5.0477260 110.9627438  46.6282797
  95.6559944  11.8068337  37.4112248  96.4957809  11.5486920  37.7911544
  95.7071972  12.7601802  37.3423648  17.3123848  74.7077227  13.6090171
  17.7190721  75.5232334  13.9018989  16.3901222  74.9314165  13.4840119
  70.4151249  64.2766809  83.4891510  70.9775829  65.0472689  83.4112263
  69.7260094  64.4164848  82.8396797 108.8062954   7.2341239  95.0718117
 109.4167233   6.5240610  95.2703476 107.9520321   6.8062723  95.0134182
  19.0400708  76.4682674  52.4732113  19.1492772  77.1830177  53.1004572
  19.6094871  75.7724094  52.8015089  54.6557760  14.8570347   2.1291511
  55.2780485  14.3024647   2.5997475  54.9429893  15.7508981   2.3155650
  38.8477230 101.6902351  63.4634304  39.1153765 101.8748093  64.3637228
  38.0939126 101.1070728  63.5524416  19.8218191 103.4584618  40.8379936
  20.0763249 103.6344528  39.9321842  20.4421163 103.9636993  41.3635397
 108.4548378   6.2527502  21.6931581 108.8894749   6.9233418  22.2200632
 107.7054596   5.9804368  22.2227788  23.5580230  88.7053394  77.2261095
  22.9197931  88.8447189  76.5264893  23.5929203  89.5425701  77.6887655
  22.5218177  90.7882214  35.8837104  23.1444049  91.0229015  36.5718555
  22.4029899  91.5952110  35.3828454 112.5370598 108.4880638  23.6724615
 111.8243599 107.9163647  23.3870912 112.8602982 108.0841255  24.4778061
  36.3715911  77.1813726  22.2574520  36.5595531  77.7770662  21.5321565
  37.0023870  76.4691734  22.1520829  61.5460777  14.5837319  42.3013115
  61.4855433  15.4193652  41.8384027  60.7394552  14.1230166  42.0703793
   6.8110061  65.2583838  21.9845057   7.6057202  65.7210159  21.7187357
   6.3887942  65.8473635  22.6098657  51.5711212 110.1829624  33.1912518
  51.8736124 110.1722527  32.2831678  52.1324635 110.8268738  33.6231136
  30.9593797  56.1264181  94.3452644  30.3804731  56.5355587  93.7020588
  31.7909288  56.0173607  93.8838959  53.1793594  73.3108330  26.1682153
  53.9062595  72.9106379  25.6910491  53.0880404  74.1809177  25.7798290
  21.7382479  73.0908012  40.4861593  20.9265924  73.3620834  40.9149408
  22.2537923  72.6858091  41.1836052  20.7490110  88.8360405  42.0918798
  19.9036121  88.8616848  41.6436863  20.7720566  87.9756355  42.5107002
  29.4893575  85.3769207  42.3405027  29.9201584  86.2305641  42.3846149
  28.9531612  85.3380299  43.1324673  85.0362301  37.8949928  94.4631386
  84.5790863  37.9857445  93.6270714  85.6827927  37.2061872  94.3090630
  14.1930664  96.4112377  30.1745892  13.5416400  96.0183430  29.5936298
  14.7033906  96.9884777  29.6066117  43.4638834   1.4733176  35.7710505
  43.5881138   1.7167352  36.6884089  42.6413298   0.9838723  35.7624006
 107.9516983 103.2313251  35.8341908 108.3445930 104.1012573  35.9055161
 107.6313877 103.0401802  36.7157197   4.3394715 102.9060555  60.2034235
   3.7234661 102.1988773  60.0119543   3.8701797 103.4734344  60.8150387
  49.0539694 109.9704456  91.4030933  49.6216106 109.2579365  91.1092472
  48.8031530 110.4242229  90.5984783  25.2181339  18.6787188  91.0183334
  24.7737169  18.4809661  91.8427181  25.0840497  19.6181989  90.8933067
 100.5960655  84.6343231  54.1098642 100.6537151  83.8437939  53.5732460
  99.9399662  84.4251728  54.7747135  94.5231056  11.8274176  25.3271604
  93.7910175  11.4211583  24.8632288  94.9295521  12.4010789  24.6775913
   1.1258138  94.3423271  35.5974531   2.0198098  94.6012306  35.8209968
   0.8965416  93.6830044  36.2524056  15.5179822  85.7102871  36.7622590
  15.3021634  86.6216660  36.5646362  14.8718023  85.4478741  37.4178672
   5.7491714 110.2007008  14.2056882   5.3495157 109.4269753  14.6029913
   5.0860524 110.8852386  14.2946923  77.8958321  22.8764987  14.0794754
  77.8504753  23.8281512  14.1718471  78.8326597  22.6800752  14.0811646
  34.8033834 109.4496918  35.5661082  34.5016980 108.6548042  35.1263762
  35.6275725 109.1956234  35.9813070  23.4579444 108.0284595  21.0246086
  23.9120007 107.2467613  20.7099533  24.1168714 108.7214756  20.9824061
  44.0183496  90.0526810  40.1277494  43.9149284  90.3134251  39.2125702
  43.9565802  90.8720684  40.6186867  46.2250805  64.4733286  37.5278664
  45.9938478  63.6843491  37.0376873  45.4055691  64.7489214  37.9385781
  23.1050658  97.0796013  16.0089171  23.8524675  96.5312099  16.2474346
  23.1953883  97.2102070  15.0649810  27.9369497  80.1871586  20.3363013
  28.7701845  80.1417637  20.8052254  27.3188782  79.7227335  20.9006882
  60.2105713  77.0355892  26.5592146  60.1688623  77.9561663  26.8181038
  59.8463869  76.5600729  27.3058653  38.4264421  86.4210987  14.0937412
  37.7749920  85.7197952  14.0907502  38.5531950  86.6342068  13.1692135
  11.7978847  94.8800468  29.5834541  10.9680212  95.3471470  29.6803093
  11.5913916  94.1410065  29.0112543  38.9175034  89.6317577  13.7560976
  39.5689273  89.0324879  14.1204476  39.0295696  89.5598412  12.8082049
  26.0809112  57.3330116  34.4039154  25.2968860  56.7958403  34.2899632
  26.2105131  57.7512169  33.5527158  60.8580017 109.2215633  43.5897160
  60.4352236 109.2384338  44.4483232  60.8777046 108.2949162  43.3506107
  36.6547275  44.9418974  49.2431641  36.8954349  45.2794933  48.3804226
  37.3755932  44.3591928  49.4820070 100.9130955  22.8236437  75.1557779
 101.3871670  23.4484172  74.6070099 101.0359001  23.1473470  76.0481739
  16.6167116  86.5764141  13.3795369  17.0610547  86.3472939  12.5632668
  15.8553851  87.0863628  13.1028318  19.7366130  70.2876759  48.4153700
  20.3788233  70.6929588  48.9980745  20.2450776  69.6673346  47.8929996
  28.2619190 105.6747913  28.7641144  28.4584618 105.3257751  27.8947496
  29.1185379 105.8772278  29.1402125  12.9105401  95.5433655  10.0963616
  13.7614834  95.6065178   9.6626121  13.1195331  95.3108788  11.0010731
   7.6249868  55.4719782   5.2740186   7.9224038  54.6278429   4.9345911
   8.1063092  56.1200047   4.7596031  61.2504005  93.3171272  14.1660011
  60.9492683  94.1813850  13.8856220  62.1132040  93.4766102  14.5485890
  22.6959229 101.8144703  17.3870969  21.7832041 101.5279579  17.3540521
  23.0460095 101.4079762  18.1798327  33.1206822  93.7193394  20.5475426
  33.9697361  93.2987118  20.4118776  33.1828904  94.5448971  20.0671124
  35.2155781 104.7957897  36.8756533  35.7478571 104.0405178  37.1255851
  34.8261976 104.5474815  36.0372281  29.8038626  81.0442543  11.2407768
  29.9896383  81.6860962  10.5553901  30.6457543  80.9072208  11.6751432
  50.4753113  72.0611477  41.9540262  49.6252966  72.4439049  41.7367506
  50.2662420  71.1916924  42.2954512 100.8935642  19.2847955  87.1803570
 101.8248177  19.4001639  86.9914436 100.6378651  18.5191858  86.6658688
  59.8321199   1.5197487  53.0340910  59.1240454   1.9267310  53.5333157
  60.5437279   1.4189990  53.6663008 101.8762684  59.7296143  86.9156647
 102.3419094  60.5290365  86.6700363 101.2983513  59.9988317  87.6296520
  19.6757793  60.9112549  19.1699719  19.6228051  60.0350189  18.7883449
  20.6084895  61.1254168  19.1495180  63.3116341  20.4701352  15.8284926
  64.0796661  20.8729148  16.2336206  63.4022284  20.6661463  14.8959684
  30.6418300 105.0521278  24.6119094  31.0245991 105.9130669  24.7807074
  30.3797078 105.0827694  23.6918092  45.5336905  92.8145313  62.7687407
  45.4185534  93.6164474  63.2785559  44.7118235  92.7162743  62.2879934
  29.5393848 100.0399399  18.3648980  29.5622325  99.8152351  17.4347270
  30.2859759  99.5746040  18.7421203  24.1119981  88.0197906  32.3755479
  23.3724999  88.4750843  32.7781343  23.7086225  87.3655891  31.8049836
  37.8704178 110.7046047  29.9816608  37.3022663 110.7721826  30.7490373
  38.2172024 109.8131787  30.0181556  46.0564232   1.9786452  14.1320825
  46.6075802   1.5660469  14.7970796  46.6415119   2.5859261  13.6791885
   4.9310490  71.5429449  24.3592238   5.7757407  71.7211580  23.9457417
   4.7800964  72.2963476  24.9300361 109.1518688  51.4206171  94.3977833
 108.5834694  52.0124722  93.9049721 108.5485554  50.8385563  94.8597908
  18.8048339 103.5152626  15.0674498  18.8620269 104.3856335  14.6732020
  19.6380854 103.0980301  14.8487282  29.1178703  78.4868670  34.4708848
  28.9776659  79.3832207  34.7760415  29.9669766  78.5140562  34.0298510
  62.9783821  87.8297901  42.0541430  62.5306606  87.2952271  41.3983870
  62.2787714  88.1380749  42.6301098  94.7324968 111.2225685  16.1119020
  94.4467211 112.0756554  16.4387143  95.5362666 111.0370630  16.5974677
  15.5989313 101.1788082  48.3846617  15.1973355 100.3249741  48.5456181
  16.1776197 101.0340214  47.6360703  53.6748552   3.7728989  11.1639583
  54.2746544   3.3388358  10.5572724  54.2469454   4.2085320  11.7957580
  32.2066522 110.9258080  23.8707519  31.3398790 111.2054443  24.1652632
  32.7297306 111.7274475  23.8706231  52.2065163 101.7636013  19.2501998
  52.6536322 100.9184742  19.2047119  51.3859606 101.5762234  19.7060609
  46.7648745 110.4948711  19.0243125  47.4011278 109.8580265  19.3496549
  45.9384632 110.2382565  19.4334984  25.5578303  70.4236937  50.5817127
  25.7325506  71.3611221  50.6650162  24.7137237  70.3763437  50.1328564
  35.3899527 100.1529121  37.4790120  36.1314249 100.3026104  38.0655622
  34.6785879  99.8781300  38.0575323  70.4555941  41.4925575  93.2779980
  70.4402685  40.5362320  93.3159256  71.3039112  41.7032242  92.8878593
  45.6540203  20.5771422  32.7683330  45.4800653  20.4675245  31.8334770
  46.5165472  20.9906149  32.8045917  64.2529821  12.5653648  23.8919687
  63.5673904  12.7957320  24.5189691  64.9723625  13.1639493  24.0930033
  42.0436096  77.2485781  26.7261744  42.7263403  76.6172504  26.4991713
  41.6428375  77.4796247  25.8881831  27.5762153 107.2704983  36.3778424
  27.2358584 106.3803387  36.4673615  27.2523975 107.5662994  35.5270362
   9.9470598  88.3352566  50.7499456  10.6232691  87.6863670  50.5552006
  10.3649163  89.1776752  50.5711842 117.8835678 101.3614655  11.8933451
 117.1791363 102.0093060  11.8756914 118.0480194 101.1612892  10.9718704
   5.5438173  87.5472546  18.1491899   5.8961481  88.3067036  17.6851439
   6.0269105  87.5260162  18.9752662  49.3174171  71.5645123   3.9855123
  48.6412716  72.2324991   3.8721350  48.9268637  70.9275198   4.5837939
   0.3627179  87.7940655  13.6821198   0.7872200  87.4179554  14.4532025
  -0.5577575  87.8761196  13.9315665  26.2081146  82.7234745  68.6532831
  25.5667329  82.0200253  68.5531759  26.9401336  82.4614048  68.0949831
  24.7500110 109.1513920  27.1389055  24.1186357 109.8592854  27.2672844
  24.8630738 108.7704372  28.0097246  39.1112518  84.1017342  36.1811066
  39.9356723  83.6494732  36.0021734  39.3607140  85.0190353  36.2931895
  22.2411609  89.8756886  22.2692728  22.6225567  90.5949879  21.7659140
  21.2992024  90.0450516  22.2530365  19.0345728  97.3420429  39.7663116
  18.1727958  97.1235466  40.1210403  18.9792049  97.1062374  38.8402629
   4.4309431  59.8878622  17.2392333   4.7760105  60.2607059  18.0504954
   4.7259101  60.4887486  16.5550113  13.2110238 111.4422989  55.7566023
  13.6534977 110.6700802  55.4042816  12.6010144 111.7042637  55.0670433
  15.0765157  59.9325228   5.5216551  15.1207995  60.5369997   4.7807911
  14.8457825  59.0901423   5.1300091  55.1353455   0.7661710  47.4316311
  54.4807768   1.2595764  47.9259205  54.9752235  -0.1475088  47.6678133
  63.3974600  86.4330673  44.6732378  62.6447201  87.0028877  44.5153809
  63.8159037  86.3462162  43.8167381  34.4197989  96.5909672  53.6046886
  33.5820365  96.7077446  54.0527391  34.9912953  97.2562027  53.9881945
  32.2043705  89.9376011  10.6567228  31.7489719  89.6566582   9.8630500
  33.0697870  90.2107716  10.3523231  48.0699873   9.1573948  47.1577644
  47.1501493   9.0014374  46.9437361  48.1169367   9.0471983  48.1074429
  96.1074734  98.2607651  34.3955922  96.3244534  98.3271503  33.4656763
  96.5488625  97.4634075  34.6882033  31.0964561  91.6755199  43.2512569
  31.9605732  91.2736225  43.3407688  31.1606121  92.4936581  43.7439632
  12.5740957  76.7459249  33.6562014  12.4555469  75.8757353  34.0369201
  12.9447484  77.2696638  34.3665147 111.6060257 110.3092194  31.6054797
 111.1107254 110.1414490  32.4072027 111.0475540 109.9736214  30.9042621
 115.4240131  75.0542927  26.2709212 116.1615086  75.5912542  25.9810853
 114.8263168  75.6740141  26.6891813   5.4417574  99.1812992  29.8615789
   4.8127836  98.4901333  30.0687575   5.6528258  99.0440941  28.9380741
 105.1672745  57.3527193  96.2514400 105.5224419  57.4274635  95.3657150
 105.1168633  56.4101791  96.4105320  46.8198442  79.6873760  42.1343565
  47.5760603  80.2727413  42.0929480  47.1773005  78.8203764  41.9426107
   1.0409050  97.4245548  45.3335142   1.3591638  97.8000546  44.5125771
   1.7094399  96.7852020  45.5795145 113.9562511  98.7845325  18.1028330
 114.2216587  97.9854584  17.6475739 114.4009113  98.7369633  18.9491439
 111.6305351  82.3311424  25.6807852 111.9717789  83.2089329  25.8518314
 111.3655376  82.3521614  24.7612357  37.8587842  68.5418272  38.0437899
  37.7746844  68.1579828  38.9166141  37.1138477  68.1915569  37.5553083
  54.5716619  12.0644557  36.5509319  54.3901014  11.4937711  37.2976494
  54.0299034  12.8386307  36.7038512  42.8559732   4.1307229  65.1740122
  42.4596262   4.6999770  65.8336258  43.7824202   4.3714002  65.1754236
  54.7094870  74.7002363  22.0302558  55.5132866  74.4378138  22.4788857
  55.0089407  75.2384329  21.2975168 102.4716663  58.8321066  95.7449150
 102.1632957  59.7382402  95.7364273 103.2588863  58.8418961  95.2004814
  54.2196798  71.8681335  38.6257648  54.2011309  71.7600775  39.5766640
  54.9788761  71.3590956  38.3416319  67.6426411  81.6448689  28.2130861
  68.4607220  81.9926739  27.8580999  67.9190731  80.9961700  28.8603902
  90.1436329   5.4259139  22.6803064  89.5983505   6.0184318  23.1978154
  89.7872448   4.5555481  22.8582931  16.5804088  59.8951674  44.6066856
  17.3406076  59.9174500  45.1879168  16.7920923  59.2207623  43.9612389
  12.5965691  91.1381054  33.4207034  12.6925743  91.7204857  32.6671529
  11.6508830  91.0272312  33.5187745 103.1892586  57.2674656  86.9010735
 103.9553261  57.6835155  86.5057564 102.6004219  57.9941225  87.1047020
  33.1822538  67.9490852  47.1097612  33.7309408  68.6721802  47.4135780
  32.4052191  68.3741617  46.7467690  27.0645022 104.6581650  56.5241337
  26.5555501 103.8625431  56.6796780  26.7883897 105.2583599  57.2167826
  40.2316046 103.2930660   9.1263485  39.3023825 103.2791424   9.3556631
  40.4998398 102.3747540   9.1577715  84.3453407  40.6316853  95.3210163
  84.7755718  39.7841859  95.2075195  83.8999081  40.5629921  96.1654663
  32.3416448   9.0772980  61.4936924  33.2746291   8.8722318  61.5546703
  31.9820476   8.8108343  62.3398113   9.2147255  87.2215939   6.3635623
   9.1925198  86.2673855   6.4358413   8.6023968  87.5268078   7.0329839
  27.3587418  93.7852955  27.4099779  26.8060279  93.7463570  26.6294503
  27.4361825  94.7197914  27.6022434  15.9221745 108.4267998  34.7233987
  15.5901313 108.2868958  35.6101918  16.8740487 108.4400082  34.8233652
 109.7721863  52.9610777  15.7846761 109.2099190  53.7281895  15.6769025
 110.1649380  53.0717421  16.6505456  28.9988756 106.1007500  51.4121819
  28.3654547 105.9804535  50.7046986  29.0998983 105.2288437  51.7940378
  34.2981195  55.3829002   1.0165946  33.7518525  54.5978832   0.9770392
  34.0918374  55.7757568   1.8647370  63.2330418 105.1243687  -0.1784191
  63.2938194 104.9908447   0.7674710  62.3831654 105.5456543  -0.3067126
  45.2610779  83.6906433  45.5210829  44.9926472  84.5397091  45.1700068
  45.6048155  83.2162857  44.7640753  30.7289910  64.9936247  41.5825796
  29.7910404  64.9726915  41.7724276  31.1454701  64.7320366  42.4037695
 104.5205879  78.1418371  31.9171596 105.0100327  78.4469318  32.6810980
 103.6609840  77.9023027  32.2634554  40.2344465  91.7153549  37.1185327
  40.4294014  92.6413631  37.2625256  40.4207516  91.2977886  37.9594612
  42.2243023  61.2824392  36.0825682  41.7847252  62.1149063  35.9093785
  41.6687870  60.8484125  36.7300701  59.6668959   3.0630061  38.3532500
  59.6146059   3.2462519  39.2912889  58.7665987   2.8616673  38.0979896
  99.0695572  13.5795522  76.2602377  99.6530724  12.9665351  76.7074060
  98.2555199  13.5451376  76.7626095  19.6165037  77.0463324  58.5705376
  19.5307732  77.9280615  58.2079935  18.8586462  76.5720367  58.2285929
  90.7966423   9.9550265  25.5647564  91.5302563  10.3356338  25.0818658
  90.0402832  10.4810548  25.3050590 109.9423218  78.6980009  18.5514200
 109.8975277  78.1183243  19.3118143 109.7194576  79.5627642  18.8960266
  75.5885172  15.1433337   4.2421928  75.1805162  14.2811549   4.3222973
  75.0763273  15.7056141   4.8233438  73.8936377  21.8841052  13.8435936
  74.2694235  22.1143222  12.9938793  73.7595224  22.7244830  14.2817807
  17.7782655  62.6218081  40.4020309  17.9201448  63.2510805  41.1092234
  18.6075258  62.6075459  39.9241662  30.3499985  68.0913782  11.0049486
  30.5562782  68.5796881  10.2079344  30.4505992  68.7306118  11.7102790
 112.4582005  97.6502609  21.7187333 112.3444080  98.0114651  22.5978279
 112.2874832  98.3876991  21.1328363  90.5391598  34.0393734  83.8434410
  89.9439430  34.7738433  83.6934280  90.0094986  33.3934498  84.3108463
  49.9759912   3.8977170  39.2253590  50.0508261   4.1051808  38.2939124
  49.6007442   3.0173624  39.2452598  56.0391951  76.8933535  36.5113616
  56.0387087  77.1236229  37.4404526  55.9422731  75.9411335  36.5005565
  88.8026142   2.3768543  40.5250406  88.0255222   2.2947992  41.0778856
  89.4935226   2.6606777  41.1236334  59.1645670   8.5211742  42.0170355
  59.7407961   9.1649199  41.6049862  58.3951235   9.0243453  42.2835064
  48.6293554  24.3875694  16.7093444  48.5573578  23.9854765  17.5750065
  48.9983463  25.2545547  16.8779016  58.1966257  12.9207397  14.6825886
  58.7198830  13.6054456  15.0992572  57.3916054  13.3640230  14.4148791
  50.9450150  90.4715252  25.2188492  50.2135658  90.1253128  25.7300782
  51.7158318  90.3074074  25.7621145  18.9651346  11.7840171  15.3311706
  19.4480336  12.5246644  15.6978869  19.1317236  11.0644174  15.9399867
  24.2911506  64.0522146   8.6194193  23.6737776  63.6729956   9.2449385
  24.0901399  64.9880695   8.6218727  10.5776417 101.2173271   1.6099711
  10.1348698 102.0305824   1.3675019  10.4285610 101.1350918   2.5519073
  82.7931690   1.1622124  35.4999924  83.4600735   0.5136880  35.2744269
  83.0954552   1.5391845  36.3262796  80.9576702  81.4803696  17.2746301
  80.3799057  81.8668175  17.9327190  80.5869579  81.7589092  16.4372361
  49.3274832  97.5795364  26.2140012  49.4249487  96.6497803  26.4196634
  49.9579668  97.7367401  25.5111456  54.8340225  86.5270233  64.3660593
  54.9607372  86.8573570  63.4766436  55.4187727  87.0597935  64.9050045
  72.2154188  20.5771112  11.3537300  72.1797276  21.3690948  10.8173347
  71.7380667  20.8062029  12.1511531  27.1511722  80.9487247  11.5466726
  26.7468452  81.1132145  10.6947958  28.0907989  81.0370255  11.3868725
  63.5118389 105.1573086   2.3824885  64.4454765 105.2880859   2.2168335
  63.4780693 104.7284698   3.2375854   1.4127164  72.4657297  34.6056032
   1.8515369  73.2618713  34.9053216   2.1095988  71.8111944  34.5590043
   3.0420253  88.3954334   5.7237422   3.8863045  88.2074451   5.3137583
   3.0524820  87.8896904   6.5363592  32.7179503   2.5484660  25.7952642
  32.9807639   1.8915033  26.4399028  32.1364570   2.0784089  25.1976490
 103.3473396   1.7226809  30.7268906 103.0426788   2.3481151  30.0694370
 102.9608727   0.8883197  30.4609609  35.7041574  58.7680626  21.1327434
  35.9922624  59.6311378  21.4299345  36.4869642  58.3734751  20.7483649
  97.9421329  13.0954504  14.4040203  98.4137917  13.1302524  13.5718203
  97.5121021  12.2402918  14.4000232  59.3502140  25.0953627   8.4799081
  59.1444206  25.8669090   7.9520845  59.3379402  24.3687510   7.8569186
  77.2092772  30.8048749  25.5874920  77.7427149  30.5908084  26.3528991
  76.4283419  31.2237096  25.9493637  88.0979061  18.2693684  21.5860510
  87.1427059  18.2535374  21.5263629  88.2937431  17.8249502  22.4109006
 115.1652431 102.4401188  28.5711193 115.7168961 102.4574089  27.7890635
 115.7705975 102.6013756  29.2948461  13.7053752  80.9178448  10.6660593
  14.5406199  81.1997032  10.2930248  13.4501696  81.6326427  11.2493038
  50.7531929  11.6294956  15.1068258  50.7254696  12.5091803  14.7305036
  50.2911043  11.7112184  15.9411097  59.3519402  83.4545803   2.3940654
  59.7401047  83.4126091   3.2680210  60.0862694  83.6600018   1.8154536
 102.7538490 107.7081776  43.5065937 102.3336887 108.4951019  43.1595564
 103.4428883 108.0388832  44.0828705  90.3538513   5.0981057   3.9558673
  90.7252979   5.9669328   4.1088232  90.7152081   4.8283848   3.1115311
  79.3458414  30.7353687  17.7149880  80.2389050  30.9787297  17.4711585
  79.4457531  30.2429843  18.5297322  98.2892132 107.5410175  15.8300400
  98.9472580 108.1250286  16.2070584  97.9213428 107.0773220  16.5822983
  80.4519272  20.7362628  25.7287192  80.5526447  21.5805292  26.1683822
  79.5601511  20.7520390  25.3812671  69.5496130   7.0468885   1.8423943
  69.3805408   7.5942206   1.0755350  68.7121868   7.0176059   2.3050888
 113.6033440  83.0645561  35.5246568 114.3531513  83.4181595  35.0461435
 113.4461880  83.6975574  36.2252641  50.3648233  15.1970887  53.5850334
  49.7346497  15.6245947  54.1649961  50.8737707  15.9169149  53.2121372
  44.5507765  80.9792233  30.6938958  43.8517332  81.0707664  31.3413405
  44.6948719  81.8682289  30.3696656   9.8439181  82.6375389  30.7798171
  10.4115915  81.8975830  30.9953213   9.0721154  82.2383404  30.3783321
   3.2339060  71.6562939  82.0223618   2.6417470  72.1338224  81.4413834
   2.6583833  71.2538624  82.6727962  50.9041691  84.8111916  12.2000599
  51.0016537  84.9395752  13.1435871  51.4105749  84.0209103  12.0122933
  92.1256542  25.0958228  93.3745575  91.6790962  24.2531157  93.4561539
  91.8712234  25.4190207  92.5102425  33.7216759 100.3596020  14.7819352
  33.3257174  99.6058559  14.3445432  34.0357852 100.0139141  15.6174421
  53.5822773  73.5407400  16.2448728  53.1770802  73.2112360  15.4427052
  53.2723093  74.4435358  16.3164079  44.2899466 108.2046127   3.5897002
  43.4869051 107.7058601   3.4393638  44.0099382 109.1198063   3.5741791
  38.7012911  87.8197193  16.3073814  38.5890388  87.3669910  15.4715180
  39.3911791  88.4620857  16.1410880  55.6631613  15.3371572  23.6685014
  55.1380777  15.4253936  24.4639492  55.0626945  14.9595189  23.0258036
  75.8889580   4.7237322  36.0583925  75.2215481   4.5153302  35.4046607
  75.5254173   4.4012153  36.8830466   7.0931572  88.4482002   7.7721173
   6.3969636  88.5207653   8.4250182   6.8158555  87.7284431   7.2052908
  22.5470495 109.4218445  37.2829270  22.5683880 110.1222038  37.9350615
  23.4152174 109.4429016  36.8803477  14.7358716   3.0656120  20.3822684
  14.2986786   3.8990048  20.2074814  14.1509378   2.6107541  20.9882307
  83.0571556  12.1512556  53.5744953  82.1444607  12.0496166  53.3044910
  83.0221176  12.1816707  54.5305681  81.6588497   0.2717458  22.2312880
  81.1015892   0.9313723  21.8182755  81.6792393   0.5200813  23.1554890
 113.1866741 106.4621544  38.8320732 113.4173775 105.6064510  38.4704423
 112.5924206 106.8430901  38.1855488  40.6879520 103.3635426  53.6939526
  40.9784174 103.3451080  54.6058273  40.3334379 102.4882412  53.5377598
 107.1729183  27.7714682  86.4622974 106.5114784  27.1050215  86.2763309
 107.0786667  28.4069967  85.7527542  11.1659992  71.5558863  23.8227367
  12.1173143  71.5894699  23.7222171  10.8714581  70.9744740  23.1217122
  33.7086749 108.2077503  49.0046692  34.0275097 107.3243999  49.1897821
  32.7922916 108.1944180  49.2808867  68.8817120   7.9036587  20.9348655
  68.4012222   8.7201917  21.0713887  68.4852695   7.5204223  20.1524353
  58.7769413  27.5609946  55.8357048  59.6670771  27.8936958  55.7207823
  58.4665871  27.3947883  54.9456024  56.2861347  82.5217819  37.8044844
  56.6290903  82.2619057  36.9494557  56.5112448  81.7940521  38.3841038
  32.1279001  85.6252766   3.8063523  31.8315077  86.2553215   4.4631904
  31.3442278  85.4272461   3.2936430  30.9939575 108.0000877  49.4196272
  30.9134912 108.0559158  48.4674501  30.0934076 108.0533791  49.7396278
  56.7593431  16.0213876  75.3243208  56.8868732  15.9892511  76.2724400
  56.4157343  15.1567554  75.0994253  52.7658415  93.1745052   8.8774770
  53.4040308  93.8878155   8.8654697  52.3476124  93.2128048   8.0173331
  47.6023149   5.6901598  35.5589414  47.7982712   4.7534117  35.5772734
  46.6502905   5.7374597  35.6463695  66.2961388  82.2629166  17.9529488
  65.6417131  82.9277420  18.1673634  66.6490269  82.5383186  17.1068645
  58.1893349   4.3225589  10.2971900  58.9695501   4.8769689  10.3082168
  57.4998188   4.8863640   9.9465883  60.3282213 100.6946850  38.9071393
  60.4194736 100.7571507  39.8579311  61.0428429 101.2300396  38.5622573
  74.8852122   7.7932742   0.4134340  73.9749682   7.8311589   0.7071084
  74.8277723   7.5781158  -0.5175047  27.7321696  99.5088863  72.8073120
  27.5254965 100.3669262  72.4367857  27.9306197  99.6865177  73.7267113
  82.9422188   0.5057451  38.6314011  82.1206379   0.6714448  39.0937614
  83.3639431   1.3633507  38.5775685  89.5949841  92.6696205  28.3618808
  90.0353336  91.9925213  28.8755536  89.2429924  93.2746315  29.0147972
  31.5460038 106.5422153  38.0295229  30.7624841 106.8473816  38.4869123
  31.2100625 106.0735321  37.2655082  33.5217428   0.9658594  27.9986215
  33.7140322   1.7151138  28.5624242  32.8542566   0.4724625  28.4753323
  29.2734456  87.4395466  28.5322261  29.4036245  88.2790565  28.9732599
  29.6496773  87.5657368  27.6611590  56.7286825  88.0998611  27.4452162
  57.4039030  88.7771797  27.4058580  56.0360956  88.4181786  26.8662238
  43.9317083  64.8055172  13.6576355  43.2251596  65.4067421  13.4219384
  43.5857201  63.9370251  13.4520924  80.3938234   0.1398037   1.2276100
  79.8114336   0.8280228   1.5491700  81.1010444   0.1042316   1.8716624
  49.2401266   3.1464460  36.3143039  48.4063625   3.0623803  36.7769074
  49.3859768   2.2842789  35.9249091  56.3176823  12.6262546  53.0080986
  56.5487051  13.4063625  52.5038242  55.4016399  12.7607012  53.2510567
  57.9877853 104.0414429  38.7725544  57.3073578 104.6835232  38.9750171
  58.6453342 104.1653824  39.4570255  34.3552947  83.0369091  12.2065604
  33.5189605  82.8794956  11.7683864  35.0086951  82.6573372  11.6190016
  38.9601159  73.6860847  48.1857204  38.9971757  73.2712078  47.3238993
  38.5542178  73.0286646  48.7507677  59.8866177  81.7162704  21.3731050
  59.7330904  80.9544277  20.8143115  60.8363199  81.7398548  21.4903021
  53.6926556  78.7027979   2.3246647  53.5068178  79.0439367   3.1994915
  53.6448669  77.7518892   2.4232528  77.8962040   4.5711833  10.3046608
  77.8064823   3.7898809   9.7589970  77.3430204   5.2258193   9.8784328
   3.9783308 110.1977444  49.1231298   4.0054303 110.6122494  49.9854994
   3.2040924 109.6356392  49.1517973  10.9486449 103.5446644  27.3321033
  10.3537858 104.0454483  26.7738986  10.8502936 102.6397991  27.0358396
  29.8859072   5.8687818  37.9994011  29.1457891   6.2521172  37.5287509
  29.8580313   6.2784785  38.8640428  22.8260159 104.3338966  28.6086154
  22.5002027 103.9752865  29.4341326  23.5184383 103.7293625  28.3415651
   0.1942812  12.0467401  12.0264697  -0.3603376  11.5066063  12.5893891
   0.7416426  12.5432134  12.6348662  97.7374649  31.3332272   6.6488504
  97.0470047  31.1546230   6.0104251  97.5673294  30.7196999   7.3636007
  14.3899465  37.8359222  82.3333263  14.7830939  38.5008025  82.8986645
  13.7636375  38.3194637  81.7946720   0.4451513  47.8558588  81.3359833
   0.5211688  48.8045406  81.2337494   0.1262790  47.5483084  80.4874706
  54.2065525 108.8393497  95.4003239  53.6178350 109.1504765  96.0879612
  53.7672901 108.0693531  95.0392342  18.5152411  44.1967154  32.1421289
  19.0525413  44.0221930  32.9148412  17.6372099  44.3508101  32.4907684
  33.3631921  33.2306409   7.9112512  34.3087840  33.3609676   7.8398204
  33.0125237  33.5628700   7.0848817   5.7468849  74.1956043  11.5540183
   5.1634717  73.4605074  11.7424154   6.5681285  73.9673185  11.9895363
   5.1888263  11.5530801   1.8335880   4.8112875  12.3503125   1.4619476
   5.6001455  11.1134064   1.0894541  39.9400616  62.4611044  29.2416143
  39.3243051  62.9282904  28.6769772  39.7286558  62.7604628  30.1258802
  16.5952253  63.8759375  29.6550679  16.9099545  63.1691504  29.0914822
  17.1656621  64.6170187  29.4510293  23.9188552  72.1435642  37.2575045
  23.0160952  72.2710228  36.9659400  24.4381046  72.7044296  36.6812754
 111.2275314 106.2234306  29.8749614 110.4220676 105.7093430  29.9312615
 111.9297886 105.5768013  29.9452138 115.1132011  76.3424158   9.9139345
 115.9874439  76.1489630   9.5755261 115.1483822  76.0782385  10.8332860
  16.8446779  65.6903982  56.1083508  16.6316962  66.5999365  56.3171816
  17.8013527  65.6601715  56.1178637  98.1643391   5.6873369  84.4117355
  98.6213589   5.2058035  83.7221813  97.4190712   6.0919112  83.9677429
 114.8370361  63.3433008  10.9898281 114.4937515  63.8127756  10.2295780
 115.5103588  63.9232731  11.3455069   3.1946811  29.9074435  95.2280998
   2.9532212  29.2181635  95.8468246   3.6128905  30.5781651  95.7679653
   2.1827388  85.1787853  42.6504707   2.9978240  84.8520947  43.0314493
   1.5524930  84.4722366  42.7912188  32.3213124 108.3746243  94.7812080
  32.6796055 108.9269066  95.4760647  32.8687739 107.5895214  94.7929859
  71.4305925  12.4406803  79.2329073  70.6917906  12.8435433  78.7767172
  72.0235014  12.1666086  78.5332108 104.3143845  88.3773613  25.2421522
 104.2726994  87.4211311  25.2528071 103.6090946  88.6543846  25.8270121
   3.5848466  72.3224401  11.9907510   2.9450923  72.1121311  12.6709819
   3.0765775  72.7693415  11.3138652  14.7887671  56.0954809  11.1472714
  14.1802108  56.7934990  11.3894773  15.1000714  56.3407755  10.2759778
 110.8547020  90.2163696  25.8082128 110.7853985  91.1710453  25.8129263
 110.0567150  89.9161434  26.2433028  12.3838174  20.9134936  29.4239473
  12.6294053  21.3195562  30.2552295  11.8273246  20.1755834  29.6730161
  19.6851325  61.1656857  21.9240475  19.6712303  61.2503529  20.9706998
  19.5137143  60.2377462  22.0846128 102.7259350   1.7120261  89.2772675
 101.8472099   1.3333967  89.3038654 102.6227760   2.5837693  89.6589088
   5.1688635  44.4134238   0.0049371   5.5071890  44.4728378   0.8983869
   4.2229235  44.5255092   0.0990838   3.7900993  75.5992651  23.8703251
   4.5599025  75.3615332  23.3534908   4.0489161  76.3963890  24.3327522
 111.9207096  10.6925774  22.4910641 111.9843864  10.7481527  23.4445262
 112.7435398  11.0649121  22.1739602  32.5178337  76.6645861  14.8535705
  33.3570194  76.5588903  14.4054282  32.2266078  77.5439405  14.6124172
  44.1631031  96.2519836  53.7593412  43.2389402  96.4845562  53.6695671
  44.6324492  96.9624901  53.3221674  73.5376453  93.7739277  71.1106348
  72.6603365  93.6249447  71.4632940  73.9807034  94.2928314  71.7819500
 109.1654682  54.7474527  28.9849067 110.0585747  54.5088673  29.2332196
 109.1884327  54.7999096  28.0294228  28.8463926  53.8267088  88.2708931
  28.2373357  53.1008244  88.1353569  29.3370962  53.8839054  87.4510384
 100.9699154  24.0387082  87.6719856 101.7746544  24.5253301  87.8504181
 100.5823803  23.8920689  88.5348606  18.0674624  79.9161482   8.2569295
  17.7779031  80.0309753   7.3518318  18.9980745  79.7037840   8.1855655
 100.8002567  49.3549967  28.5549450 100.8209515  50.1606369  28.0384660
 101.6986275  49.2476797  28.8674331  77.4117565  36.1829901  86.9238567
  76.9065237  36.8236923  87.4243355  78.3133936  36.5012288  86.9685650
 114.7629166  24.7251344  92.7592087 114.2827320  23.9483285  92.4724483
 115.6110477  24.6579123  92.3205853 115.3723907  41.2676334  20.1104450
 115.0827789  42.0920467  20.5012178 114.6929073  40.6373739  20.3498268
  65.6361961   5.1050711  11.3373029  65.0410652   5.1146913  12.0869422
  65.8963299   4.1880661  11.2497592  31.9624901  70.0096941  12.4514246
  31.8620515  69.2857647  13.0695415  32.9061222  70.1667261  12.4177682
 111.7711067  54.4258118   3.9127591 111.4631557  53.5477972   3.6880806
 112.3456001  54.2924976   4.6666959  27.9911757  75.9346867   7.9209822
  27.1866941  76.4423180   7.8144276  27.7670670  75.0607681   7.6011890
  19.6505356  48.6331844  10.4248881  18.9948046  49.1781235   9.9898165
  19.4618893  47.7445841  10.1231611  12.6232219  77.5270844  25.4698133
  12.0721579  76.7466259  25.4111147  13.5073340  77.1863556  25.6057715
  46.9474697  90.7474041  42.4623346  47.7939892  91.0578156  42.1409607
  47.1384335  90.3827477  43.3265066  43.6071444  15.1256561  94.5177555
  44.2855406  15.4785311  93.9420033  42.8149080  15.6057584  94.2767239
 103.9629459  78.8797092   3.1318223 104.6683121  78.2330799   3.1556895
 103.2205486  78.4103870   2.7512825 118.1251672  75.8321524  19.9467099
 117.2992153  75.3642797  19.8237157 118.7697416  75.1425457  20.1054478
   3.2033339  58.4514570  14.8045111   3.9017290  57.8455496  14.5568180
   3.4678870  58.7841702  15.6621504  52.6153755  72.7250338  36.5703106
  52.0098925  71.9919586  36.4597487  53.0979633  72.5184584  37.3707294
   3.7804037  44.6606159   6.8403333   4.5025527  44.9612665   7.3920047
   4.2078394  44.2694807   6.0783988 113.2262135  68.7884998  25.0951862
 114.1266537  68.4904337  25.2240133 113.2928944  69.7426128  25.0570583
 118.4707710  33.4924722  21.0168982 118.2757711  34.3733215  21.3367558
 117.8074498  32.9367709  21.4260864  46.3694859  75.9976530  36.7499208
  45.5413961  76.4752436  36.7008924  46.5323496  75.8962727  37.6876998
  37.0791125  66.4829445  20.8285522  37.8829646  66.9554472  21.0448742
  36.5117025  67.1443510  20.4325485 104.5605659  54.9408960  20.9757638
 105.2947521  55.2644539  21.4977884 104.1901875  55.7253838  20.5712557
  41.0763884  70.3558683  42.0090675  41.3471222  69.8780537  41.2250805
  40.1232052  70.4093647  41.9397259  65.6946230  17.3818672   4.7042266
  65.8582163  17.4701798   5.6431991  65.6920671  16.4372838   4.5493501
 107.4670601  65.3039026   9.4020188 107.4807739  64.4892693   8.8996053
 108.1907749  65.8181667   9.0442312  57.6488590  54.1619539   7.5993401
  58.3826542  53.5789061   7.4048245  56.9499493  53.8709641   7.0136118
 105.7171059  69.1920042   1.7430924 106.2855148  69.6844530   2.3352349
 106.1926365  68.3782148   1.5762274   5.0359493  31.9142008  38.2502913
   4.1253540  32.1266818  38.0455947   5.4149467  31.6514063  37.4115229
  47.3046112  57.5046396  24.2317533  46.7504978  58.0052233  23.6329126
  48.0993414  57.3252869  23.7292981  91.9875336  44.8664999   5.0494218
  91.3214302  44.3455935   5.4979682  92.7965164  44.6836138   5.5272657
   4.6738929  67.9452181  28.2767153   4.1983458  67.2159958  28.6746192
   5.5888325  67.6639462  28.2785439  26.1708117  59.4708729  11.7015290
  26.3893509  59.2360830  10.7996726  26.6935873  58.8746262  12.2376490
   3.3287850  39.1546822  12.4136055   2.5419909  38.6160326  12.3296785
   3.9244226  38.8142705  11.7460966  47.5592184  10.2639258  80.0533009
  46.7551661  10.3001702  79.5352077  47.7146149   9.3292594  80.1892567
  37.4139357  66.5421391   7.8072983  37.7076316  65.6595230   8.0330563
  38.1432986  67.1088457   8.0585057  11.9377875  78.4784365  29.3670464
  11.5011132  78.8243771  30.1454234  12.7632940  78.1212044  29.6943903
  46.8318939 100.6833363  82.0089722  46.3062334  99.9446487  81.7019558
  47.7296734 100.3514290  82.0171452  66.8070602  86.9803047  74.5760679
  66.2132883  87.7256298  74.6664333  67.5586605  87.3295498  74.0971518
  35.7114649  18.1784892  83.1320477  34.8266339  17.9089856  83.3783627
  35.7759833  19.0868473  83.4269333   4.2533296  62.5004673  30.9874582
   3.5246199  62.0024681  31.3578796   4.0080673  62.6392937  30.0726867
  42.9280663  26.6073847  38.3311367  42.6409578  27.4138355  38.7594318
  42.4297142  25.9150600  38.7653780  11.8352163  36.5923381  30.4744029
  12.2781932  37.4309611  30.3451157  11.7315984  36.2375689  29.5914340
  14.6274662  55.9953165  19.7634971  14.0340519  55.4241562  20.2512145
  15.4165399  55.4685402  19.6366084   3.9782369  65.0384045  39.8407722
   3.5220474  64.2291498  40.0714922   3.4215280  65.7348251  40.1890564
  22.4367356  43.2523203  25.3961134  23.1824684  43.1964540  25.9936023
  22.1117735  44.1464663  25.5015993 115.6923389  58.1817579  31.5473509
 115.9361839  58.7533474  32.2754002 115.3278065  58.7739706  30.8896017
  12.8791308  93.0924320  37.6316023  13.0408680  93.4253788  36.7488718
  12.4196613  92.2639561  37.4946475  41.1963558  57.0236206  29.6209264
  40.7959414  57.8681517  29.4143510  41.2522936  56.5726137  28.7784934
  42.1055079  67.1650743  32.2078085  41.3640690  66.5674686  32.1110463
  42.6209688  67.0381498  31.4113021  11.4020610  59.4374037  11.0918522
  11.1683321  58.9588785  11.8872249  12.0264924  60.1005411  11.3860726
  38.2497358  34.2843604   1.9705141  38.8448548  34.8768377   2.4298985
  37.9567957  33.6698866   2.6434487  31.6335034  92.3889256   4.4508258
  31.4947748  93.2919693   4.7362965  31.1745286  91.8586063   5.1022434
  13.8634217  87.5784779  77.8105164  13.2136643  88.0426407  78.3383417
  13.8790154  88.0521107  76.9788551  10.7856977  40.7274103  66.4558744
   9.9944067  41.0799551  66.8630600  11.1285520  41.4515591  65.9321404
  93.9975739   8.6414689  17.2557914  93.4605217   7.9071140  17.5533259
  93.9281082   9.2887741  17.9575062   7.4473137 100.7454300   4.9124384
   6.8825972 101.0287189   5.6315202   8.3368218 100.8874798   5.2362126
 116.4710712 105.5206490   3.7776312 117.2688770 106.0451317   3.8458547
 116.6370106 104.9263096   3.0458823  44.1714382  68.0747795  19.8865235
  44.8527193  68.3974409  19.2966306  44.6071148  67.9958153  20.7351565
  28.6490297  79.0144968   9.9923110  28.6312199  79.5643425   9.2089951
  28.9964771  79.5852280  10.6777143  65.3394127  21.6806722  93.7501717
  65.9472561  21.4222813  93.0573559  65.4585648  21.0196590  94.4321537
  28.8774848  47.5918293  49.2732000  28.0540919  47.1245575  49.4143009
  29.1653323  47.3127794  48.4040022  12.7355540  48.5888910  11.0578287
  13.1580853  48.9084101  11.8550801  13.2159579  49.0118933  10.3461301
  81.5400791 111.3591099  83.8760757  80.8751678 111.2737274  83.1928158
  81.1332512 110.9795475  84.6549511  25.8868885  86.7375088  15.9581661
  25.8110118  87.3420334  15.2199101  26.7687178  86.3735008  15.8800077
   5.3257906  33.3862495   5.7728714   5.2660221  33.0265737   4.8878333
   4.9445498  34.2613864   5.7020056  11.5939534  62.1985006   7.6947093
  10.9164560  61.6250038   7.3364770  12.2542429  61.6000032   8.0440682
  17.4150729  54.7407866  26.9377565  18.2329321  54.8935175  27.4110556
  17.5323486  55.1958656  26.1038637 103.0610180  11.0635614  15.5402374
 102.5024319  10.4028583  15.1307452 103.9487457  10.7179654  15.4467690
  13.7728179  55.9611750  36.8165350  14.5529366  55.6463051  36.3599110
  13.4060442  56.6259336  36.2336063  98.8096619  35.9699297  92.4136925
  99.2436695  35.2910900  91.8969345  99.5149326  36.3733506  92.9197311
   3.6023021  26.0156035  21.6258621   3.5012543  25.2652144  22.2114706
   3.9324510  26.7159176  22.1887088  33.6824298  99.9540329  11.0836041
  32.9392576 100.5057907  11.3274968  34.4504881 100.5026245  11.2428868
  31.4706302  52.3781538  25.8306885  31.3358736  52.8792763  26.6350174
  31.8465114  51.5486526  26.1254382  11.1543071  85.5242634  43.9911032
  10.7125676  85.7503414  44.8096323  11.6668844  84.7441673  44.2030954
  43.9660358  91.4849472  11.6211247  43.9568329  92.4378586  11.7111945
  43.4586763  91.1688042  12.3687017  19.3972635 107.5266361  44.0201235
  19.0781212 107.1469879  43.2014370  19.7287297 106.7790699  44.5176125
  19.2730963  62.2439432  34.2053080  19.3271029  61.2992096  34.0611148
  20.1266932  62.4799824  34.5684767  23.2941151  78.0233812  23.6067986
  23.3766603  77.9482555  22.6561284  23.6353064  77.1946812  23.9430666
  40.0369740  77.4385548  31.7944384  40.7486105  77.8728819  31.3241577
  40.4675102  76.9996452  32.5280786  15.2575922  64.5099735  41.6865015
  15.4535711  64.2628479  40.7827568  15.4394329  65.4490376  41.7228317
  31.5802431 107.6281071  83.1130505  31.1023211 106.8459415  82.8372860
  32.5020504 107.4011135  82.9906654  31.0281944 103.6581326  31.8635559
  31.7941046 103.1987858  31.5191483  30.3254676 103.4461689  31.2491632
  33.0967140  29.7903681  94.1966057  33.9089060  30.2345514  93.9531326
  32.4031925  30.3584361  93.8611126   0.2938067  58.5721350  30.2594161
   1.1908804  58.3205414  30.4789209  -0.2144826  58.3521318  31.0401034
 116.9843864  14.0445697  90.6722927 117.4325562  13.6463094  89.9261284
 116.8342209  14.9514365  90.4053211 115.3830242  28.2377625  26.9077897
 115.1881027  28.6779475  26.0804582 114.7076893  27.5638843  26.9854712
  85.7234001  12.3904669  88.4084034  85.8412743  11.4956355  88.7271690
  86.6069889  12.6838934  88.1861496  31.9689846  41.1906147  24.6373534
  31.0202551  41.1367893  24.5222425  32.0834351  41.6251659  25.4825139
  20.4003119  88.8090229   3.1294027  19.7362375  89.1833115   2.5504869
  20.5573916  89.4888020   3.7847352 118.0373669  35.8775473   4.2876822
 118.6140060  35.2342892   3.8754353 117.2016144  35.4214811   4.3864337
  57.4578762   1.8511941   9.8878217  56.5661192   1.8473920   9.5399880
  57.7811575   2.7341181   9.7084725   2.3666899  96.4675140   8.9430183
   2.6565063  96.6007710   8.0405331   1.6006927  95.8985615   8.8670540
 108.3274078  60.8607817  23.6327696 108.1271172  61.5915060  23.0478239
 108.4202003  61.2635851  24.4961190   3.6714584  79.0690708  10.6772947
   3.3435035  79.9585342  10.5448890   4.0552759  78.8273621   9.8343867
  -0.0954422  46.9169760  24.3756437  -0.2038828  47.4760485  25.1449990
   0.8390012  46.7101097  24.3596864  25.0226557  20.5013175  96.0075612
  24.2445767  20.4308457  96.5606041  25.3117096  21.4074654  96.1151567
  43.6791134  39.1409326  25.7963443  44.3050575  38.4936953  25.4715228
  43.8679743  39.9315023  25.2908111  21.0708356  33.8742685  68.1569958
  20.7909274  34.0989327  67.2696352  22.0267415  33.8584709  68.1098318
 103.7173462  23.0417347  82.4550056 103.7753773  23.3788037  83.3490086
 102.7927113  23.1320691  82.2245216 106.3072395  92.7376270  15.8870280
 106.8354130  93.3686924  15.3981423 106.8210030  91.9301891  15.8687794
  17.7287805  57.2200441  11.6486740  17.1874034  56.9124651  10.9216690
  17.1006513  57.4648285  12.3282087   9.5284295  63.2840776  69.0091801
   9.2431045  64.0469408  68.5063219   8.7352920  62.7597046  69.1196251
  48.0323744  67.5329685   6.9396383  48.6750603  67.2388315   7.5851381
  47.5033283  66.7563677   6.7573291  43.9210033  27.4760294   0.7426681
  43.0736971  27.6829696   1.1369739  44.2137671  26.6895652   1.2030973
  71.4532852  68.0042934  94.8742104  71.1170626  67.7305794  95.7275963
  70.6741333  68.2605600  94.3807793   8.9811903  60.1524734  50.9600210
   9.4644558  60.9782124  50.9309959   8.9876801  59.8392391  50.0555420
  96.3710785   6.4846951  86.7146587  96.8554211   7.2043210  86.3099575
  96.7435551   5.6949133  86.3225651  15.5124867  41.5917063  19.0537739
  15.7856178  40.7954264  18.5981750  15.1904881  42.1664762  18.3593774
  68.8871288 108.3033562  91.7727947  68.8876677 108.7949753  90.9514999
  68.0140495 107.9135895  91.8180561   7.2488260  26.7672467  32.7233052
   6.5826243  26.3250136  32.1971512   7.0721221  27.6997471  32.5990081
   9.8356146  61.4056730  65.9852839   9.9552107  62.2764063  66.3644361
  10.5838823  61.2950277  65.3986979  16.4125514  93.1487465   1.0023590
  15.6990850  93.4828281   0.4586791  16.0336030  93.0791950   1.8785971
  33.9508986  66.5099669   9.2165869  34.6325612  66.8768787   9.7795647
  33.2861280  66.1869097   9.8248196   6.0070980  57.9071474  82.6844883
   5.4241556  58.6430693  82.8711128   6.6740006  58.2714796  82.1024799
  37.0231938  45.1060867  17.9136598  37.1763968  45.2412033  16.9785106
  37.0133376  44.1548347  18.0197620 117.3425388  89.6433926  29.8517251
 118.2763863  89.8500919  29.8138142 117.3123360  88.7026882  30.0260663
  20.3855324  27.9256320  79.0423870  20.8352017  28.2867932  78.2784557
  19.5034623  27.7259135  78.7288618  90.3573990  16.1312318  76.5630054
  90.0296593  17.0133936  76.7379713  91.3100243  16.2188101  76.5955114
  23.6308050   4.3139553  96.2300110  23.0466604   5.0706327  96.1805344
  24.1959643   4.3970442  95.4619503   6.5319413  78.1617641  20.1217103
   6.6071999  79.1117620  20.2115870   7.4344838  77.8452873  20.1603055
 108.8707829  55.7665062  95.2095222 109.1202831  55.4455137  96.0760880
 108.3111191  55.0777102  94.8509502  45.2397251  75.8999300  17.6312220
  45.6225967  76.7731285  17.5465631  45.7133627  75.5004406  18.3608150
   8.4931237  75.3392982  21.0190749   8.8950658  74.6627617  21.5640283
   8.3933985  74.9275303  20.1607418  23.0095303 111.1239484  71.9793129
  22.1063959 111.4303631  72.0611095  22.9296505 110.2267878  71.6553497
  31.5773106  75.6947756   0.4065856  32.2801614  75.2485895  -0.0658014
  31.6700411  75.3966761   1.3114446  11.0285854  90.6532574  21.7165947
  11.6586292  90.7172966  20.9988379  10.2232599  91.0307407  21.3627768
  49.8547125  57.1441269   6.0808927  50.6798458  57.5352144   5.7937604
  49.9768353  56.9877625   7.0173049  42.4984646  88.8264847  11.2767315
  42.9410315  89.6750069  11.2963653  43.0414772  88.2603836  11.8252647
  32.4784493  80.4553413  11.7666078  32.9903746  80.5971241  10.9703279
  32.4333239  79.5033884  11.8560100  29.9362969  71.3977242  20.6004667
  29.3647552  70.7275915  20.2256417  29.4066000  71.8098736  21.2829494
  29.9143291  76.1190271  17.6318657  30.7573605  76.5711117  17.5979877
  30.1148295  75.2670622  18.0194116 114.7715378  14.2461646  32.9277301
 114.0678310  14.2159534  32.2795630 115.4289341  13.6344755  32.5962210
  -0.0795778  18.4268236  92.9101658   0.8156596  18.1871176  93.1495857
  -0.6310847  17.9112875  93.4986401  29.8656487  46.1635876  28.6107683
  30.4733253  45.5400133  29.0084052  29.4113421  46.5619326  29.3531704
   6.6356200  26.5052295   1.5888377   5.6957561  26.6446161   1.7048481
   6.7996079  25.6448412   1.9749354  41.7772579  51.2731981  23.4986043
  42.0569181  52.1882820  23.5238934  40.8231401  51.3160181  23.4348965
   8.6140591  21.0363317  93.6964035   8.6498028  21.3413095  94.6030140
   7.7758038  21.3608623  93.3674049  30.4142237  94.5836258   5.4615438
  29.5089746  94.8737240   5.3493047  30.4331183  94.1897583   6.3337487
   8.9019513 109.4853210  22.4457550   8.6402643 110.3285217  22.8155637
   8.5573781 109.4981098  21.5528154  39.4136286  55.8351088  12.0112038
  38.7600160  55.9084415  11.3157594  40.2158356  55.5734015  11.5593135
  30.1356840  67.3555803  30.7921863  29.5744705  68.1297302  30.7478333
  29.8594999  66.8167448  30.0508285  38.8179469  83.4713554  12.5301242
  38.7102079  82.5275517  12.4124253  39.5067310  83.5533810  13.1897306
  97.3728180  48.1418657  91.7881203  97.3020363  47.5448751  91.0432625
  96.7199516  48.8199759  91.6144562  26.9570637  74.3694067  60.0286055
  26.9002819  75.3248692  60.0388193  26.0715246  74.0791702  59.8099375
  84.4243813   0.5157619  95.2142048  83.4739494   0.5365081  95.3259373
  84.5562840   0.1021835  94.3611050  85.8626461  73.4815931  24.1319966
  86.3452148  74.0740395  23.5554862  86.3814926  73.4542847  24.9359107
  89.5903683  47.7980947  94.9253559  88.9303589  48.2556057  95.4462242
  90.3305244  47.6856947  95.5218124  70.7680273  33.6961842   0.4416151
  69.8976469  33.6183357   0.0509601  71.2420750  34.2854476  -0.1451361
  13.6975861  75.3527927  17.9469001  13.3440828  76.0391188  17.3810208
  13.6633790  74.5598984  17.4117506  32.9674840  66.5269756  50.3420353
  32.6779246  65.6247950  50.4778767  33.7719893  66.4457512  49.8297787
 107.9393482  72.1807623  29.7204399 107.6378250  72.3494959  28.8277817
 107.8309345  71.2366962  29.8354363  20.9738970  53.9908075   7.1991354
  20.8549404  53.0416346   7.2330415  21.9220161  54.1116667   7.1472394
  41.5947676  70.3403187  28.4432817  40.9802580  69.9001694  29.0305471
  41.7518139  71.1903811  28.8543320 101.2571430  27.0679188  91.4666653
 100.5640697  27.0172024  92.1249294 102.0673847  26.9493270  91.9623375
  15.0843263  44.0886211  52.3169422  15.5209970  44.8823833  52.6259613
  14.1985035  44.1478014  52.6747799  52.4879313  64.0746832  15.8216369
  51.6570807  64.3373728  16.2177634  52.7924490  64.8574400  15.3625083
 115.3126526  44.9635363  91.3484478 114.7800064  44.7101212  92.1023083
 116.0284328  45.4771566  91.7227268  22.4967456  80.1498699  43.9092302
  21.9480419  80.6500340  43.3050776  22.1272230  79.2670155  43.8934183
  10.2491689  73.4229708   3.8734981  10.9927905  73.0651617   4.3585011
  10.0574267  72.7626276   3.2076082  17.4969232  34.5575142   6.3566673
  17.2096634  34.9237585   5.5202591  16.7361748  34.0755320   6.6809934
  15.5437160 110.8503723  42.9738474  14.6537280 110.5809212  42.7468014
  16.0137212 110.8514404  42.1399879  19.5606935  73.8509274  62.8576088
  18.8545561  73.5822344  62.2698927  19.1166317  74.0948105  63.6697388
  37.5476074  43.0598593  14.9097943  38.1756139  43.6665773  14.5177090
  38.0863786  42.4501276  15.4139650  21.8323231  63.8368177  33.3730912
  21.4641523  63.9004040  32.4918199  22.6529169  64.3273544  33.3258104
 109.4614315  36.0773873  93.4158421 108.9890194  36.8244910  93.7831211
 110.0956726  35.8391500  94.0920162   9.2573386 108.1780052  14.3104768
   8.4909534 107.6964474  13.9990485   9.5723659 107.6694775  15.0577295
 110.5656910  29.2018414  61.4167261 110.7518005  28.4192538  60.8979273
 109.9709606  28.8986039  62.1027088 113.8923836  64.7894859   8.7902391
 113.3058071  64.0340614   8.7515265 113.7176800  65.2700949   7.9810888
 103.4085560  90.1769733  89.5170879 102.5005150  90.4795647  89.5290470
 103.4992981  89.6599960  90.3175545  59.6772051  69.2622614  53.7428856
  59.0499449  68.6323929  54.0979052  59.5757341  69.1922760  52.7936554
  19.7016263  91.3905525   9.0587324  18.8014293  91.6585827   8.8742477
  19.6927166  91.1413670   9.9828863  24.0820479  56.4671040   8.0187732
  23.7585998  55.7587051   7.4621892  25.0097108  56.5427637   7.7952868
  21.5999389  68.0569363   8.5035515  21.5756941  67.9031992   7.5590897
  20.6858993  67.9922724   8.7802839  89.8425102  34.0377760  92.8875828
  90.2264595  33.2816410  92.4436569  90.0010586  34.7707343  92.2927189
  15.2217853  93.6382008  52.5043201  14.7814870  93.7872791  51.6675711
  15.1781404  94.4832230  52.9518318   7.6358849  54.0906906  34.8326278
   6.7120099  54.0546227  35.0803876   7.7023733  54.8602152  34.2672539
  45.0730324  72.6333475  20.1030302  45.4109859  71.9280148  20.6548643
  45.7733345  73.2858038  20.0926375 104.8040390  26.6889906  83.1531906
 104.4391918  26.4264035  82.3081017 105.7179546  26.4066410  83.1176567
  19.5060110  81.4925861  36.3445807  19.3289745  80.8420372  37.0240450
  18.8666046  82.1865940  36.5050411   1.5921012  62.3095083   3.1097093
   1.6991679  61.3612652   3.0348498   0.7164914  62.4798250   2.7625328
 111.4794994  17.0793671  95.8891258 112.1002865  16.5698189  96.4099084
 110.6187583  16.7906661  96.1924521  83.3019806  37.7356667  96.6315711
  83.4821571  36.8556447  96.9622021  83.9349396  37.8600831  95.9243823
  16.2365282  83.5572624  13.9385426  16.3390243  84.5085716  13.9656401
  15.8231938  83.3370209  14.7733366  78.3062744  36.2207317  95.7614994
  79.2560768  36.1337876  95.6805611  78.0747461  35.6478047  96.4925194
 111.3219261 109.3132591  75.5997276 110.6890106 108.9858246  74.9606371
 111.0830784 110.2317524  75.7244158 116.4524269  29.8491597  44.7210646
 115.6649399  29.3775892  44.9925900 117.0808792  29.1606736  44.5036554
  66.9626760  86.8190289  -0.0491528  66.5115976  87.2372150   0.6842543
  67.5912762  86.2262821   0.3628457  40.9963465  76.7768097   8.4908926
  40.7415247  77.0603132   7.6128697  41.2433100  77.5845909   8.9411491
  20.5127478  53.6078596  15.8920586  21.2957811  53.4733629  15.3582025
  20.8496308  53.8013649  16.7668724  88.8767529 101.3561916  75.4513311
  88.4152985 101.4700699  74.6204710  89.4324017 102.1321201  75.5250120
   0.2806746  35.5079889   7.1339911   0.6347071  35.4530287   6.2463713
  -0.4896081  34.9399090   7.1202177  36.1194777  69.7414255  21.9424105
  36.9424129  70.2010870  21.7759109  36.2836432  69.2374754  22.7394772
 109.0438080  72.2800112  16.2127841 109.1708565  72.3737001  15.2686906
 108.4057808  72.9574156  16.4369869  23.9766932  50.8167744  34.1985273
  24.6247602  51.3164234  34.6951079  23.5852313  50.2261114  34.8420382
  31.7746902  49.5261383  29.2542219  30.9490442  49.9858093  29.4066620
  32.3994970  49.9559593  29.8382592  23.9703131  50.7230043  19.8800683
  23.9078999  49.9991703  19.2568481  24.8956823  50.9676313  19.8711395
  13.3879888  90.5580330  13.5712183  12.5329709  90.5466080  13.1410480
  13.1966364  90.7969284  14.4781625  56.3625288  58.3223534   8.9390576
  56.7501354  58.1885338   9.8039764  55.4399109  58.0938101   9.0520966
  25.0393629 107.1881008  38.9959311  24.9809122 106.7854404  39.8623466
  25.9788251 107.2481823  38.8226247  13.0893755  60.8097267  32.9793072
  13.4299600  60.0587225  33.4653354  13.8694787  61.2529325  32.6457834
  94.7175312  26.0689735  13.2435560  94.6265125  25.2476835  13.7267041
  94.0574741  26.0147095  12.5524557   6.7289352  55.0257444   9.3754274
   7.6186442  54.7721338   9.6210515   6.5032804  55.7284403   9.9849623
   5.1752365  36.0004163  40.9919548   5.7207537  35.6678438  40.2791834
   4.3113768  36.1190343  40.5971003  23.5073376  35.3046823  30.3894258
  24.3113732  35.5615783  30.8408284  23.4579229  34.3563032  30.5092907
  20.0668406  57.7013350   9.9604142  19.3356657  57.3859072  10.4915643
  20.6674337  58.0982590  10.5912662   9.7576195  35.0918269   9.9747640
   9.2626256  34.3911004   9.5502704   9.0887004  35.6609154  10.3554428
  12.0803928  72.5564146  19.2242980  13.0209064  72.4397039  19.3586302
  11.9301593  73.4889030  19.3796349  10.5996585  74.6292305  30.1463604
  10.0549257  74.8464394  29.3898439  10.3381908  75.2586937  30.8184075
  20.1175690 101.2625122  16.9779932  19.5552766 100.6222916  16.5419030
  19.5160031 101.9427299  17.2807419  36.2541962  73.1968927  17.4825370
  36.1750412  74.1135550  17.7465403  35.5141973  73.0527544  16.8927443
   7.7055854  28.7170959   3.4488952   8.4501928  28.4247541   2.9232267
   7.0759040  29.0486145   2.8087169 104.7703838  10.8692062  85.6060791
 105.3624821  10.3069425  86.1055851 104.5371056  10.3485131  84.8375130
  47.7971315  66.3075686  34.2740750  47.0099354  66.6365194  34.7080636
  47.5278521  66.1629534  33.3669877  29.0548563  76.5756369  49.5043993
  29.8326540  76.0183096  49.4789267  29.1413355  77.1427011  48.7381172
  65.8367109  82.5570583  34.9557018  66.3396120  81.8595028  34.5353079
  65.0476313  82.6395798  34.4201827  30.9883833  61.7632294  68.8041162
  30.4722714  61.0958195  69.2562485  31.7635822  61.8794298  69.3534756
  39.6787047  42.8877974  37.5393248  40.6065273  43.1230545  37.5444961
  39.5714402  42.3536253  36.7523146  14.3271852  83.4957123  20.1083946
  13.7083912  82.8339005  20.4171419  14.8791349  83.0322075  19.4785190
  56.6252089 100.1197720  20.1725388  56.4886618 101.0509109  20.3473520
  57.1720695  99.8176098  20.8977127  10.4337680  57.0905256  22.6925325
   9.8293155  56.5143633  23.1604075   9.8832297  57.8039885  22.3698735
 110.4190636  26.8874288  11.2477696 109.7534847  26.3423896  11.6674936
 110.0333023  27.7632093  11.2270916  23.5701227 102.5419617   0.9623937
  24.3408179 101.9755173   0.9250786  22.8841281 101.9887447   1.3360116
 103.9004421  92.4803734  19.7938848 103.0884743  92.0000935  19.6318066
 103.7161922  93.0066586  20.5718970  56.6536236  87.2796345   4.5858783
  56.7653561  86.3334751   4.6782199  57.4688339  87.5789165   4.1832793
  20.3169441  62.6830339  11.5713859  20.6544900  62.1476269  12.2894645
  20.3327346  63.5775661  11.9116664  95.1569080  91.2884903  49.2780972
  95.5618000  92.1534920  49.3418598  94.8219204  91.1153889  50.1578999
  22.3110890  91.3335991  16.1251378  23.0414581  91.4660645  16.7294955
  22.1163917  90.3983974  16.1860633  83.8039494  55.6809330  14.9681878
  84.5726871  56.2439585  15.0592148  83.1432247  56.0849142  15.5307460
  68.5777426  85.1934338  10.7076716  67.7480507  84.7235107  10.6239450
  68.3624792  86.1002445  10.4895329  86.8072319  47.0082045  80.0802803
  86.5490818  46.4842749  80.8386230  86.4118099  47.8659058  80.2359295
  82.9086685  91.8156528  33.8940692  82.3957825  91.0782433  33.5632873
  83.1948185  92.2802925  33.1076527  37.8621960  61.9444513   5.0288522
  37.3956156  62.7164412   4.7085941  38.1104088  61.4686728   4.2362249
  61.8149662  63.3749342  31.5260148  61.4761400  62.9914856  30.7170653
  61.6650867  62.7027655  32.1908092  27.6948237  74.8903942  10.9387922
  28.2638860  75.1861525  11.6493726  28.1482744  75.1609373  10.1404059
 113.9832973  97.4525738  46.2215328 114.8095608  96.9961262  46.0628986
 113.3818817  97.0927429  45.5695724  57.1358013   4.1408178  27.6129723
  57.8125525   3.9754018  26.9565582  57.5106668   3.8143685  28.4309816
  30.8717966  84.7915077  37.2717977  31.1344004  84.3349934  38.0710912
  31.4927316  85.5158806  37.1946883  61.6080999  81.7704201  24.3551016
  61.6276836  81.2192059  23.5727906  62.5274563  81.9725990  24.5287132
  73.3763313  66.5079689  10.9056616  72.4673462  66.2138987  10.9648645
  73.3786535  67.1347666  10.1822340  44.0724182 100.0357819  33.2043433
  44.7095299 100.6655598  33.5415459  44.5133448  99.1889572  33.2729435
 114.2697716  42.4120331  80.9234142 114.1505241  42.4324894  81.8729401
 115.1482010  42.0523548  80.8000374  30.7919765 103.7072468  60.8171034
  31.6517425 103.3938026  60.5364132  30.2082586 103.4878731  60.0908947
  46.3928986  60.9832001  10.4696703  45.9617138  60.4097748  11.1033022
  46.8690443  60.3866768   9.8920208 101.5765762   8.3971560  51.6898537
 101.1574173   9.2576033  51.7028284 100.9155369   7.8033251  52.0456886
  60.8846903   2.4551870  29.0855694  60.3634834   2.9411077  28.4464645
  61.7654228   2.4356633  28.7111855  45.6447792  42.2773504  25.3020000
  46.1616850  43.0821896  25.3376269  46.2826967  41.5915251  25.1046824
  40.2223825  49.4583559  21.7985749  40.8634996  49.7981262  22.4228787
  40.1662588  48.5237646  21.9976258  22.8203869  81.8774605   8.1485581
  23.3037806  82.6239967   7.7946752  21.9176698  82.1880150   8.2184577
  39.0840936 109.5245266  13.2639015  39.8361635 109.3304729  13.8233364
  38.4494781 109.9365807  13.8501632  41.5588760  51.9332075  41.6866255
  41.7211294  51.9841290  40.7446480  41.2146759  51.0505056  41.8230057
   5.9308350  22.5055361  93.3414268   6.5116435  23.2567310  93.2205963
   5.3868532  22.7417874  94.0927601  46.0190821  51.0269833  25.4738426
  45.8462238  50.1036119  25.2901602  45.3447962  51.4987516  24.9849606
  43.1206226  73.5360003  24.6330547  43.4758425  74.1217804  23.9645433
  43.5356665  72.6916838  24.4567060  86.1423969   5.1380998  31.4597440
  85.9157085   4.3961826  32.0204639  85.7463932   5.8947855  31.8919921
 102.1957779 105.9353924   7.8085488 102.5723267 105.6675911   8.6468351
 102.8874588 106.4457321   7.3874027  34.8276067  87.1320820  23.6071205
  35.2562642  86.6583061  24.3198776  34.1067076  87.5991344  24.0294790
  10.1649249  20.4611921  91.5726280   9.6238565  20.5878353  92.3520088
  10.7290959  21.2339497  91.5445709  18.3515954  78.7261438  17.9685068
  17.6270199  78.2028866  17.6258373  19.1366625  78.3112621  17.6110530
  49.2348862  62.2304630   5.9591442  48.9063883  62.6431942   6.7578781
  49.2241287  61.2929773   6.1521167  55.0725317  65.3645182  10.2607036
  54.2932034  64.8091841  10.2827692  55.7064009  64.8672724   9.7438043
  45.6796598  77.8976440   6.8800843  46.1587763  77.2556114   6.3561755
  45.6599712  78.6845112   6.3353980  52.8645229  91.3792706  41.0099411
  53.1301117  91.7964649  40.1904011  53.5267687  90.7048416  41.1609745
  24.8868299  86.6956997  26.3210893  23.9963794  87.0441818  26.3645792
  25.3519416  87.1376324  27.0314384 104.7497368  56.7703199  89.5058250
 105.6796074  56.7637634  89.2788315 104.3105125  57.0650339  88.7080479
  37.4032164 110.2155209   8.6935818  37.0203471 109.6670437   8.0088788
  38.2207990 109.7745323   8.9244920  88.2891941   2.9930496  82.8875828
  87.6548576   2.6911673  82.2374153  87.8560925   3.7281996  83.3214092
  78.6960888  81.7722893  57.2150564  77.9731321  81.7210674  57.8403091
  79.4800282  81.6180229  57.7421904  12.5082994  46.7350483  43.1972837
  11.7525625  47.3160028  43.2843781  12.1412468  45.9108734  42.8775454
  77.7812481  98.0473423  15.2232969  77.2447205  98.3190918  15.9679592
  78.4273720  98.7467957  15.1257062 109.8725796  25.8004832  93.0040646
 109.2045498  25.1201892  93.0887318 109.8599625  26.2547231  93.8465214
  51.5711546  80.8310795  15.6738222  50.6559706  80.9551430  15.9253788
  52.0711374  81.2451744  16.3772273  48.8463593  77.2537327  44.6605492
  48.0205870  76.9988489  45.0720930  49.4922495  77.1977139  45.3647661
  13.4566665  77.4200392  16.1286545  13.1534123  76.8941879  15.3885531
  13.0961406  78.2918358  15.9667265  34.7292280 102.5957870   5.6903404
  33.9439583 103.1007576   5.9014851  34.4193292 101.9045067   5.1052541
  40.4689837  84.6501637  30.2328038  39.9886036  83.8899994  30.5608654
  40.8947420  85.0170803  31.0076141 100.9716415  27.0055294  73.7412167
 100.2634525  27.5545931  74.0777111 100.7433319  26.1200762  74.0242004
  19.0072048  83.6253929  30.8428741  19.1927016  84.5158005  31.1411905
  19.8638272  83.2676125  30.6095767  33.3734965  93.9746475  49.0194798
  33.0352306  94.3571186  48.2098341  34.1563797  93.4949303  48.7489414
  73.3582211 108.0189514  60.2987385  72.7222347 108.5788822  60.7439709
  73.0675697 108.0044746  59.3868446  56.6522503   6.6730464  24.2649984
  56.9352436   6.7136854  25.1785064  57.1875715   5.9797257  23.8790369
  96.7486286 109.1659164  90.0987816  97.4957752 108.6389351  90.3821278
  96.5846539 108.8845062  89.1986942  33.3553791  72.3532200  40.5955601
  32.7150083  72.8984356  40.1385069  33.8770509  71.9592905  39.8963404
  65.1068342   0.5332992  33.4434295  64.6573746   0.4071949  34.2790818
  64.4808948   0.2286671  32.7864432  22.5542212 100.2138519   2.4470840
  22.6458287 100.7465839   3.2370457  23.3831882  99.7399426   2.3803267
  40.0557375  77.5422525  43.1620693  40.5973101  76.7782736  42.9639006
  40.6441307  78.1397104  43.6236668  49.9747896  79.6251011  29.1930437
  49.0969658  79.5332050  29.5634723  50.5185843  79.0367460  29.7168374
  55.1463079  82.1167278   5.3696644  55.4924250  82.7333355   4.7245032
  54.2413664  81.9667053   5.0961494  46.5133619 107.8006077  42.4462032
  45.8905458 108.3178043  42.9569292  46.2521839 107.9414654  41.5361643
  32.2590518  78.7614679   3.0086270  32.5443888  77.8850412   3.2668659
  32.9174447  79.3474197   3.3820015  32.4151516  94.6246338  27.4882174
  32.0125175  95.1632786  28.1693745  31.6756201  94.2232800  27.0318842
  69.3057442  84.7714138  26.0047841  69.7617483  85.4349422  25.4870772
  68.8173628  85.2716637  26.6585946  48.3189344 107.1167088  31.2596321
  48.0417013 107.6395226  32.0119905  48.0511332 106.2237549  31.4767432
  47.8674316  73.0760860  45.6281996  47.7942705  72.1425056  45.8264589
  46.9864941  73.4214163  45.7728672  46.2298632   3.8894635  16.2944400
  46.7088842   3.7446496  17.1104062  45.6174898   3.1556004  16.2427294
  32.6819158  86.7973518  36.8496704  33.3589864  86.1921024  37.1521235
  33.0389667  87.1735287  36.0451603  46.2788391   3.9357132  53.0044889
  46.0554552   4.5849711  53.6714172  45.7162380   4.1526642  52.2610903
  25.6737328  42.9185629  81.5991402  24.8022485  42.7498007  81.2409973
  25.8200240  43.8516474  81.4436150  19.0810645 108.1216908  37.3474264
  18.7403011 108.4009457  36.4976478  18.7898266 107.2141647  37.4357653
  74.0554953  23.0395627   3.0157334  73.8443613  23.6698484   3.7044966
  73.3992338  22.3495841   3.1130978  51.5430737  93.2562828  34.4608617
  51.2697124  92.6269913  35.1283193  52.4836636  93.3627319  34.6029687
   7.6097226  95.3685379   1.4723413   7.5083089  94.4362545   1.6641682
   8.4657919  95.4342556   1.0491900  46.4064932 106.6827679  49.4333458
  46.9066715 107.2210026  50.0468206  45.5969906 106.4764595  49.9006462
  50.4644728   3.7188959  61.9122696  51.0160303   2.9414749  61.8248892
  50.1026058   3.8554704  61.0366964  48.0958843 109.9620819  25.0364065
  48.4994125 109.7269249  25.8719277  47.1555901 109.8706341  25.1904082
  21.8509078  63.9441252  17.3554981  22.1974516  63.3063698  16.7314708
  21.8528557  63.4835958  18.1946290  33.4764290 102.3133183  31.3561702
  34.1008019 102.4363518  32.0711899  34.0000367 101.9534683  30.6402254
  75.7249320   0.2779911  11.0987592  75.8859217   0.4417560  10.1695144
  75.5056274  -0.6526711  11.1434650  43.9605570 105.1903915  24.6095443
  44.8138189 105.1789379  24.1759014  43.4345818 105.7960606  24.0872931
   9.5468038  87.1120930  16.6503227   9.2916596  86.3993549  16.0645497
  10.1991475  86.7220402  17.2321630  20.6792259  72.4564600  10.5546987
  20.4205823  73.2921648  10.1662004  21.1488032  72.6985216  11.3529050
  10.5275905  85.5690289  23.8849735  10.2588272  86.2329388  23.2499743
  11.4840329  85.5749416  23.8473797  26.3841105  17.3696792  85.5120468
  26.1960936  16.4315236  85.5393791  27.3398519  17.4224401  85.5096245
  27.6526380  82.7019978  31.3463449  27.7240491  82.0878983  30.6155872
  28.2390022  83.4215832  31.1126614  21.3408804   5.1317000  91.2701416
  22.1644282   4.8059320  90.9069920  20.7222462   5.0840390  90.5412769
  71.3746023  15.0638127  91.2278748  71.7806244  14.6637285  91.9968414
  70.4390526  14.8914254  91.3340187 111.5926647  38.0112505  95.5346680
 111.1378384  38.8016701  95.2438068 111.3826561  37.9431009  96.4660549
  95.8002090  48.7433195  94.3615627  96.0084915  49.6353912  94.0839577
  96.5000534  48.2069874  93.9890099  13.2821727  62.0146513  36.5000868
  14.0114319  61.7732477  35.9290028  13.6982226  62.2838211  37.3190403
  50.4937803 111.7433800  23.8424635  50.4676306 110.8125573  24.0640855
  49.7888338 111.8577389  23.2051277  65.0624800  77.5629759  15.1788533
  65.4391241  76.7395353  15.4892075  64.9361277  77.4295425  14.2394590
 100.0518894  17.9274857  94.4786358  99.9560356  18.6302650  93.8358688
 100.2514362  17.1506548  93.9561939  55.5674601  84.2016029  33.5412288
  56.3422489  84.3454742  32.9978776  55.3046989  85.0785732  33.8206983
 109.8654652  51.9052315  86.6744995 109.8364353  51.5500164  85.7861233
 108.9516830  51.9127750  86.9594193 108.3996391  55.2611160  85.3225803
 109.3467522  55.3718948  85.2392960 108.2720184  54.9586582  86.2217331
  25.5353129 111.3812244  56.1627102  25.6828415 112.1910088  56.6512966
  26.3202965 110.8577676  56.3240337  53.1183481  90.5172729  48.2447100
  53.0586195  90.8273029  47.3410797  54.0516758  90.3541088  48.3807421
  32.5138378  34.1992140  25.2915263  31.8804026  34.9140024  25.2277350
  32.6747847  34.1048884  26.2303710  58.7234545  77.1525478  12.2548282
  59.2170668  77.5285244  12.9836798  58.3696604  77.9102421  11.7890322
 110.2428627  94.9235821  59.5288515 110.4430676  94.4153214  58.7428379
 110.8183861  94.5603848  60.2019739  77.4987268 109.1163349  29.1341257
  78.1356144 109.4977093  29.7384095  76.8041849 108.7788296  29.6997547
  21.5193653  85.9240246   5.4685551  22.4047375  85.8793163   5.1075137
  21.6409516  85.8300972   6.4133447  10.8201718  95.1511955   4.3963447
  11.6123974  95.3756046   4.8844543  10.3823805  95.9900093   4.2515671
  47.7013683 101.9504833  17.6724279  48.6163998 102.1973705  17.8065753
  47.2227955 102.7788830  17.7031064   4.3658814  87.5411129  39.3427420
   5.2493834  87.1766758  39.2894268   3.8031742  86.8598747  38.9746189
  24.1751456 101.8780994  33.0325818  24.2990851 101.8030739  33.9787531
  24.8482203 101.3104534  32.6571035  15.2543545  35.0730586  24.8561358
  14.4167888  35.5343795  24.8125553  15.0304294  34.1550827  24.7031236
  50.9924078 103.4374046  43.6135817  51.5565681 103.7877846  44.3029213
  50.2606630 103.0372047  44.0832806  55.1736116 100.9423542   5.4202521
  55.7783270 101.1297131   6.1381984  55.7406282 100.7594776   4.6710640
  85.8984756   7.3178458  15.9226620  86.8065739   7.2891384  16.2239206
  85.8496094   8.1077415  15.3842306  29.8957253  55.1164722  62.4704170
  29.1179299  54.9251604  62.9945040  29.5594335  55.5785799  61.7025661
  33.8801432  33.4535217  94.8103619  34.4620037  32.7828121  94.4528389
  34.3347168  33.7745547  95.5891609  19.3275869  80.7625389  11.2195611
  18.7403405  80.2101421  11.7355311  19.0159225  81.6541195  11.3750470
  83.0871487   0.8506013  65.9942484  83.7100506   0.2633312  65.5660629
  83.6319065   1.5334727  66.3855886  65.0813437  65.0546885   8.6284834
  64.3573475  64.8799610   8.0272120  65.2081823  64.2295837   9.0968263
  48.1954622  98.1449223   4.6692225  47.9309511  98.7504768   3.9767170
  49.0794992  98.4244633   4.9070606  29.0875459  65.4838419  16.8721008
  29.7505856  64.8186874  16.6872227  28.9089918  65.3904390  17.8078496
  50.0882244  75.9726906  25.4001808  50.0062370  76.0510635  26.3506365
  49.4249821  75.3275442  25.1549554  67.8592348  54.3942118  47.4848890
  67.4986935  54.3572855  48.3708239  67.1233225  54.1655827  46.9170952
  69.8538828  10.9314585  23.5398912  70.0100040  11.4121103  22.7269745
  70.2884293  10.0889599  23.4072232  57.7893972  99.4958401  28.3939528
  57.7560711 100.4517651  28.4302855  58.6860132  99.2975330  28.1238008
  30.1700187  52.9251242  32.2785044  30.9341550  52.8984928  31.7026424
  30.5171871  53.2089615  33.1241655  35.0655556  94.9184608  17.6605678
  34.4818497  95.6202030  17.3723352  35.1093507  94.3214035  16.9136763
  62.3389101  77.9355669  41.0129738  63.2592630  77.7896881  41.2318420
  62.3492241  78.1862783  40.0892448  69.0155363  37.7621031  95.8349609
  68.6275482  38.1301522  96.6288280  68.9456987  36.8145728  95.9513283
   2.2042233  56.2098122  40.9473419   2.6442695  55.3663826  40.8414078
   2.6832002  56.6427708  41.6539955  22.3685741  82.8817940   4.6907896
  22.1603251  83.0860519   3.7791201  21.5260673  82.6534081   5.0835407
  30.7692218  95.3776360  39.8058033  31.2656474  94.6434784  39.4441319
  30.7092786  96.0045147  39.0849257  49.4314861  13.1199777  32.3540258
  49.5752859  12.2053993  32.5971246  50.1774216  13.5877478  32.7295327
  30.4902530  62.4699259  13.8984680  31.3522649  62.1252251  13.6653376
  30.5509377  63.4081841  13.7189698  51.2199163  58.3628654  31.4233518
  51.5335560  58.3220482  30.5199146  50.8086252  59.2241859  31.4954162
  42.2325134  32.1991515  91.5729141  42.0733356  32.5082827  90.6810951
  43.1855154  32.2058296  91.6621971  45.3263998  68.8186884  36.8073177
  45.2377176  69.7717667  36.8062925  45.2169323  68.5669661  35.8903193
  53.1887960  75.3258991  40.3752041  53.1576729  75.3607273  39.4191432
  52.2721815  75.2574873  40.6423473  37.9888225  50.7622862  20.9754229
  37.2214699  50.2216673  20.7879877  38.6188674  50.1566792  21.3659501
  33.3506775  63.0406380  10.2962780  32.9456377  63.9055681  10.3600323
  33.2688403  62.6724052  11.1760163  55.3291988  41.3906670  92.8439522
  54.6908045  42.1024561  92.8891277  56.1280918  41.7612886  93.2189751
 114.2835903  25.1090860  73.6152744 114.7150326  25.4204535  74.4109726
 114.5286083  24.1857004  73.5556269  58.5973883  57.0310688  39.2898202
  59.4694281  56.6493702  39.3902659  58.4801483  57.1148300  38.3435273
  49.5804119  61.3015890   0.5693224  50.1123190  62.0409060   0.2748474
  49.5330238  61.4041758   1.5198284  97.7929974 110.3939247  95.2562237
  98.6052608 109.9422169  95.0272942  97.0996952 109.8192024  94.9317837
  43.6193180  60.4742622  24.8302317  44.1485929  60.6766701  25.6016803
  43.8178539  61.1777687  24.2122579  44.6541786  99.7593212  13.5016561
  45.3959179  99.1759682  13.3411479  43.9246607  99.3536282  13.0332005
  79.1533852   2.7814844  42.2211409  78.5534382   2.0386362  42.2879696
  78.7908602   3.4365526  42.8175402  45.0398064 102.4961090  12.7121973
  45.4593039 101.7763233  13.1835306  44.2446184 102.6789188  13.2126880
  33.5375571  83.7851524  17.7175069  33.9391065  83.0126762  17.3196757
  33.1866765  84.2806435  16.9775069  98.4422446  47.4280019  95.6702618
  98.3657075  48.3099503  96.0343058  98.1299282  46.8526883  96.3686229
  41.9025898  83.6099625  36.4056921  42.1079445  82.7217007  36.6973066
  42.5865650  84.1542530  36.7957735  87.1142864  94.6870613  25.7179499
  86.3400936  94.8998642  25.1968241  87.1667576  93.7317181  25.6898117
  52.4943066  95.0942993  37.1861172  52.8515768  95.6904030  36.5279031
  51.5936375  94.9367809  36.9028974  47.7512980 108.1295013  51.2972355
  47.5952482 108.2267284  52.2366095  48.5541248 107.6113796  51.2401772
  47.8722143  86.4072227  22.1332431  47.2335196  85.8494759  22.5773335
  47.9244709  87.1923733  22.6782608  89.7330952  13.0353248  36.4681578
  89.0204525  12.4389505  36.6977453  89.3723011  13.9089847  36.6190839
  63.3537054  82.6103115  33.3787084  63.2591820  83.3108234  32.7332759
  62.5015593  82.1743870  33.3855867  83.9184666  73.5503769   4.4954702
  83.7184525  74.4784927   4.6172193  83.3053207  73.2597828   3.8203180
  56.7789888  85.9954643  59.1944695  57.4532127  86.3400555  59.7800541
  56.7793655  86.5960312  58.4491205  65.6234264  79.7858143  12.9138017
  64.8433256  79.2827749  12.6800728  65.8677673  79.4601393  13.7800956
  91.6241741  27.0672536  40.9760094  90.8151531  26.6088820  40.7488203
  91.5324402  27.9298687  40.5713940  52.3853970  21.2704611  42.5722599
  53.3278608  21.4183521  42.4939871  51.9878244  22.0142007  42.1194696
  58.8791037  62.5560427   6.8452311  58.4009457  63.3349323   6.5607542
  58.3081341  61.8249559   6.6091430  86.1407280  24.0566826  81.8609810
  85.5839252  23.3399105  81.5569305  87.0319843  23.7666535  81.6665936
  85.9140491  66.1272573  82.0895100  85.0638676  66.0179615  82.5155163
  85.8355618  66.9494343  81.6056633   4.3009332  99.2285728   7.9594976
   4.8346815  99.7001362   7.3199844   4.3395746  99.7689056   8.7486637
 104.6953392  73.3259869   6.7991894 104.1191101  72.5789261   6.6376370
 105.4209423  72.9633045   7.3073190  45.3561592  96.1870480  15.8397961
  44.8546171  96.9246387  16.1871481  44.7295427  95.4640675  15.8102345
  12.8620243  85.4520607  11.7872047  13.0893302  84.7996807  11.1246645
  13.6815178  85.9166718  11.9569039  39.1410160  95.6106472  28.9274955
  38.8316774  96.3519001  29.4481468  39.1114187  95.9239578  28.0235100
  76.1374331  25.6675482   4.4331512  76.1284113  26.2759042   5.1721048
  76.7003727  24.9490142   4.7213203  14.2198777 107.7767277  19.4973397
  14.6285427 108.5491848  19.8879051  13.5278308 108.1290245  18.9377034
  10.2949798  90.5179977   2.1050434   9.6681893  90.6812859   2.8098160
  10.9940994  90.0117683   2.5187948  56.1989546  93.5369301  48.3496904
  56.2274933  92.8660202  47.6675558  56.2626553  94.3650723  47.8739357
  77.0639277  50.5369854  95.2381897  76.4219093  50.8954763  94.6253872
  77.0909834  49.6016073  95.0367737  21.9846201 103.2277584  23.0005598
  21.1027050 103.2991886  22.6353836  21.8462563 103.1213379  23.9417100
  35.9070969  84.8936844  19.2240834  35.3925061  84.3561363  18.6220288
  35.4773712  84.7818279  20.0720549  41.6146851  20.3986192  48.1141233
  42.5505972  20.2027082  48.0702972  41.5614653  21.3447642  47.9791832
  27.0968461  91.1152840  18.2722116  27.5828815  90.3001404  18.1475616
  27.3173308  91.6451454  17.5061405  23.7849140  81.9709206  36.1396241
  24.4292164  82.1865559  36.8138695  24.2172241  81.3110065  35.5975437
 104.4314266  10.6897071   1.2403745 103.5103918  10.9202245   1.3619871
 104.9140645  11.4358047   1.5962190  21.8264389 104.4918251  17.5387883
  21.9200420 105.1662064  16.8659723  22.2689724 103.7257957  17.1732903
  45.1113129  73.1528854  14.3296778  44.9224234  72.2269583  14.4820583
  44.4358349  73.4369326  13.7138212  55.5455542  68.9612293  47.2831821
  55.9793901  69.7485304  47.6120901  55.1124382  69.2450190  46.4781332
  75.0416565  43.6121321  87.2300816  74.6519852  43.5487318  88.1020737
  74.3297958  43.9248371  86.6717815  35.7586932  97.7620792  25.0778079
  35.0971866  97.7582073  24.3859816  35.8588696  96.8410873  25.3185630
  42.4446917  90.2777481  64.5457458  43.3809853  90.4557800  64.4569254
  42.0249844  91.1261082  64.4030809  53.4233046  77.4432325  12.4080980
  53.0319023  78.2463741  12.7516067  53.6921453  76.9557571  13.1867635
  25.2164149  24.5494318  19.3629253  26.1104083  24.3039131  19.6010983
  25.0578117  25.3656745  19.8370826  51.9503593  94.9869919  23.7441492
  51.1179447  95.1586819  24.1844177  51.7134142  94.4602871  22.9808211
  50.9078979 106.3335991  11.1147833  51.6826105 106.5950584  10.6170952
  50.3151608 105.9656048  10.4594421  65.4458714 101.1529636  19.8824489
  65.5027914 101.3856125  20.8091998  65.7553434 101.9320965  19.4204760
  53.4952164 105.6495190  17.3189878  53.0139303 105.6464005  16.4915931
  52.8842831 106.0300350  17.9500163  39.5853591  97.9697323   4.0263855
  38.7752485  98.4337234   4.2377231  39.4542933  97.6540279   3.1323016
  23.8569593  41.6303587  37.4429107  23.7497902  41.1729145  38.2768703
  23.3144975  41.1369658  36.8276596  49.9699354  37.2807121  86.0732174
  49.6094894  36.4764643  86.4467144  50.5298519  37.6355171  86.7637539
  27.6051390 111.0279590  19.3077528  27.4621737 111.9740511  19.3342686
  28.3372652 110.8794929  19.9062347  59.1390610  73.5153198   3.0620694
  58.8816833  74.3246555   2.6205173  58.5499382  73.4549809   3.8140854
  44.0481567  89.1756439  35.0646925  43.6149645  89.6658039  34.3658900
  44.9807024  89.2370701  34.8577690  62.2291231  21.1475778  13.2003331
  61.5647507  21.8087649  13.3944201  62.4154377  21.2616158  12.2683918
  13.2598567  27.3413372  90.5318260  12.6060188  26.7328906  90.8760929
  12.7466106  28.0455041  90.1356411  55.3846312  98.5718536  42.8552198
  55.5321026  97.7832127  42.3331833  54.4475031  98.5585499  43.0497551
  33.5432076 105.6647873   3.8688755  34.3430567 105.8489132   4.3613920
  32.9702520 105.2262020   4.4978338  38.7555099  95.5596066  22.2375464
  38.5201526  95.2783012  23.1216908  39.6860027  95.7766533  22.2949982
  44.1518784  76.7197657  21.6836357  44.0884304  75.8436394  21.3033628
  43.2614708  77.0675135  21.6338897  70.9756231  93.0213070  20.9492707
  71.8292379  92.6234150  20.7782149  70.9183884  93.0643463  21.9037867
  21.0003543  98.9728546  21.6552854  20.8944774  99.1093826  22.5967646
  21.9225383  98.7392044  21.5493631  34.3363380  99.1504765   8.4958386
  34.1406822  99.5736408   9.3318301  35.1324725  99.5839977   8.1884885
  53.4402514  81.1558914  62.1654081  52.4894714  81.1745834  62.0563364
  53.6665487  82.0424271  62.4466181  47.3022079 110.0691414   1.0929519
  47.6976633 109.2763233   1.4552894  47.0649815 110.5904770   1.8598655
  15.4414845  51.2517452  10.3466618  14.8014998  51.4485884  11.0306978
  15.7581794  52.1087408  10.0611901 104.6966362   5.0696069  30.7022142
 104.6582699   4.5924202  31.5311003 105.2222919   4.5117971  30.1288271
  75.5440521  18.0443120  13.6776805  75.7797861  17.2210324  14.1053164
  76.3686275  18.5263705  13.6150706  98.1198406  50.1770639  96.4966488
  97.5102806  50.6880188  97.0291901  98.2782841  50.7212973  95.7253265
  28.6579061  81.1160278  35.1689792  28.1077719  81.2362289  35.9430170
  28.9932036  81.9913769  34.9751639  25.4254031  52.6862860   8.9927512
  26.2895250  52.3597860   9.2435944  24.9095511  52.6417208   9.7978234
  31.2405610 104.6234703  11.6333067  31.6977596 105.0763988  10.9247458
  30.4744005 105.1689816  11.8112040  62.9919147  12.3158109  52.3139334
  62.6067924  11.6152644  51.7874861  63.3820248  11.8655813  53.0631590
 105.4589558   9.6023190  34.5550013 105.3389263   9.2852026  35.4501319
 105.2251530  10.5296183  34.5960426  11.0725403  33.3915877  67.1498203
  10.5684555  34.1258669  67.5004816  10.8772564  33.3928084  66.2127495
  79.7008801  31.6935515  13.8134563  79.8359489  32.5239515  13.3569205
  80.4863167  31.5844607  14.3495750  94.0524578   8.1970650  36.9197059
  94.3362617   7.5677317  36.2566662  93.4189129   7.7153599  37.4515080
  40.9811115  85.7620811   9.3646878  40.8900642  86.3210487   8.5930049
  41.9261980  85.6910992   9.4988585  59.3474102  77.0677280  22.3827147
  60.1361752  77.6098061  22.3978472  59.6564054  76.2027025  22.1134853
 107.8287029  29.6716547  79.1665888 108.1554890  30.4106975  78.6535025
 107.8403568  28.9333868  78.5574436  27.8836513  90.9448910   6.3515794
  27.8592634  91.8432426   6.6811377  27.9299569  90.4021931   7.1387023
  34.1060901  67.2364044  23.4417915  33.5233545  67.6380873  24.0862322
  33.9475679  67.7283001  22.6360965  94.9896431   4.0046018  10.8536756
  95.3491783   4.8380694  11.1574781  95.6781387   3.3655292  11.0374951
  92.2171688  91.2743473  25.8923459  91.4765644  90.6923485  26.0626459
  92.9234505  90.6892967  25.6182694  53.8176870  88.4940434  24.0484428
  54.1043043  87.7237320  24.5390534  54.5282984  89.1259003  24.1580844
  60.3472137  98.6797905   8.7746209  60.2997494  98.9643574   9.6873081
  61.2703514  98.7772179   8.5410541  30.8166742 101.3363552   0.2761215
  30.2568531 100.6187153   0.5724713  31.0891056 101.7759228   1.0815991
  16.9051552  80.9099197  56.1632538  16.0899675  81.3965988  56.0414124
  17.5179434  81.3109684  55.5469084   0.5506123  38.9671779  96.0926628
   0.1875732  38.2425785  96.6019726  -0.0748376  39.0957093  95.3795528
  12.9032540  63.3240604   0.7097448  12.0031643  63.4504604   1.0099007
  13.4021282  63.1616020   1.5103467  55.5358171  85.4019165  40.4225779
  56.1985731  85.3050995  39.7387576  55.2258635  84.5107174  40.5836153
  37.0806336  74.6742344  10.0392294  37.7156591  75.2575541  10.4548192
  36.3626456  75.2501059   9.7763759  30.3764796 104.5567608  17.2781575
  30.5594468 105.3914642  17.7094603  30.1478267 103.9627934  17.9931080
  32.1399140  94.1660404  16.3489091  32.6229095  94.9918270  16.3168538
  32.7978635  93.4963417  16.1622655   8.5942483  88.6311054  18.6804271
   8.7787086  88.0442810  17.9470527   9.4392961  88.7433434  19.1157758
  96.7255688   1.8325774  12.0768511  95.8537102   1.8146884  12.4715304
  97.1986294   2.5018686  12.5713158  75.9834099   8.1355369  22.6065040
  75.8502102   7.6599705  23.4264612  76.9323254   8.1351823  22.4808455
 102.0441532  45.0232792  66.6385651 101.7100143  45.1487923  67.5267267
 102.9353809  44.6965933  66.7618990  43.7375498  79.0958595  13.7795007
  42.8932333  78.7674046  13.4705079  44.2503643  78.3076000  13.9581120
  84.8902988  80.9473133  94.3279076  85.4540825  80.6622982  95.0470352
  84.0392780  80.5536079  94.5202541  60.9925318   5.1461369  25.3983760
  61.7454767   5.5659097  25.8144188  61.1592960   5.2312231  24.4596624
   6.0394710  69.5269346  80.7413101   6.4413136  69.3368912  79.8935843
   5.1804471  69.1068172  80.6987381 114.3308735  49.1584063  85.7756233
 113.4395695  49.0306330  85.4508305 114.6407795  48.2757282  85.9782696
  82.6947880  36.1615729  27.2159481  83.6503220  36.2024570  27.1770167
  82.4264622  35.9696054  26.3174033  29.5254874  95.8119297  13.7609792
  30.3013253  95.3760719  13.4083664  29.8489141  96.6534901  14.0825462
  62.3905182  84.2574692  18.3537412  62.9346180  83.4991455  18.1413162
  62.7316236  84.5697784  19.1918015  18.2302988  86.2167072  27.5924802
  18.5800779  85.3444004  27.4108839  18.4505737  86.7297173  26.8149662
  78.6147738  15.0946522  22.7792454  79.3165922  15.0186491  22.1327901
  79.0609789  15.3416133  23.5892725  21.6588950  74.6696424  45.9589720
  21.2833357  74.2807341  46.7488670  20.9321165  74.6970129  45.3366566
  44.7153187  96.9876385  83.8782120  45.4183245  96.4023685  83.5963154
  44.5563841  97.5526524  83.1220818  21.7299700  73.1897831  18.8302660
  21.1978555  73.8393354  19.2897952  21.0955238  72.5628710  18.4828520
  21.3162088  73.7376595  22.0182633  22.1584821  73.3062935  22.1622562
  21.0781741  74.0905476  22.8756094  14.3310964  50.4968691  34.8522878
  13.5612059  50.9296036  35.2213907  14.5739377  51.0391998  34.1018605
  44.7842550  72.1492672   9.3329549  44.7452068  71.2667322   8.9643931
  45.4675579  72.0996380  10.0014389  39.1621566  70.9274912  10.0232089
  38.6837482  70.8088923   9.2026651  39.2873287  71.8739128  10.0928390
  12.0652127  24.5438433  33.2803535  12.5600421  23.8520861  33.7194991
  11.3558137  24.7534609  33.8878441  88.7897491  60.0516129  14.8844206
  89.4252682  59.4000483  15.1807368  89.2141724  60.4791737  14.1405869
  70.9116507  40.8193636  17.6079226  70.9404659  40.3127670  16.7962813
  71.8163776  41.0987234  17.7481425  70.5105305 100.0677681  90.1485252
  71.0581923  99.6306801  90.8006477  69.8642206 100.5507946  90.6634998
  12.1389389  92.0804977  28.4179282  11.2895250  92.3477650  28.0667901
  12.2300816  91.1650562  28.1535816  89.5054436  14.0578222  94.7181892
  89.9760723  14.6484911  95.3062820  88.5907459  14.1259897  94.9918747
  30.8002281  72.2898912  11.6139269  31.2394166  73.0716038  11.9490063
  31.3587213  71.5638018  11.8916094  68.8756895  93.1284142  71.3302088
  68.1862879  93.2727909  70.6820488  69.0517139  92.1885204  71.2873316
  33.0440283  64.3118763  18.6974537  33.5359025  64.2905664  17.8765774
  33.5780168  63.8058472  19.3098474  24.7926927  52.5877285  11.9554210
  25.4428864  53.2785130  12.0830703  24.7935700  52.1025467  12.7805436
  84.0325451 107.1147442  83.4801102  83.4608650 106.3510036  83.4018803
  84.0172005 107.3309135  84.4124603 102.5014400  12.2248983  84.1990185
 103.0877209  11.8121219  84.8331547 102.7659321  13.1448042  84.1917515
 102.5261116  21.3629079  77.3373175 102.0420933  20.6462288  76.9270420
 101.9137383  22.0985818  77.3334646  53.1808186  98.4183407  87.0965004
  53.8953972  98.8333035  86.6133690  52.7712727  99.1351414  87.5809574
  25.5205846  20.7198405  87.4558544  25.1224732  19.9296093  87.0907879
  26.3542366  20.8037877  86.9930267   5.6568944  13.4299624  74.9548721
   4.8527879  12.9111445  74.9766159   5.9536117  13.3739066  74.0465498
  40.0771093  74.0204811   8.6441797  40.1116848  73.7079048   9.5482439
  40.5275345  74.8648214   8.6652905  37.2848010  20.8986211  90.6463146
  37.2040534  20.5291748  91.5256500  38.2284117  20.9526443  90.4949474
  46.4471960  63.2294798  12.0065057  46.4897919  62.5388050  11.3451564
  45.5278015  63.4956646  12.0159602  57.3411226  48.3310318  13.9500988
  57.1399784  49.2324209  14.2016375  57.5197935  47.8854704  14.7782171
 105.1973057  46.9276190  84.9742317 105.2049732  47.0118904  85.9276867
 104.4634438  47.4732447  84.6914577  31.4675999  65.8748913  34.7895002
  31.3250041  65.5268288  35.6697011  32.2908497  65.4777145  34.5053482
  62.0466852  35.9210372  12.1827137  62.7153397  35.2366710  12.2106051
  62.5068855  36.7165709  12.4502468  91.8966389  40.9916449  76.4143896
  90.9709740  40.9127855  76.1838484  92.2847557  41.4751244  75.6851053
  26.9964719  57.9897070  38.7763357  27.1314502  57.3536015  39.4787502
  27.3116326  57.5469160  37.9883981  10.0362313  95.9327316  31.7609167
   9.6297848  95.9218693  32.6274705  10.7564831  96.5579414  31.8420100
  19.8092330  65.5181074  26.7473817  20.7462645  65.7105637  26.7814732
  19.4996107  65.6763935  27.6391840  60.0843954  74.3209791  12.3433316
  59.9848318  73.7020206  13.0666661  59.6934605  75.1325369  12.6670194
 107.3140717 108.9804173  42.4724197 107.8117561 109.5012951  43.1026888
 107.1103573 109.5915794  41.7644501  65.8557367 108.5332680  88.0625916
  65.6951475 107.5919533  88.1287003  64.9845552 108.9280796  88.0999756
  98.5468388   6.1186695  72.5214529  98.9875031   5.6396776  71.8195868
  97.6153088   6.0435945  72.3144722  29.0267539  49.4990969   7.8912902
  29.3359613  48.8709784   7.2385383  28.8056993  48.9634943   8.6531919
  42.1067572  72.6951218   7.1305919  42.9354858  73.0879927   7.4046224
  41.4607000  73.0473757   7.7427667  19.7378504  85.9593773   3.1481835
  20.2950883  85.9915829   3.9257959  19.5718038  86.8774891   2.9343194
  81.2044907 100.1653671  91.5166187  80.4932785  99.6818066  91.0963917
  81.5667915 100.7123280  90.8196163 101.0107899  34.0488529  70.4650307
 101.6254902  33.5153365  70.9687567 101.4277840  34.1512966  69.6095467
  25.3519106  67.2048712  29.8387527  25.6344938  66.5085983  30.4316974
  25.6085062  68.0143976  30.2804112  52.4120188  67.0371103  11.7275286
  53.0878639  67.7108240  11.8022037  51.6039991  67.5250149  11.5685260
  71.6247845  17.3870707  81.6052151  70.8978081  17.3373032  82.2259045
  71.2889624  16.9744980  80.8094501  41.5429544  54.5636845  11.3331604
  41.9930649  53.8228703  11.7391539  41.4516211  54.3137598  10.4136896
   7.7579701  61.1025429  17.4227810   8.5265440  61.4578772  17.8691685
   7.1469557  60.8919430  18.1288552  53.9080334 107.3258877  81.1372089
  53.0986881 107.4106121  80.6332111  54.2508650 106.4651108  80.8968544
 109.3214035  18.1474257  77.5856400 109.3072605  18.6048651  78.4263420
 108.4530544  18.3024955  77.2139502   0.0277131  23.8431168  68.3987904
   0.8938035  23.4355855  68.4050179   0.1974682  24.7633672  68.1974077
  18.9855719  66.7931890   8.2739717  19.4811964  65.9749842   8.3075368
  18.2339275  66.6415882   8.8469297  38.6875415  82.3368835  33.3697867
  39.3782473  82.9229546  33.6791015  37.9512954  82.9165268  33.1743693
 116.1446381  82.5671673   8.7816024 115.6913948  83.1795979   9.3610227
 115.4543114  82.2111607   8.2221997   3.1792894  64.5830536  32.5064659
   3.7832183  65.2415466  32.8498149   3.7370214  63.9789152  32.0163822
  38.8818383  90.8635330  19.8515236  38.8299799  91.7711830  20.1510501
  39.4716406  90.4390430  20.4745555 113.0269814  24.8276377  62.4056530
 113.3038998  23.9193249  62.5261402 113.5336113  25.3201509  63.0514050
  34.5909643 102.5904369  23.1669378  33.7549567 102.7277565  23.6124325
  34.4613028 101.7920399  22.6551008  94.1901970   8.1946582  70.9177208
  93.4893894   8.0317485  70.2864027  94.9192047   8.5177755  70.3882265
  53.7925625  50.9468412  12.0302963  54.2043066  50.5903435  11.2431443
  54.2119312  50.4793262  12.7526486  11.1631072 101.1410809  42.3512840
  11.7535555 101.8780136  42.1946430  11.4239430 100.4838562  41.7061090
  32.9357409  52.5364733  12.4049211  32.0051980  52.3523283  12.5330424
  33.3792949  51.7367220  12.6875770  19.2601037  64.2677689  18.2276189
  19.3388700  64.4000387  19.1723585  20.1617932  64.2875624  17.9069996
  40.5180740  39.9617290  18.2187605  39.9117446  40.0535727  18.9537191
  41.3380861  40.3400707  18.5360408 107.3043442  41.7866182  85.3848267
 107.9633999  42.3434162  84.9702740 106.7917061  42.3857117  85.9275246
  85.2420330  71.4820290  83.1127167  86.0098076  72.0287848  83.2795048
  85.3541088  71.1803484  82.2112370  80.9177971  21.7871547  94.1917419
  80.0960445  21.9372964  94.6590805  81.3842869  21.1456370  94.7275352
 113.0680466  15.3007019  94.0639782 112.5771523  15.9011614  94.6249676
 113.4830475  15.8664608  93.4128857  13.8353395  60.7512331  15.3436184
  13.0350065  60.5538368  15.8301723  14.5429969  60.4568386  15.9170175
  97.0114136  48.0312157  66.8900299  97.5383854  48.2353067  67.6626062
  97.5695801  48.2691336  66.1497021  45.8392715  78.7017107  39.3959641
  46.4640808  79.4182301  39.2843938  45.5196428  78.8001251  40.2928400
  13.2661617  27.1489835  46.2060833  12.3968256  26.8758249  45.9130430
  13.6037445  27.6842999  45.4879570  49.9847937  51.7641687  24.8011422
  49.8281336  50.9356928  24.3480229  49.2260981  51.8704987  25.3749943
  43.2560587  54.9657393  23.6893559  42.9304600  54.4417000  24.4212055
  44.2062330  54.9741364  23.8048363  45.8742714  56.7949724  16.5022373
  45.9385014  57.6801491  16.1436725  45.5736637  56.2601614  15.7674980
  22.3731756  65.3063154  13.9790297  21.5077639  65.0166416  13.6902618
  22.2279096  65.6549644  14.8585606  60.6891346  60.6441402  11.1626065
  60.8491564  60.0170708  10.4573357  61.4392662  60.5423117  11.7484105
  63.5427570  97.5673199  82.7638340  63.6188364  97.3618126  83.6956120
  64.4324684  97.4715328  82.4240208 102.7984238   6.2659967  91.6159916
 102.3602581   6.4771676  92.4404049 103.1207180   5.3729755  91.7379475
  68.7537766  51.5653133  12.2341204  69.1924858  52.1787786  12.8235471
  69.2240715  50.7402563  12.3538375  57.6709700  32.3133302   9.9763149
  58.5548544  32.5663638  10.2426887  57.3185301  33.0920124   9.5454198
  55.5156565  72.3710966  24.6314573  55.7901955  71.5499592  24.2232990
  56.1082172  73.0290985  24.2679429  12.4532533  90.3892612  16.2629366
  11.8058467  90.8820248  15.7586753  12.0302725  90.2321529  17.1071148
 105.5914903  13.4665866  96.0381339 105.5723072  13.9814944  96.8448169
 106.3798810  13.7630887  95.5834242  43.7462807  75.6061649   7.0863819
  44.0451622  76.5096951   6.9837332  43.0436134  75.5117989   6.4432752
 117.7052784 101.7519569  75.0284481 118.4080791 101.4059162  75.5784941
 118.1570911 102.2541237  74.3502665  35.2312112  61.9524622  15.1666367
  34.5108128  61.6530275  15.7212484  36.0135984  61.5679646  15.5619395
  28.9442134  62.9877567   1.5189776  28.9623523  62.3520184   2.2343355
  28.7546182  62.4657345   0.7393774   2.5455862  10.4690301  86.6015911
   3.3419889  10.9997928  86.6179085   2.5104943  10.0631201  87.4677563
  21.2610269  68.8237000  25.1834011  21.3635373  68.1178284  24.5450687
  20.6777143  69.4506025  24.7556520  45.9673977  14.3494725  76.0233736
  46.5425014  14.9978721  75.6170845  46.2062073  13.5221505  75.6053543
 101.2817574  87.5447941  90.1630783 102.1259117  87.1801186  90.4288578
 100.7687473  86.7851067  89.8875237  37.0057988  63.6098719  23.3619499
  36.7415023  62.9871845  24.0391779  37.5047398  63.0852699  22.7357864
  35.7362270  65.0269032   1.9692431  35.0734615  65.0812769   1.2807542
  36.5663767  65.1687050   1.5142994  34.2959332  77.3865414   5.2282071
  34.9041414  76.7662907   5.6302083  34.7990131  77.7916193   4.5217681
  43.6820316  43.3482790  22.5608182  44.4227934  43.5977983  22.0083237
  42.9390287  43.3028269  21.9590616 102.7425671  49.5220900  91.6797638
 101.8933392  49.2242575  92.0058727 103.2034397  48.7175179  91.4420986
   1.9156374  31.5490770  69.9468231   1.1948188  31.6832590  70.5621672
   1.5768704  30.9139180  69.3159199  44.5805693  57.7925634  18.8499343
  44.6499348  57.6259756  19.7899699  45.0292969  57.0521355  18.4417212
  19.0159500  63.8892889  24.3605494  19.4598544  63.0447674  24.2832756
  19.2700934  64.2153454  25.2238750  63.2075787  90.3225231  96.0459328
  63.1834841  90.8141899  95.2250099  62.3342943  90.4385185  96.4202976
  16.7300582  59.3715382   7.5595814  17.3882961  59.0797424   6.9288594
  16.0212088  59.7228718   7.0207590  37.2459030  87.5558853  19.5286083
  36.7800307  87.4545383  18.6985934  37.3789644  86.6604042  19.8394728
  16.7227673  59.1237815   0.3822011  16.0621666  59.8163795   0.3703279
  16.4374756  58.5325902   1.0788507  32.9672766  96.7221069  24.2562342
  32.3845315  96.0569382  24.6225619  32.5677586  97.5549698  24.5071363
  40.3204298  94.8796463   4.0972751  41.1284113  94.8068047   4.6053055
  39.6468997  95.0829029   4.7463340  55.2370596  98.7052822   8.1345600
  55.6884527  98.3378124   7.3746639  55.3091955  99.6529579   8.0208278
  45.5961752  91.6056538  26.0932684  45.7238102  90.6876850  26.3326001
  45.9950447  92.0979309  26.8107653  34.2311883  72.7248430   6.6282278
  34.8815989  72.8664064   7.3160911  33.5310340  72.2336531   7.0580548
  42.2443056  71.1966372   4.9506313  42.2224855  71.8418026   4.2438635
  42.2201586  71.7188644   5.7524610  65.0377893  94.9302483   9.6806252
  64.5769215  95.0318718  10.5133927  64.3412590  94.8798943   9.0259945
  61.2079525  64.8751354  10.5455172  60.9264517  64.0863466  10.0820458
  61.9232655  64.5795774  11.1087251  55.6221819  66.2971401  23.0150151
  56.3770199  65.9241676  23.4703660  55.3230572  67.0042801  23.5866022
 104.4404030  30.1809406  59.9294472 105.3106880  30.2424836  60.3232050
 103.8463879  30.0892472  60.6744146  58.2320309  68.2680178   5.1921988
  57.8494835  68.3619213   4.3198034  58.7378740  69.0705919   5.3195709
  44.5944643  94.3729401  18.3543289  43.6685467  94.6040154  18.4285772
  44.9205685  94.3984318  19.2539048  48.2907009 108.6647129  66.4012814
  48.4887171 108.0967617  67.1459007  49.0599155 108.5952377  65.8358479
 117.9928303  60.7736063  94.6909237 118.7980747  60.6367970  95.1900291
 117.4801636  61.3803530  95.2250290  64.9600649  35.0492907  95.5786037
  64.5068169  34.4458222  94.9898529  65.2690077  35.7533789  95.0084686
  30.1888680  71.7800760   0.3718875  30.2886701  70.9496164   0.8372961
  29.5700479  72.2800636   0.9041512  38.3508277  83.1571960   5.8094978
  37.3976254  83.0705357   5.8208340  38.6106133  83.0651474   6.7261595
  36.2696362  82.0882797  10.5002809  36.5864611  82.8447533  10.0067163
  36.3039708  81.3635063   9.8759788  50.0794363  74.4065666  13.8218296
  49.9578428  73.9608669  12.9834974  49.1926193  74.5193243  14.1639841
  57.8152895  98.7121296  44.7572279  57.9468918  99.3566322  45.4525948
  56.9964266  98.9762020  44.3377495  55.6149197  54.0041018  28.5206914
  54.6635008  54.0688515  28.4379911  55.7531309  53.2922029  29.1454554
  30.8544064  54.5787477  18.3195674  29.9321127  54.6611738  18.0770540
  31.2131357  53.9547396  17.6885653  78.3255386  87.1245766   3.1861129
  77.9609728  86.2600994   3.3758309  77.6751900  87.5397110   2.6195991
   9.1143154  91.9830494  -0.2043562   8.5281681  92.2250204   0.5126638
   9.6134877  91.2400251   0.1347036  12.3261952   3.2502115  92.3540401
  12.2190928   2.3076582  92.4819279  11.8502223   3.6465472  93.0838394
  39.2009759  80.6099415  12.1943390  38.2761884  80.4052258  12.3325193
  39.6274495  80.3556538  13.0126846  21.7802548  17.2071242  91.5888309
  20.9326625  16.8283522  91.3556957  22.3633313  16.9464600  90.8758736
  16.0690033  27.6918221  79.6593523  16.6551614  27.4425840  78.9448357
  15.9726703  26.8940544  80.1794624  48.6573458   2.5232506  31.0267425
  48.9406061   2.7426848  30.1391363  47.8042507   2.1052754  30.9094524
  98.8481236  91.9527626  85.3669167  98.2785797  92.2025776  86.0945415
  99.7354126  92.0810223  85.7023335  31.6091561  34.0302491  12.7709651
  31.1868715  34.8779798  12.6321912  32.1848965  33.9226699  12.0138752
  39.0830493  73.0463219  45.6599283  38.7230086  72.2580481  45.2534437
  40.0023174  73.0547953  45.3932667   3.4129104   3.4472540  93.7352467
   3.6027169   2.5509369  94.0124130   3.6125997   3.9827612  94.5030880
 106.6899395 106.9731331  76.6350508 106.8526554 106.7509270  77.5517702
 107.5568199 107.1658134  76.2777948 110.0314140  30.8578730  88.0465603
 110.3508186  30.4864573  88.8689137 109.7364521  31.7380905  88.2798862
  49.7426558  87.0358562  27.5697899  49.8976231  86.0935593  27.6352644
  50.6168461  87.4173069  27.4890637 116.9144058  32.6349306  79.1670799
 117.4574757  31.8529105  79.2658043 117.5371170  33.3365011  78.9766598
  55.0575638  90.2874184   2.8269842  54.4760656  90.2834320   2.0666729
  55.4429388  89.4112968   2.8383762  52.0789003 106.7474174  22.8502488
  51.3387394 107.0841408  23.3552361  52.2000504 105.8533669  23.1699705
  19.4648826  15.9533823  94.7598553  19.1143525  15.0863802  94.5557213
  18.9719427  16.2357163  95.5302620  43.8454866  14.5265055  77.6188278
  44.4693708  14.5441854  76.8930960  43.4301138  13.6663675  77.5566959
  99.9238777  14.1889262  93.5623074 100.2068138  13.8383222  94.4068527
 100.6861401  14.6652496  93.2332134  34.7862172  77.4792176   0.8189649
  34.2909359  76.7108898   1.1028737  34.2981552  77.8142767   0.0667924
  65.0030088  66.4904642  50.5486155  65.5126858  67.1735620  50.1129103
  65.3133678  66.5007925  51.4540434  27.0825815  77.5048065  13.5636008
  26.4028287  77.7776003  12.9473603  26.9633460  78.0779886  14.3208861
  56.2499475  84.7901630  10.4457402  57.0887566  84.7793388  10.9067380
  55.6999445  85.3785229  10.9630013  32.3509836  50.8575726  76.3658285
  32.9207921  50.1941872  75.9766388  32.4926996  51.6386604  75.8309937
  58.6448765  67.1458197  32.5799417  58.7197065  68.0873537  32.4245548
  59.5108652  66.7982864  32.3666000   5.3889698   7.8631967  95.5249214
   5.2297002   8.6641204  96.0243130   6.1846936   7.4954593  95.9094048
 111.0695171  20.8163071  86.6616249 110.3469563  20.7900596  86.0343742
 110.8226585  20.1854658  87.3378849  91.5745544  28.0552864  77.3544264
  91.2988377  28.8585782  76.9129181  91.8451023  28.3421373  78.2266378
   7.0274615 109.8226643  62.2461557   7.6669383 109.4606781  61.6327524
   6.8874049 110.7201481  61.9442654  61.1649227  87.3074818  22.8173780
  61.4273167  88.0080891  23.4144855  61.4428091  86.5029621  23.2552743
   8.2254571  28.2351160  77.8135014   7.5212157  28.8232946  78.0861187
   8.8983512  28.8157392  77.4580860  38.6027741  96.6732407  16.2854147
  38.7658024  96.9886398  15.3964972  37.6662016  96.8159199  16.4221811
   2.1994685   3.6874551  91.3142014   2.8363264   3.2402942  90.7568073
   2.6347178   3.7613666  92.1635151  51.0012674  76.8994617  15.3822815
  50.3102970  76.8047857  16.0378957  50.7865715  76.2501526  14.7125554
  41.8576384  62.8596210  23.6252713  41.5485382  61.9591379  23.5261965
  42.7688980  62.8335285  23.3334541 110.5991554 102.1749878  64.0349770
 111.0566998 102.5521564  64.7863913 111.2808323 102.0587540  63.3731318
   9.2508262  25.6576300  65.4553080   9.4128776  26.5290618  65.0939512
   9.4367123  25.0597453  64.7312832  38.9042926 106.4969730  18.8994396
  39.2402577 105.6087494  18.7794232  38.0033112 106.3739204  19.1983092
  20.3024435  47.4327469  22.5654483  19.5596302  47.6351786  23.1342053
  20.4246092  46.4879179  22.6581883   2.1363452  11.1867774  92.2589588
   1.9416498  11.8618417  92.9090500   1.4535218  11.2887192  91.5959454
   9.5977169   2.3454879  33.7317252   9.7527915   1.7000371  34.4213462
  10.2183020   3.0498025  33.9189339 115.9200096 108.6370182  92.0073986
 116.8137169 108.4595013  92.3006535 115.5393314 107.7709675  91.8615246
 101.4950562  20.0900650  80.7735348 101.7290306  20.9716630  81.0638237
 100.7977390  19.8185432  81.3704109  60.5201769  90.9911633  18.7983382
  59.6895790  90.5640507  18.5887873  60.3911018  91.3477516  19.6772099
  59.2579412 101.0569286  54.6555471  58.3403492 101.2688923  54.8267984
  59.5312834 101.6928101  53.9943647  38.8178706  82.6850986  16.2661982
  39.5011830  82.7008152  15.5960727  39.2933679  82.7471066  17.0946240
  37.6077914  55.3307247  28.1949544  38.5425806  55.1631069  28.0753493
  37.1854830  54.8524857  27.4813890  50.3218079  59.3834782   8.5360783
  51.0797215  59.8850107   8.8365245  50.5103874  58.4830332   8.8003981
  18.4381723  90.2427769  43.1729794  18.5317755  89.9653053  42.2616720
  17.9620874  89.5268059  43.5936499  37.7073073  93.5316467  30.7826066
  36.9375563  93.4420300  31.3444614  38.4329748  93.6712456  31.3910055
  44.1699409  89.3105412  31.7449164  44.2341280  89.7802067  30.9133339
  44.3359613  88.3958626  31.5168238  52.9345465  55.3194714  14.2956793
  53.3858395  55.8654261  13.6518657  53.6358500  54.8402596  14.7369993
  33.8644457  23.7511396  76.6907215  33.1182504  23.2238173  76.4054871
  33.9797521  23.5236883  77.6133299  48.0512142  81.3024616  45.7766962
  48.2199955  82.2316551  45.6206417  48.8466120  80.8611965  45.4786110
  38.0409431  20.3947759   6.7113513  38.0486894  20.0085402   7.5871325
  37.2633767  20.9529376   6.7026114  37.7219391  19.9696386  93.2205200
  37.6830602  20.9245300  93.2743740  38.3348942  19.7155964  93.9104366
  22.8654957  78.2943916  13.6452699  23.5753918  77.8684282  14.1257203
  23.2987642  78.7205696  12.9057574 117.0535755  18.3275986  82.4063396
 117.9019737  18.6967623  82.1610165 116.6278076  19.0205038  82.9111481
   5.2221113  97.6362419  91.7478275   4.8362675  98.1025505  92.4893951
   6.1637831  97.7836132  91.8359661  16.5079331  35.0591063  95.4528332
  15.9278035  35.7624841  95.7442760  17.2100472  35.0427604  96.1032104
  17.0180154   7.6381522  95.7128143  17.7258933   8.2283050  95.4542446
  16.3317990   8.2177234  96.0436249 100.8955956  96.4285469  55.4714346
 100.9028912  95.6177902  54.9626541 101.3145733  97.0730209  54.9010515
  66.3351583  66.0319281  23.7050366  66.8712950  65.2441025  23.7950969
  66.8709612  66.7305088  24.0807104  53.1092739  61.6576481  -0.1886126
  53.6354446  60.8693314  -0.0547273  53.0142069  62.0336437   0.6865005
  82.0961380  93.6738586  95.7224941  82.6512527  94.1619205  96.3306713
  82.7032089  93.1080437  95.2454853  32.1801734  24.4756150  95.2533817
  32.2442675  25.4045916  95.0317383  32.9236221  24.3162656  95.8348656
  33.5645747  36.1302900  19.7192633  32.7517462  36.0531902  20.2188587
  34.2566156  35.9781814  20.3628302  95.6948948 111.2791252  77.9548550
  95.7442093 110.4710770  77.4441147  96.5867424 111.6264343  77.9403591
  19.2585373  89.9974155  34.1078258  18.4523022  89.4904423  34.2037177
  19.0210664  90.7165527  33.5224414  26.2601209  93.8331795   3.4148547
  25.3215647  93.9615631   3.5521951  26.3209677  93.0091572   2.9316276
 115.0019646  39.8914433  93.9128399 114.5683384  40.1446915  93.0979347
 115.9061718  39.7098374  93.6565876  48.1536722  84.3258190  40.5697489
  47.2588253  84.4428635  40.2507210  48.6173201  83.9181232  39.8382854
  20.7922792  67.0049286  23.1910610  20.1808476  67.2780895  22.5071263
  21.4398098  66.4688587  22.7332807  50.0422764  96.3416195   8.4707600
  50.5961561  97.0939445   8.2623118  49.1480064  96.6649628   8.3613777
  99.1425991  89.1023064  11.5719497  98.2996464  89.4655895  11.3004911
  99.0015316  88.8189125  12.4752867   4.5325232  19.2841232  88.1673431
   5.2544659  19.1519439  87.5528908   4.8699018  19.9177289  88.8005543
  32.4224687  56.8714380  30.0336790  33.1578755  56.7542887  29.4322777
  32.5617576  57.7376318  30.4164815  23.7952161  92.3295021  21.0767150
  23.9471388  92.2478485  22.0182490  24.0343142  93.2337093  20.8730555
  20.2239418  98.3275223  27.6786828  20.3273964  97.8750992  26.8415165
  20.6576014  99.1711235  27.5502276  19.4336057  19.4389343  82.0513058
  19.3839037  18.9425695  81.2343788  18.5226107  19.6410012  82.2645950
  21.5516520  16.5613306  77.6508808  20.7806015  16.8052757  78.1629372
  21.8607378  15.7504714  78.0548668  23.7211180  81.9211102  14.2242253
  23.2555413  81.8440056  13.3914435  23.8687778  82.8609276  14.3299556
  52.9512548  75.7530737  24.1646862  53.3368349  75.4245520  23.3525085
  52.0103359  75.7771254  23.9905405 108.4614170  58.1173561  96.5996178
 109.2911852  58.5234803  96.8501787 108.7101543  57.4162680  95.9972590
 107.8702450  34.2061234  91.6503143 108.4056854  34.6771073  92.2888279
 107.2345924  34.8540497  91.3463783  45.7211256  18.8515592  35.1630712
  45.2930784  19.1650319  34.3663645  45.0492144  18.3358002  35.6088972
  41.6785526  58.8107443  14.5538211  41.6857958  58.9261150  13.6036265
  41.7983723  57.8697300  14.6817553 115.5862045  49.8033190  93.8905334
 116.3754463  50.3347540  93.7861347 115.1334572  49.8792887  93.0506039
  38.5126615  59.0191555  13.2735097  37.8900528  58.4257078  12.8534985
  39.1624093  58.4409428  13.6731720  36.6844225   8.7605137  81.9042110
  36.8243408   8.7919348  82.8506088  35.7327008   8.7697506  81.8023586
 117.8851986 107.8896904  77.0745277 118.4005070 107.1696568  76.7108727
 117.1679401 108.0091667  76.4520359 109.6074963  13.1372082  85.5879307
 109.4679165  13.3017588  86.5204906 109.9767208  12.2547734  85.5530548
 112.0232249  48.6369271  95.7839539 111.8624902  47.9401917  96.4203141
 112.9289890  48.5023923  95.5051661  12.0326257  13.4194088  86.2556553
  11.9111168  14.3637919  86.1576366  12.9518294  13.3206654  86.5037441
  83.4347057   3.7600881  13.0062521  82.5142002   3.7232518  12.7463782
  83.6626530   2.8529418  13.2096183  79.8132610 110.6953812  81.8980885
  79.8503637 111.3077164  81.1633015  80.0442410 109.8486328  81.5161228
 118.2407487 118.2407487 118.2407487 109.4712190 109.4712190 109.4712190
