
38480  0.0000000e+00
  45.6637239  35.6318402  60.0217676  46.0473108  34.7131324  59.8516273
  44.8203659  35.4201674  60.5356169  46.2975645  36.1737728  60.5915499
  45.4150772  36.2991571  58.6595345  45.4607534  37.3776293  58.8109016
  46.4813280  36.1852241  57.5979853  46.2036800  36.7929244  56.7367601
  47.3389482  36.5964174  58.1304407  46.8478489  34.7248197  57.1915340
  47.1089935  33.8880992  58.0489683  46.9936228  34.4540000  55.9763098
  44.0696049  35.8622384  58.0853748  43.9706612  34.6713138  57.7113962
  43.0482197  36.7129397  58.0898046  43.3140326  37.5503445  58.5879993
  41.6753721  36.3027906  57.7998209  41.5516186  35.3075051  58.2266569
  40.5184841  37.1412349  58.4603977  39.6106434  36.6471338  58.1142902
  40.5461597  37.0171833  59.9773645  40.5981970  35.9561920  60.2216816
  41.4242458  37.4644923  60.4431820  39.5629072  37.3059344  60.3487635
  40.6380558  38.5374832  58.1051111  41.5163565  38.7915158  58.3977795
  41.5086985  36.1400890  56.2589025  40.6355333  36.8685865  55.7159662
  42.2546864  35.3339434  55.4763317  42.8849173  34.7285461  55.9826899
  42.2333527  35.2893662  53.9402437  41.9110441  36.2344050  53.5030746
  43.6329031  35.1511598  53.3992577  43.9479923  34.1185784  53.5495663
  43.5538960  35.3691649  52.3342085  44.5722532  36.0970616  53.9029026
  44.9020338  36.6713166  53.2078648  41.2743998  34.2528462  53.2613850
  41.0809660  34.1725230  52.0279169  40.4922152  33.5184169  54.0737677
  40.6128073  33.7051916  55.0589991  39.6861768  32.4251556  53.5983992
  40.3686666  31.6846347  53.1813431  39.0111732  31.8106365  54.8575211
  38.7854719  32.6363158  55.5323696  38.0928731  31.2736464  54.6198988
  39.8339415  30.7523727  55.5800343  40.7917404  31.2064147  55.8341360
  39.1360307  30.4040384  56.9231033  38.3263087  29.6875405  56.7849398
  39.8874855  30.1513648  57.6711464  38.7766171  31.3469863  57.3351526
  39.9893570  29.4488382  54.8220158  40.3774357  29.5377636  53.8073301
  40.5598640  28.7238503  55.4025507  39.0064335  28.9838099  54.7464561
  38.6962056  32.8370857  52.4868631  38.6414933  32.1527290  51.4847612
  37.9276180  33.9446282  52.5347757  37.7928233  34.8792982  53.6828423
  38.5437465  35.6674314  53.6275148  37.8540850  34.4523883  54.6838903
  36.4958644  35.6033635  53.5687304  36.7344904  36.5155125  54.1156673
  35.7977748  34.9367452  54.0750790  36.3956404  35.7742500  52.0683861
  36.8088365  36.7202950  51.7185736  35.3408504  35.8933139  51.8207169
  37.0476842  34.5483112  51.4347363  36.2267280  33.8484359  51.2788296
  37.8139043  34.8711634  50.1067305  37.1617818  34.9274516  49.0824509
  39.1391706  34.8756266  50.1421499  39.6519637  34.7173858  50.9977818
  39.9453402  34.8538399  48.8643789  39.3269730  34.7814083  47.9696846
  40.6902981  36.2712598  48.7450981  41.3421679  36.1887527  47.8754091
  39.6633625  37.3936653  48.4916687  40.2120256  38.3211851  48.3280325
  38.9532375  37.1932268  47.6893950  39.0819311  37.4825597  49.4093513
  41.3100958  36.5400410  49.9195194  42.0838690  35.9718227  49.9201822
  40.9826136  33.7594390  48.7389088  41.8733501  33.7436342  47.8806400
  40.7048750  32.6196957  49.4659376  39.9982142  32.6632357  50.1862431
  41.2711430  31.3236403  49.1792059  42.3188066  31.5069079  48.9406300
  41.2841845  30.4547119  50.4617977  42.0725250  29.7527099  50.1901054
  41.5501356  31.1076784  51.2930679  40.0006342  29.8426843  50.7643080
  39.4732928  30.6438160  50.8055401  40.6006432  30.6161165  48.0345011
  41.3390017  29.8716807  47.4144602  39.3358445  30.9340549  47.7609205
  38.9242125  31.6815948  48.3011484  38.5650015  30.3790569  46.6511202
  37.5708842  30.8234429  46.6026163  39.2111588  30.7100773  45.3077936
  40.1549911  30.2085805  45.0938272  38.4535575  30.4153347  44.5816660
  39.3648529  32.1926188  45.0492668  38.3521366  33.0712581  44.7732925
  38.9460707  34.2427087  44.4558716  38.4237957  35.1576376  44.2180777
  40.2606058  34.0635657  44.5282364  40.9254789  34.8055744  44.3624926
  40.5745077  32.7848363  44.8246336  41.5112686  32.2794175  45.0074816
  38.2050538  28.9327765  46.8357611  38.5340095  28.0865550  45.9928513
  37.6040053  28.6388540  48.0226183  37.4305868  29.3957257  48.6685038
  37.3986340  27.2830439  48.5264587  38.3482885  26.7864084  48.7254763
  36.6590333  27.3128796  49.9098349  36.6172004  26.3022947  50.3161192
  37.1533155  28.2442355  50.9399319  36.6415310  27.9946280  51.8693829
  38.1851840  27.9661083  51.1544037  36.9434190  29.2858791  50.6969690
  35.2984142  27.5623417  49.8211479  34.7708654  26.7614722  49.8647451
  36.5871501  26.4124560  47.5472975  36.8249607  25.2300358  47.3726416
  35.7493019  26.9970417  46.8050528  35.6803203  27.9838610  47.0088482
  34.9802685  26.3821650  45.6808519  34.4023132  25.5500793  46.0829782
  33.9701152  27.3514533  45.0841522  33.3711338  26.8473244  44.3257475
  33.2103086  27.5762224  45.8326674  34.6313000  28.5624003  44.5832157
  35.0084019  29.7104287  45.3486681  34.8422480  29.7285032  46.4156580
  35.7406688  30.7543373  44.7613907  36.0156155  31.5950799  45.3810310
  36.1206388  30.6274080  43.4319592  36.8822527  31.5943909  42.8782320
  37.2492790  32.1331286  43.5829687  35.5622125  29.6416116  42.6448393
  35.8276224  29.5681739  41.6005325  34.7942662  28.6438704  43.1983614
  34.3909621  27.8320098  42.6113129  35.8170724  25.7769275  44.5442724
  35.5349588  24.6074104  44.1183043  36.8573356  26.3927746  44.1402435
  37.0065832  27.3069358  44.5429039  37.7848697  25.8585095  43.1889629
  37.2853565  25.4256535  42.3222351  38.4304166  27.1134377  42.4749947
  37.7518249  27.9394317  42.2620440  39.0665007  27.4221277  43.3045769
  39.2033029  26.6853166  41.2156630  39.6447992  25.7019925  41.3776970
  38.2705832  26.8108892  40.0475550  38.8854051  26.6956115  39.1549134
  37.5121570  26.0448956  40.2092648  37.8045940  27.7962112  40.0572968
  40.3698540  27.6767659  41.0115147  41.0252428  27.2379732  40.2591658
  39.9532676  28.6119628  40.6374168  40.9215832  27.7917814  41.9445038
  38.6833334  24.7925568  43.8474894  39.0075803  23.8394094  43.1299496
  39.1913176  24.9714875  45.0703573  38.8686156  25.7259345  45.6592321
  40.0368738  24.0762353  45.8514690  40.3257227  24.6129942  46.7551041
  39.3506718  23.2980895  46.1857080  41.2811518  23.5209012  45.1225424
  41.6087866  22.3324728  45.3601170  42.0441389  24.3043661  44.3718195
  41.8237972  25.2899456  44.3583155  43.2312775  24.0095663  43.5737467
  43.2465506  22.9813838  43.2122087  43.2307100  24.8414516  42.3174953
  44.1150761  24.6347380  41.7147732  42.3317480  24.6186304  41.7427588
  43.1634188  25.9128451  42.5064087  44.5174646  24.2233181  44.4047022
  44.8142004  25.3706717  44.7533941  45.3200817  23.1752610  44.7627783
  44.8455954  22.2921753  44.6398020  46.4386892  23.2547474  45.7586193
  46.8213415  24.2534304  45.9691191  45.9617758  22.7783132  47.0819235
  46.8160582  22.7469659  47.7581739  45.2440786  23.4881949  47.4931240
  45.2488327  21.4457250  47.2279406  44.3952799  21.2921524  48.1641722
  45.4156351  20.6368351  46.2362385  47.6187372  22.3918056  45.4642773
  48.6213017  22.3198128  46.2224531  47.5146961  21.8163657  44.2544556
  46.7546320  22.1081352  43.6567307  48.6767483  21.2595057  43.6181402
  49.1783857  20.6050515  44.3309879  48.3382702  20.3718638  42.4140501
  47.7762985  20.9710836  41.6976547  49.2396832  20.0286365  41.9063520
  47.4626017  19.1450131  42.7746201  48.0186749  18.3820832  43.3194304
  46.7461777  19.4781733  43.5255146  46.5361309  18.3174527  41.3963032
  47.9643440  17.6789224  40.4208612  48.7561941  17.2854352  41.0582256
  47.7117872  16.9675469  39.6345615  48.3253622  18.5311341  39.8450994
  49.6920776  22.4026346  43.3113003  49.3263054  23.4378934  42.8172255
  50.9932709  22.2886968  43.5761023  51.2968540  21.4705253  44.0845680
  52.1483374  23.0300212  43.1193876  53.0709600  22.4666691  43.2590294
  52.0153761  23.4040689  41.6177416  51.2404633  24.1538072  41.4580297
  52.9963970  23.8062310  41.3648224  51.7337751  22.1870565  40.6934071
  51.1996794  21.3827682  41.1993361  51.1867380  22.5697184  39.8317695
  53.0737114  21.5845466  40.2393532  53.8186789  21.1617279  41.1122942
  53.2023716  21.2038207  39.0625143  52.3839617  24.2355847  44.0922928
  53.4611559  24.3415213  44.7480345  51.3961887  25.2442908  44.0684366
  50.6260633  24.9606156  43.4797668  51.2540722  26.4812541  44.8670769
  50.4762936  27.0773625  44.3897772  50.7057095  26.2035775  46.2950563
  51.2759018  25.3903365  46.7440796  50.8437634  27.1192002  46.8701077
  49.2510748  25.8037424  46.4414358  48.6581564  26.5228200  45.8762121
  49.1237354  24.8518205  45.9259415  48.7165928  25.5427790  47.8696442
  47.5146484  25.8364201  47.9526472  49.3823814  25.0764060  48.7963247
  52.5486279  27.2567201  44.9635887  52.8889847  27.7821875  46.0200977
  53.2263374  27.4577594  43.8502932  52.8757715  26.8621063  43.1138182
  54.2979193  28.3639646  43.6463737  55.0982332  27.9123950  44.2326164
  54.7193289  28.3814788  42.1399546  53.8976622  28.7509322  41.5263844
  55.5483150  29.0843105  42.0568419  55.0524044  27.0311379  41.4821625
  54.2489052  26.6169310  40.3666544  53.4788704  27.2827578  40.0059223
  54.4603395  25.3661394  39.7326541  53.8936329  25.0277257  38.8778329
  55.3818607  24.5385861  40.3714228  55.5540514  23.5610890  39.9456811
  56.0831499  24.8483372  41.5756416  56.6474104  24.0181446  41.9741344
  55.9575987  26.1860108  42.0935011  56.5235233  26.5946913  42.9175854
  54.0022516  29.7630119  44.2656040  52.8765011  30.3169799  44.2498636
  55.1493454  30.4188418  44.6601725  56.0367441  29.9547076  44.5290089
  55.0402641  31.7999744  45.1902199  54.0045500  32.1270227  45.0983858
  55.3317642  31.8541121  46.7063570  55.5391598  32.9069567  46.8976831
  54.4877672  31.6128778  47.3525572  56.5649796  31.0105658  47.1112013
  57.8837204  31.2652373  46.8249083  58.5721445  30.2297235  47.3627138
  59.6397209  30.1185656  47.2430372  57.7463484  29.3965292  48.0475950
  58.0052185  28.6271381  48.6485291  56.4719582  29.8846722  47.7917337
  55.6120872  29.5188284  48.3331919  55.7939959  32.9013610  44.4243765
  55.3785801  34.0434217  44.2568731  56.9843054  32.5129986  43.9507627
  57.2965622  31.5686369  44.1262007  57.9837799  33.4381413  43.4459925
  58.2041264  34.1385698  44.2515659  58.8415623  32.8665471  43.0916071
  57.4566364  34.2070866  42.2341585  56.5561152  33.8067389  41.4314747
  57.9267168  35.5036259  42.0241594  58.6058950  35.9395981  42.6314068
  57.4889994  36.4384818  40.8969402  56.4485121  36.1671662  40.7183981
  57.3696089  37.9208922  41.3050413  57.1000767  38.0366254  42.3548317
  58.3489656  38.3965707  41.2531948  56.4081478  38.6658835  40.3749943
  56.7073679  38.5436368  39.3340158  55.4432631  38.2177949  40.6122923
  56.4554453  40.1547289  40.6926155  57.4823999  40.4668427  40.5027485
  55.8072281  40.6942940  40.0021172  56.1477041  40.5240631  42.0639372
  56.1611319  39.8009801  42.7689695  55.7838869  41.6564274  42.5621557
  55.6840658  41.8259335  43.8330889  55.8490944  41.0227680  44.4228315
  55.3116703  42.7014446  44.1720533  55.4184437  42.7630377  41.8919849
  55.3014612  42.6887703  40.8915329  55.2025795  43.5687923  42.4614286
  58.3666182  36.2732458  39.6671486  59.4925785  36.7280507  39.5911264
  57.7820826  35.6081390  38.6477709  56.9604158  35.0551367  38.8456678
  58.4526587  35.4765940  37.3533964  59.5023155  35.1996779  37.4515533
  57.8175926  34.3284035  36.5592885  56.7527199  34.4736195  36.3774681
  58.3668184  34.0812063  35.2055120  59.3956375  33.7350821  35.3047204
  57.7271175  33.2889819  34.8165917  58.2941818  34.9650526  34.5717621
  58.0378628  33.1514573  37.3038006  57.1762037  32.7423811  37.4124503
  58.2506371  36.7969036  36.5269375  57.0221615  37.1426511  36.4131093
  59.2621899  37.4422908  35.9543943  60.1874971  37.0502663  36.0555124
  59.1522837  38.6139083  35.0356174  58.1319189  38.8018584  34.7015071
  59.5271921  39.9634719  35.7778668  60.5065823  39.8799682  36.2489533
  59.5754194  40.7704163  35.0466919  58.4697866  40.2933311  36.8989778
  58.1768417  39.4302702  37.4968123  59.0137339  41.3269091  37.8798270
  59.5077705  42.0904922  37.2790241  58.3241034  41.8770981  38.5199857
  59.7220612  40.7617950  38.4856534  57.1736050  40.8825827  36.3708520
  56.4997768  41.2297916  37.1541166  57.2626925  41.7583895  35.7281017
  56.7122269  40.0734997  35.8046198  60.0841904  38.4108377  33.7929869
  60.9663200  37.4950886  33.6995196  59.8727322  39.2176175  32.7246332
  59.1281891  39.8990393  32.7623677  60.6221628  39.1589904  31.4526677
  61.6251135  38.7516403  31.5801740  59.8648262  38.3451509  30.3493714
  58.8620520  38.7682438  30.2899146  60.3385115  38.5144019  29.3823767
  59.7860241  36.8409348  30.5626941  60.4370499  35.8448935  29.7995877
  59.8742819  34.6513057  30.2142954  59.8877621  33.6741877  29.7544503
  58.9567614  34.9272704  31.1879325  58.4504366  34.1607594  31.6076922
  58.9630222  36.3050222  31.4372683  58.3185387  36.8570852  32.1053052
  60.9663534  40.6126690  30.9097385  60.7060575  41.6670847  31.5564322
  61.8277264  40.7841206  29.9073792  62.1331167  39.9662733  29.3994808
  62.6187754  41.9882488  29.6446300  62.7535057  42.4808311  30.6075978
  64.0189028  41.5246630  29.1530943  64.6378613  41.1544895  29.9703860
  63.8784361  40.6893206  28.4671092  64.8141432  42.6648617  28.4624171
  65.8122492  42.4213886  27.7362013  64.6567869  43.8078547  28.9899206
  61.8044615  42.9508495  28.7080598  61.5838432  42.6228666  27.5691938
  61.3916445  44.1168308  29.2419815  61.7545700  44.3389750  30.1579690
  60.7329035  45.2801561  28.6098361  59.6768427  45.1089525  28.4012008
  60.7715130  46.4080954  29.5909142  60.0790405  47.1391916  29.1736841
  60.4264259  46.1157703  30.5826592  62.1855497  47.0581436  29.6886826
  63.0797338  46.3339043  30.0940061  62.3555613  48.2900429  29.4412279
  61.3381052  45.4959249  27.1903729  62.5763273  45.6094646  27.0226383
  60.4760027  45.5951452  26.1752033  59.5275021  45.6799316  26.5117359
  60.7529831  45.6300783  24.7574949  59.8055887  45.9309387  24.3102574
  61.7083549  46.7724991  24.3162036  62.7544832  46.4764166  24.3940043
  61.5316343  47.0214748  23.2698369  61.3799334  48.0979490  25.0636554
  60.2420425  48.6191130  24.9399734  62.2954893  48.7100029  25.6636357
  61.0887814  44.3269396  24.0599990  61.4852667  44.3805361  22.9176879
  60.9231520  43.2217360  24.7082973  60.7443333  43.2458401  25.7020473
  60.9742594  41.8933296  24.0913367  61.7103386  41.8733883  23.2876635
  61.4102030  40.8614731  25.1193047  60.5879927  40.7350111  25.8236408
  61.5539551  39.8634315  24.7053576  62.6647377  41.2877512  25.6637073
  62.4369144  41.9395304  26.3306999  59.6712255  41.4231014  23.4599590
  58.6377478  41.5509033  24.1398048  59.6931839  41.0022068  22.2308517
  60.6006718  40.8357859  21.8199182  58.3663082  40.6395626  21.5819120
  57.5513983  41.1686039  22.0760179  58.4846973  41.1594248  20.1085401
  59.4531488  40.8837605  19.6911454  57.3618269  40.6520271  19.1976666
  57.2686720  39.5716786  19.3084764  56.3996315  41.0581875  19.5096064
  57.5939846  40.9587479  18.1777966  58.2755375  42.7241945  20.0020385
  57.9266167  43.0826950  19.0336204  57.5367832  43.0646563  20.7275963
  59.5285416  43.5979986  20.1972556  60.1118517  43.1961155  21.0257125
  60.1977491  43.6056948  19.3369043  59.1355562  44.5670462  20.5048299
  58.0785418  39.1092253  21.7276597  58.5941315  38.3027077  20.9961367
  57.2840357  38.7849355  22.6803803  56.9783211  39.5265079  23.2941508
  56.8343544  37.4256206  23.0820537  57.6314878  36.7062855  22.8943372
  56.5895796  37.4902272  24.5926785  55.9410238  38.3231926  24.8640537
  56.1203957  36.5339947  24.8241639  57.9049063  37.6452613  25.4314756
  58.6623192  37.0276737  24.9487638  58.0245543  38.7277269  25.4767179
  57.7591181  37.0669389  26.8098950  56.6603088  36.9514513  27.2445941
  58.8560581  36.7735314  27.4828410  58.8821936  36.5028930  28.4555602
  59.7583532  36.9578409  27.0681167  55.5507517  37.0961738  22.1473742
  54.8114586  38.0086184  21.7847157  55.2225065  35.8201981  22.0463371
  55.7876492  35.1191878  22.5038314  53.8939142  35.3991246  21.5067410
  53.2313251  36.2646151  21.5070081  54.2118979  34.8012400  20.0735259
  54.9306822  34.0130162  20.2974749  52.9350901  34.1535568  19.3888056
  52.7300978  33.2351589  19.9389207  52.0701647  34.8130608  19.4599605
  53.1389236  33.9237666  18.3429825  54.9537134  35.7450271  19.0996373
  54.2699242  36.5397787  18.8014734  55.8521032  36.1790133  19.5385611
  55.2325916  35.1478410  18.2314813  53.2460499  34.3438196  22.3200345
  53.8473940  33.2788372  22.4994993  52.0448780  34.7227478  22.8388667
  51.7236710  35.5800939  22.4123836  51.3333321  34.0154076  23.9527655
  51.7375612  33.0033255  23.9331055  51.7047787  34.8035264  25.2441239
  51.2346125  35.7701254  25.0632095  51.0210180  34.2798638  26.4640284
  51.4828825  33.3287072  26.7287374  51.0552168  34.9755788  27.3024249
  49.9554682  34.1284490  26.2914395  53.1758547  34.9465799  25.6203151
  53.5489130  33.9319324  25.7596636  53.6669445  35.4061484  24.7625685
  53.4579611  35.7658386  26.9228029  53.2420540  36.8220830  26.7620945
  52.9511166  35.4647708  27.8396320  54.5102119  35.6278086  27.1714425
  49.8323202  33.7582111  23.6501408  49.1821289  34.6370959  23.2097745
  49.3039751  32.5589824  23.9636612  50.0327063  31.4277411  24.4378924
  50.6722927  31.6823816  25.2829885  50.6845856  31.1274838  23.6175275
  49.0133095  30.3314543  24.7375107  48.8021421  30.3293920  25.8068514
  49.4111633  29.3544531  24.4631433  47.7614546  30.6660223  23.9227176
  46.8469524  30.3918076  24.4486380  47.7168989  30.2384520  22.9210687
  47.8812647  32.1657038  23.7741923  47.6667023  32.5167441  22.7648139
  47.0161390  32.9283619  24.8495531  47.5846004  33.5354161  25.7559395
  45.7110500  32.8629065  24.7144628  45.3854227  32.2402096  23.9889860
  44.7870398  33.8926983  25.3672552  45.3266811  34.2153668  26.2576318
  44.3633127  35.0575352  24.3638992  44.0119076  34.7524714  23.3782220
  43.1262064  35.9780359  24.9415684  42.1523380  35.5692697  24.6721315
  43.2439423  35.9529424  26.0248995  43.2709932  37.0334077  24.7106433
  45.5326366  35.9484744  24.0604258  45.9697342  36.4425874  24.9281216
  46.3265848  35.4303861  23.5225296  45.2206993  36.6702795  23.3055711
  43.4509516  33.2778192  25.7966208  42.8662348  32.5639486  24.9814057
  42.9396915  33.5962534  26.9775820  43.5317373  34.0927243  27.6280403
  41.6800976  33.0379844  27.4620056  41.3123941  32.2849035  26.7650366
  41.9300079  32.3372746  28.8031244  42.2611094  33.0707264  29.5383286
  40.9452581  31.8904972  28.9400864  43.0284071  31.1563659  28.6730289
  44.0553904  31.4901447  28.5246921  42.9262447  30.3891134  30.0247240
  41.8896580  30.1420927  30.2539921  43.4842873  29.4554806  30.0955582
  43.1823301  31.0124993  30.8814120  42.5444221  30.2145076  27.6198697
  42.8198099  30.6113315  26.6427350  43.1031036  29.2879868  27.7522707
  41.4816284  30.0455928  27.7931881  40.6413507  34.1486812  27.6571608
  40.7830238  35.0146890  28.5251212  39.6087074  34.1477108  26.8290949
  39.5581603  33.5658479  25.4531693  39.8315597  32.5125599  25.3904104
  40.2762032  34.0121889  24.7652054  38.2410693  34.0204883  24.7553611
  37.4374771  33.3144736  24.9648523  38.4905338  34.1707611  23.7049866
  37.8898072  35.3956008  25.5148053  36.8210578  35.5987287  25.5827236
  38.2585120  36.2512541  24.9490976  38.4804106  35.1796436  26.9537544
  38.8306713  36.1462831  27.3157310  37.3095655  34.8266029  27.9126000
  36.4618492  35.6559610  28.1194043  37.3521066  33.6875439  28.6394024
  38.0737042  33.0583072  28.3177471  36.6828752  33.5081673  29.9784470
  35.5937529  33.4654307  29.9689555  37.2775340  32.1523476  30.4187393
  36.6627026  31.3691926  29.9751711  38.2999229  32.1595383  30.0408936
  37.2663546  31.8776035  31.9446135  38.1376243  32.3314214  32.4168825
  36.3935637  32.3058033  32.4375463  37.2309160  30.3781462  32.3783827
  37.2799897  30.1621127  33.5559249  37.1778440  29.3881726  31.5300012
  37.0544791  28.4708762  31.9342923  37.0290303  29.4451022  30.5326486
  37.0901895  34.6539378  30.9845448  36.3524222  34.9479437  31.9074798
  38.2061553  35.3027344  30.6634688  38.7340379  34.9498510  29.8780251
  38.6665964  36.4968395  31.3639712  38.2936335  36.4327502  32.3861694
  40.2125406  36.4949656  31.4283562  40.6364107  36.8342209  30.4831886
  40.5285692  37.5038791  32.5691009  40.0892448  37.1775818  33.5117698
  41.5843916  37.5985909  32.8228211  40.2143097  38.4943318  32.2399473
  40.8703423  35.1228476  31.8359351  41.9200468  35.2987528  32.0710635
  40.2900171  34.6821189  32.6465368  40.8917713  34.3773270  31.0410500
  38.1276608  37.7606058  30.7433701  38.8696837  38.5758662  30.1500082
  36.8449521  37.9137683  30.8672237  36.3566899  37.0762920  31.1506701
  36.0915375  39.1940165  30.5821371  36.4441991  39.5520520  29.6149039
  34.5197868  38.8681293  30.3400421  34.0786910  39.6537638  29.7265983
  34.5214701  37.9435945  29.7626925  33.7802339  38.6063361  31.5834332
  34.4085860  38.1524706  32.3497748  33.3219481  39.5185900  31.9653583
  32.4109483  37.5115275  31.3513517  31.7972255  37.5242877  33.0519867
  31.4631104  38.5246372  33.3272624  30.9847045  36.8062735  33.1631827
  32.6638746  37.2173500  33.6374855  36.2636900  40.2790833  31.6789579
  35.3622627  41.0783482  31.9731665  37.4117541  40.3532887  32.2953701
  38.1799436  39.7699165  31.9959307  37.7271247  41.4995670  33.2181478
  37.0816255  42.2937441  32.8430295  37.3236418  41.2613392  34.7007728
  37.5740480  42.1316957  35.3073025  36.2513018  41.0699320  34.6613812
  37.8661442  39.9937010  35.4227686  37.3778558  40.0841570  36.3930726
  37.4923992  39.0847635  34.9513412  39.6391416  39.7999787  35.8165169
  39.7770333  41.1444950  37.0707512  40.5085039  40.8879900  37.8370833
  40.0411606  42.0574808  36.5370917  38.8134027  41.1597633  37.5799465
  39.2015386  41.7694092  33.0177188  40.0142479  40.9107971  32.7195406
  39.5029473  43.0190849  33.1019902  38.8001418  43.6878920  33.3828211
  40.8789730  43.6166525  32.8862023  41.2611914  43.0590296  32.0311809
  40.8233595  45.1130486  32.4160075  40.4533768  45.7510757  33.2185864
  42.2773504  45.6370258  32.2279143  42.6262522  45.1312780  31.3275909
  42.1541977  46.7082119  32.0682263  42.9239273  45.4556990  33.0864978
  40.0691223  45.1481009  31.1077189  40.4591513  44.3926859  30.4255676
  39.0724039  44.7070837  31.0952783  39.8571515  46.5752029  30.4615498
  39.2619491  46.3951540  29.5663333  39.3898463  47.3158264  31.1105514
  40.8415365  46.9419765  30.1707458  41.6682100  43.3995247  34.1813445
  41.7579126  44.3045902  35.0351357  42.2691536  42.2381258  34.2954111
  41.9783115  41.5049314  33.6645865  43.3693075  41.8506861  35.2344942
  42.9373646  41.8599510  36.2352133  43.8339090  40.3653526  34.8839355
  42.9329014  39.7981691  34.6502924  44.4581032  40.4399395  33.9934731
  44.5733118  39.7658968  36.0901380  45.0550556  40.5379963  36.6900444
  43.6379576  38.9318013  37.0639062  44.2528248  38.4109306  37.7978897
  43.0553150  39.6695757  37.6155567  42.8734255  38.3864880  36.5105200
  45.7605648  39.0130830  35.5652404  46.4616203  39.7508931  35.1750398
  46.1925364  38.5135198  36.4323831  45.4779625  38.3846593  34.7206569
  44.6184683  42.6963520  35.2028131  45.0142908  43.2118320  34.1540217
  45.3098631  42.8039646  36.3265538  45.0774002  42.2228527  37.1192527
  46.6113377  43.5455561  36.4622307  46.9719934  43.6307383  35.4371572
  46.1404943  44.9826431  37.0189047  47.1163702  45.4646778  37.0773196
  45.2008963  45.8163214  36.1208725  44.2041826  45.3767395  36.0830617
  45.1354027  46.8320274  36.5109491  45.5777740  45.9082651  35.1022410
  45.6635857  45.0095940  38.4835958  45.6588936  46.0642290  38.7589622
  44.7230291  44.4731903  38.6090136  46.4239693  44.5498323  39.1148949
  47.5925207  42.7975798  37.2660351  47.2361183  41.8066168  37.9260778
  48.9364481  43.1357050  37.2155333  49.5008707  44.2366838  36.3844466
  49.2674541  45.1322651  36.9602466  49.1173840  44.2125177  35.3644204
  51.0417700  44.1563559  36.4502859  51.5408325  45.1126480  36.2936234
  51.4573765  43.2867193  35.9412670  51.1530685  43.5585928  37.8559041
  51.1515379  44.2912960  38.6629009  52.1390009  43.1128311  37.9875636
  50.0108814  42.5849962  38.0552578  50.2660704  41.6342449  37.5872374
  49.5993948  42.4052477  39.5432878  48.8719225  43.1867075  40.1226187
  49.9421644  41.2550640  40.1857615  50.4894352  40.5481911  39.7157407
  49.7582865  41.1724710  41.6324997  50.4506779  40.4966497  42.1344566
  49.7673464  42.1620655  42.0893669  48.3738661  40.6408548  41.9758081
  48.1030035  40.2305841  43.1210613  47.4177599  40.6976271  41.1090374
  47.7092171  41.1320925  40.2451038  46.0593510  40.2794838  41.3528013
  45.7690954  40.5103111  42.3777771  45.1834869  41.2496042  40.4412651
  45.2860308  42.2848177  40.7667303  45.4065514  40.9992313  39.4041276
  43.7356758  41.0135031  40.7031012  43.2760048  40.1000071  40.3258371
  43.4669685  41.0588837  41.7584848  42.9227591  42.0621967  40.0256205
  43.0863094  42.3710871  38.8571811  41.9124508  42.6618433  40.6528664
  41.1991119  43.0846691  40.0762653  41.6539478  42.3895693  41.5904951
  45.8761263  38.7692785  41.0447454  46.2295675  38.3572555  39.9588108
  45.4046011  37.9520655  41.9602203  45.0554514  38.3636808  42.8139019
  45.0371885  36.6039848  41.6352987  45.9002829  36.0833383  41.2204456
  44.6549225  35.8676076  42.9215908  43.8001442  36.3678193  43.3768415
  44.1818810  34.4628310  42.7616024  43.3206844  34.2410469  42.1313190
  45.0382376  33.9014888  42.3879099  43.9701366  34.0447140  43.7457037
  45.7500410  35.7926846  43.8468218  45.9597635  36.7062068  44.0544224
  43.9556837  36.4781523  40.6156874  43.0917931  37.3637295  40.3652859
  44.0001678  35.3354669  39.8937035  44.6126080  34.6002531  40.2169418
  43.1204891  34.9935150  38.7785888  42.2453690  35.6431913  38.7919807
  43.7869549  35.2974463  37.4628425  43.9012957  36.3696671  37.3035574
  44.7457266  34.7791934  37.4464488  43.0270672  34.7809196  36.2176657
  42.9649830  33.6931157  36.1870265  41.6041183  35.3299332  36.2841177
  40.9881687  34.6031332  36.8137145  41.5721273  36.3123631  36.7551899
  41.1254692  35.3735232  35.3058004  43.7329674  35.3831553  34.9448729
  43.2192659  34.9313736  34.0962839  43.6259127  36.4593434  35.0807238
  44.7887897  35.1652980  35.1057673  42.6376581  33.5410213  38.9340043
  43.4163713  32.6178575  38.6521220  41.3642168  33.1958866  39.3586421
  40.4446125  34.0759587  40.0170183  40.0444221  34.6883035  39.2089462
  40.9046507  34.6893573  40.7917500  39.3177629  33.1117964  40.4851437
  38.4832573  33.0483413  39.7868061  38.8133764  33.3684397  41.4167166
  40.0174570  31.7176151  40.5809212  39.2725158  30.9274745  40.4869127
  40.5837393  31.6358280  41.5086794  40.9351921  31.7490411  39.3943477
  41.6869116  30.9706879  39.5254350  40.0603056  31.5305328  38.1368017
  39.3455076  32.4004769  37.5685430  40.1808834  30.2624679  37.6395822
  40.7836819  29.6522784  38.1728816  39.7497916  29.7592974  36.3502932
  38.9504099  30.3918743  35.9643745  40.7430887  29.8019576  35.2380180
  41.4379930  28.9857292  35.4354382  40.1692581  29.5231223  34.3542361
  41.5940809  31.0900044  34.8650551  42.1082163  31.5826893  35.6902981
  42.5317812  30.6337643  33.7975788  42.0541143  30.0903153  32.9823494
  43.0312920  31.4365959  33.2553148  43.3245468  30.0267768  34.2348266
  40.6500816  32.0845866  34.1154099  40.0136852  31.5022016  33.4491324
  39.9960160  32.5568223  34.8484159  41.1880207  32.9026127  33.6362863
  39.2808485  28.2867360  36.3427615  39.8784781  27.4726963  37.0359015
  38.2534862  28.0282545  35.5391383  37.8040624  28.8150120  35.0928903
  37.7165723  26.6995645  35.3837633  38.3599496  25.9030795  35.7576299
  36.4054704  26.6057587  36.1668324  36.6146231  26.8699098  37.2034526
  35.7735634  27.4616170  35.9295487  35.6568933  25.3034282  35.9857655
  34.9328375  25.5053353  35.1964140  36.3930655  24.5583105  35.6841874
  34.8616219  24.8829389  37.2563887  35.4324913  24.7065353  38.3256292
  33.5364175  24.6009803  37.0802522  33.0361223  24.1731834  37.8462768
  33.0598664  24.6499038  36.1910915  37.4926114  26.3325906  33.8874269
  36.9167805  27.0259881  33.0245686  38.0974197  25.1649070  33.4014797
  38.6391234  24.5075059  33.9441442  38.1076121  24.8716545  31.9517994
  37.3776507  25.4937935  31.4339161  39.4329739  25.0878119  31.2594104
  40.1072025  24.2915201  31.5747404  39.2399120  24.9861646  30.1914692
  40.0142193  26.4957166  31.5757728  39.2650270  27.2810245  31.6762757
  41.0118866  26.3732505  32.7515864  41.7000771  25.5682182  32.4938536
  41.6159678  27.2542167  32.9685688  40.6331062  25.9906340  33.6993361
  40.8412409  26.8857646  30.3534007  40.2123833  26.9666290  29.4667768
  41.3748121  27.8170443  30.5434465  41.6014624  26.1270094  30.1677799
  37.6778007  23.3981824  31.7269826  38.0532432  22.4757648  32.4800873
  36.7674589  23.2856393  30.7942581  36.4117932  24.1171956  30.3446865
  36.2521505  21.9448137  30.3411984  36.8965816  21.1847091  30.7828426
  34.8828864  21.7119551  31.0261488  34.3928790  20.7624936  30.8104587
  35.0286818  21.6260839  32.1029377  33.9659405  22.8585052  30.7324672
  33.9721417  23.9502168  31.5699363  34.7179508  23.9587045  32.3510242
  33.0807900  25.0490689  31.3880587  33.1367135  25.9081960  32.0401168
  32.2789836  24.9561191  30.2149558  31.6550446  25.8103848  29.9974012
  32.1822500  23.8289356  29.4703603  31.4654803  23.7231827  28.6694503
  32.9863286  22.7161217  29.7538114  32.8757691  21.8500447  29.1181302
  36.1600876  21.7579365  28.7743568  35.8752322  20.5998015  28.3816934
  36.4640951  22.7558827  27.9624820  36.6057110  23.7356925  28.1625557
  36.5483379  22.4077582  26.4866590  35.6434202  21.8421125  26.2646794
  36.5445566  23.6392593  25.5885863  35.5971169  24.1065216  25.8571553
  37.4268603  24.1451740  25.9806180  36.6646051  23.2953238  24.1497374
  37.7929473  23.0325413  23.4140468  37.2982788  22.5991321  22.2444081
  37.8107119  22.3301983  21.3325477  36.0052323  22.5484490  22.2620654
  35.4135156  22.3851299  21.4600062  35.5621386  22.9442501  23.4415317
  34.5251346  22.9168916  23.7419868  37.8453708  21.6837549  26.0521507
  38.9004087  22.1566653  26.5781879  37.8685117  20.5324507  25.3424668
  36.8071127  19.9616981  24.5998573  36.8238115  20.3297997  23.5740280
  35.8176565  20.1425886  25.0198030  37.1178985  18.4721971  24.6089959
  36.7473364  18.0163097  23.6908722  36.8497777  17.9411972  25.5223703
  38.6370802  18.5378158  24.4914484  38.8327146  18.8379693  23.4620118
  39.0483832  17.5776136  24.8028040  39.0714931  19.6592891  25.3218174
  39.1956687  19.3073571  26.3459420  40.3495789  20.2999687  24.8688459
  41.4359379  20.0720739  25.4543948  40.3477716  21.1534119  23.8605428
  39.4736385  21.4945030  23.4868383  41.5468979  21.9644690  23.4571743
  42.3704720  21.2810206  23.2504439  41.0616446  22.6257873  22.1947145
  40.3899240  22.0085287  21.5981555  40.6921387  23.6456108  22.3020720
  42.3277521  22.8305292  21.3162780  43.0636930  23.2503176  22.0020366
  42.6661205  21.8607759  20.9513259  42.2183466  23.8136935  20.1783681
  41.2459230  23.7779593  19.4033933  43.1466007  24.7820139  19.9415493
  43.0138159  25.5610776  19.3126369  43.9994907  24.7065592  20.4772592
  42.0907688  22.8912687  24.5866442  43.3431911  22.9794049  24.8418880
  41.1633539  23.4997344  25.3165412  40.2096367  23.2302594  25.1218534
  41.4556503  24.5564175  26.3022184  42.1246576  25.2791524  25.8351111
  40.2324438  25.3930712  26.6991997  39.4969249  24.7170448  27.1352029
  40.5881166  26.1152577  27.4340773  39.6491241  26.1465311  25.4553437
  40.3457117  26.9472647  25.2069759  39.5866346  25.4782438  24.5965147
  38.2972360  26.7394614  25.8592629  37.5652146  27.0212722  24.8462796
  38.0336928  26.9728041  27.0654511  42.1230745  23.9129186  27.4813199
  43.2562923  24.3139291  27.9200482  41.5251637  22.7431798  27.8908277
  40.6359053  22.5238037  27.4651480  42.0646429  21.7672157  28.9092827
  42.1293926  22.2503781  29.8842025  41.1398840  20.5488920  29.0641427
  40.8426046  20.1792860  28.0827570  41.7574406  19.3228281  29.7676039
  41.1643600  18.4127021  29.6780133  42.7124023  18.9953327  29.3566179
  41.7756796  19.6475434  30.8079529  39.9104524  20.9512591  29.9297571
  40.2061939  21.7899966  30.5599666  39.1280031  21.3308978  29.2726803
  39.5893741  20.0710726  30.4867840  43.5052299  21.3664436  28.5845423
  44.3848467  21.5614986  29.3847823  43.7356806  20.8025312  27.3859692
  42.9018974  20.6000686  26.8531322  45.0584698  20.2599430  26.9566894
  45.3876066  19.3588686  27.4742198  44.8158216  19.8856032  25.5271626
  44.0623188  19.1000724  25.5843377  44.4239998  20.7218146  24.9480891
  46.0211229  19.3866026  24.8353338  46.1888170  18.5169363  25.2056837
  46.0932302  21.3621688  26.9776893  47.1498632  21.1597276  27.4102044
  45.7228947  22.4838424  26.4933562  44.7639179  22.5478745  26.1829257
  46.5679789  23.6810780  26.4483356  47.4775743  23.4725428  25.8850765
  45.9383821  24.8774481  25.7421136  45.7048893  24.5770264  24.7206807
  44.9941826  25.1419020  26.2181926  46.8787289  26.0775495  25.8000255
  47.0106983  26.4338732  26.8216515  47.8418446  25.6904149  25.4674149
  46.4864731  27.5358915  24.7503209  45.1644421  28.0910039  25.8889270
  44.2209148  27.5486183  25.8283496  45.5033112  28.1572223  26.9227982
  44.8579121  29.0070558  25.3839636  46.9643927  24.1406107  27.9085279
  48.1518745  24.3122959  28.1839323  46.0823107  24.1520810  28.9145923
  45.1281309  23.9620757  28.6434174  46.4552021  24.4998622  30.3102255
  47.0002747  25.4437208  30.2991271  45.1482105  24.7217441  31.0929275
  44.3014193  24.0949059  30.8134222  45.3392839  24.5240164  32.6205635
  46.0997438  25.2461576  32.9177380  44.4803095  24.7803569  33.2406902
  45.7730246  23.5537291  32.8624749  44.6584082  26.1454582  30.8602405
  43.8072872  26.3700175  31.5031028  45.4125357  26.9312644  30.8165979
  44.2410898  26.0877657  29.8549461  47.3251486  23.3822060  30.8706903
  48.4011841  23.6373568  31.4700484  47.0156860  22.1423364  30.5436540
  46.2957048  21.9584537  29.8596120  47.7608061  21.0007334  31.1124015
  47.9467154  21.0847664  32.1831369  46.9297838  19.7149277  30.8688045
  45.8930779  19.9123967  31.1414790  46.8693399  19.5099247  29.7999644
  47.6039219  18.5509050  31.6090178  48.5923910  18.3488250  31.1964726
  47.7061796  18.8817656  32.6425457  46.7661858  17.2911346  31.4940000
  46.4426470  17.2248018  30.4552388  47.2592926  16.3408399  31.6986799
  45.5442953  17.3280489  32.3249674  45.6924105  17.5187135  33.3056879
  44.2862177  16.9539773  31.9620585  43.9800978  16.4815891  30.7775664
  44.6071100  16.6326928  30.0003099  43.0414724  16.1260140  30.6651044
  43.4058237  16.9888997  32.8999352  43.7479544  17.2845399  33.8030648
  42.5198078  16.5040588  32.9003263  49.1950893  21.0042167  30.5231214
  50.1312542  20.4401040  31.1081553  49.3887186  21.6177988  29.3100429
  48.5360241  21.7905593  28.7970519  50.7171965  21.7320013  28.6848402
  51.2450409  20.8413196  29.0256739  50.6379509  21.5498686  27.1753907
  49.8332500  22.1363044  26.7319369  51.5741539  21.9354868  26.7717361
  50.4744864  20.1473713  26.6629267  49.6360970  19.3363047  27.0850158
  51.4204073  19.6371448  25.8861756  51.1884165  18.6926198  25.6138515
  52.0277786  20.3312564  25.4745817  51.4473057  23.0451369  29.1345406
  52.5905323  22.9969335  29.5534444  50.7387829  24.2018867  29.3402886
  49.7831106  24.2020869  29.0134978  51.3601160  25.4769540  29.8888040
  52.1736050  25.7751060  29.2274046  50.4208136  26.6910362  30.0179362
  49.5688438  26.4042592  30.6343794  50.9198618  27.5204086  30.5191278
  49.8128605  27.2315335  28.7690568  49.3780994  26.4641690  28.1285572
  48.8302898  28.3791757  29.0908337  48.5005379  28.8660026  28.1730223
  47.9357958  27.9458117  29.5382404  49.3149328  29.1438532  29.6978664
  50.9893417  27.8668284  27.9227972  51.7882967  27.1648574  27.6840281
  50.5588341  28.1989884  26.9781089  51.4731026  28.7001014  28.4324336
  51.9978189  25.2053857  31.2656641  53.1445312  25.5567527  31.5219259
  51.3433027  24.5516038  32.2349524  50.4354620  24.1674471  32.0150447
  51.9528008  24.2788434  33.6287165  52.2486305  25.2517438  34.0212154
  50.8982372  23.5268307  34.5335317  50.0600815  24.2236614  34.5383549
  50.4333353  22.1313953  33.8581300  51.2538767  21.4388704  33.6704779
  49.7883511  21.6955543  34.6211076  49.9052382  22.2780085  32.9159427
  51.3376045  23.2253766  35.9623146  50.5008984  22.8710055  36.5643430
  52.0674372  22.4159646  35.9446454  51.9330502  24.3697166  36.7248344
  52.0959520  23.9596868  37.7215481  52.8675461  24.7865844  36.3492846
  51.1865377  25.1552176  36.8423462  53.2663822  23.4504342  33.5993719
  54.1170216  23.6167383  34.5317030  53.5220242  22.6050973  32.6200795
  52.7734470  22.4275136  31.9657111  54.7473383  21.8670511  32.5452328
  55.0511360  21.5934896  33.5556674  54.5591974  20.5720329  31.5995073
  54.2101812  20.9635186  30.6439829  55.5406666  20.1589274  31.3667607
  53.6355782  19.4788706  32.1222425  52.6086807  19.8047340  32.2877622
  53.5828590  18.7252152  31.3365436  54.1540527  18.8261414  33.3740711
  55.1192188  19.2487860  34.0425110  53.4039640  17.8876388  33.8201070
  53.6562920  17.3610115  34.6441793  52.5007010  17.6954079  33.4111333
  55.9002781  22.6865458  31.9420767  57.0730305  22.2936034  31.9697404
  55.5970430  23.8800287  31.3151836  54.6182489  24.1091537  31.4129758
  56.4809227  24.7221112  30.4940367  57.4157429  24.1738200  30.3774333
  56.0229445  24.7768283  29.0490723  55.0799990  25.2769899  28.8281679
  56.7196417  25.3916621  28.4792519  56.0574627  23.3972573  28.4359741
  57.0141029  23.1362176  27.7495146  55.1721287  22.5154233  28.5093474
  55.3821516  21.6546655  28.0244899  54.2995310  22.6392627  29.0026355
  56.6449499  26.0186982  31.1922026  57.2087717  26.0895061  32.3019624
  56.2247324  27.1554089  30.6504512  55.9135485  27.1562529  29.6895838
  56.4954185  28.4749985  31.1868572  57.3770475  28.5231781  31.8260050
  56.6069746  29.5475245  30.0447726  56.9305754  30.4959536  30.4735684
  57.3438740  29.1525197  29.3454432  55.3611469  29.5881319  29.1815233
  55.4359102  29.2790318  27.9844737  54.2621565  29.9937654  29.6540642
  55.3550673  28.9584851  32.1035933  55.3712511  30.0767326  32.6785040
  54.3494987  28.0830789  32.3390961  54.4078684  27.1296620  32.0109367
  53.2705688  28.2558322  33.2332563  52.5777626  27.4253988  33.0972171
  53.7884331  28.2831550  34.7036552  54.3539095  29.2065883  34.8286104
  52.9345512  28.0937696  35.3541279  54.8328352  27.1225762  34.9218464
  54.3997526  26.1993957  34.5367813  55.7907152  27.3809409  34.4703937
  55.1034784  26.9472218  36.3816309  54.1390276  27.1522307  36.8462873
  55.4289913  25.9553146  36.6950941  56.0140228  28.0553150  36.9639492
  55.6498528  28.9965630  37.0031738  57.0459986  27.9141998  37.8225565
  57.5651932  26.8234515  38.3014798  57.3015547  25.8700895  38.0972767
  58.4769773  26.9360781  38.7210870  57.6249075  28.9778614  38.2541847
  57.1198320  29.8352933  38.0815196  58.4100962  28.8163614  38.8685966
  52.2608852  29.3926883  33.0160809  51.4336920  29.7018051  33.8451362
  52.1831465  29.9518013  31.7855978  52.9036808  29.6924305  31.1270738
  51.5815639  31.2912917  31.5322137  50.9908819  31.4349723  32.4369597
  52.6950788  32.3925281  31.5801907  53.4801197  32.1735740  30.8564019
  52.4041414  33.8475013  31.3902044  51.8362761  34.0463066  30.4813051
  51.8759680  34.2613006  32.2492170  53.3236170  34.4154572  31.2484670
  53.3917379  32.2323990  32.8744316  53.8663864  31.4072752  32.7500033
  50.6314278  31.4751959  30.3158283  50.8591986  31.0155416  29.2262173
  49.6284294  32.2611070  30.4948258  49.4176626  32.6152134  31.4169335
  48.7080717  32.7345276  29.4671011  49.1536045  32.5763607  28.4849691
  47.3543453  31.9619107  29.4257975  46.7048550  32.2966862  28.6169839
  47.5244951  30.9066558  29.2122769  46.5673685  32.2133064  30.7516146
  46.8433666  31.3187099  31.7963696  47.4159384  30.4327035  31.5649533
  46.1261082  31.6106606  32.9959655  46.3877296  31.0183549  33.8603354
  45.1915312  32.6543593  33.1036592  44.6328831  32.8176689  34.0134120
  45.1113319  33.5946202  32.0918369  44.3986273  34.4054437  32.1237612
  45.7281017  33.3099461  30.8971763  45.3995132  33.8806081  30.0411558
  48.4633303  34.2047334  29.5733213  48.7841892  34.7637343  30.6258774
  47.9034615  34.8453665  28.5057974  47.6639986  34.2118073  27.7565598
  47.6861429  36.2609053  28.3435774  48.3748007  36.8162060  28.9803600
  48.1402922  36.6571712  26.8347073  47.6683855  37.6013136  26.5626836
  49.2194271  36.8047142  26.7922330  47.8989553  35.8434272  26.1508417
  46.2397242  36.6385055  28.6082029  45.3239822  35.8454633  28.3668256
  46.0372639  37.8860879  29.0633941  46.8968105  38.3341098  29.3472099
  44.7264671  38.4849262  29.3462539  43.9248991  37.8270817  29.0103507
  44.4602013  38.7045097  30.8619261  45.1545191  39.4385600  31.2708187
  43.0708981  39.2276430  31.1440253  42.9364967  40.1571703  30.5908394
  42.3350859  38.4792256  30.8498263  42.9865789  39.4797683  32.2011089
  44.6813536  37.3904634  31.5643239  45.7493877  37.1749067  31.5948224
  44.1759062  37.3283482  32.5280523  44.3394136  36.5800500  30.9205794
  44.6566582  39.7183514  28.5205770  45.2542782  40.7696152  28.8416100
  43.9054775  39.7009730  27.4120045  43.4505320  38.8392949  27.1462226
  43.7230015  40.8892441  26.5553570  44.6308708  41.4924574  26.5520954
  43.3643341  40.5619144  25.1865268  42.4828482  39.9210739  25.2066088
  43.0032158  41.4077806  24.6015382  44.3806839  39.7300315  24.4276214
  44.5718718  38.7876725  24.9409509  43.9128017  39.4139576  23.0554557
  44.5891523  38.7077737  22.5738335  43.0207396  38.7978935  23.1685400
  43.6008120  40.2288151  22.4021816  45.5882645  40.6091452  24.3152881
  46.1411667  40.6483173  25.2538323  46.1839867  40.3351021  23.4445882
  45.3926945  41.6411495  24.0240598  42.6484060  41.8152523  27.1407151
  41.4849138  41.4795399  27.3556972  42.9874134  43.0787230  27.2956347
  43.9680576  43.3187389  27.2667074  42.1262646  44.0837336  27.8456783
  41.5219879  43.7345600  28.6829543  43.0812883  45.2023172  28.4889603
  43.6339521  45.7850504  27.7520156  42.4717283  45.8910131  29.0739751
  43.6618710  44.6092510  29.1955686  41.1999607  44.6935844  26.7606115
  41.4352274  45.8254194  26.2766433  40.1605988  43.9814806  26.2816143
  40.1724195  43.0003452  26.5210652  39.6567631  44.3268585  24.9521232
  40.4674006  44.1594934  24.2429304  38.5779595  43.2483864  24.5060849
  37.7020502  43.2724094  25.1543927  38.2475972  43.4801483  23.4935403
  39.1647029  41.8605661  24.4913316  40.0287104  41.4626169  23.4520674
  40.2350330  42.1450615  22.6408339  40.3614330  40.1357365  23.2663465
  41.0248613  39.8190618  22.4751520  39.9485755  39.1763043  24.2539072
  40.4229832  37.9797316  24.2342544  41.0698223  37.8653121  23.5341716
  39.1590261  39.5936012  25.3595591  39.1071701  38.8688707  26.1586070
  38.7814260  40.9334326  25.5058002  38.2299829  41.2662745  26.3727093
  39.0619016  45.7444859  24.8322821  38.2882214  46.1410332  25.6765604
  39.2919421  46.3684702  23.6814237  39.9946880  45.8978033  23.1294107
  38.6596537  47.5945616  23.2256055  38.7557864  48.3929586  23.9614153
  39.3463922  47.9249763  21.9027185  40.4161739  47.9806376  22.1041441
  39.1442037  47.1052074  21.2133622  38.9537048  49.2423725  21.4506459
  39.5028687  49.5007086  20.7068157  37.1962571  47.6029205  22.8061557
  36.3387060  48.4703350  23.0472088  36.8693495  46.3924408  22.2677279
  37.5208831  45.7123041  21.9029927  35.4392791  45.9137630  22.3570275
  35.0269794  46.3681078  23.2579637  34.6828985  46.3963032  21.1221480
  34.3743134  47.4113607  21.3722014  35.3039098  46.4895105  20.2312112
  33.3753538  45.6470633  20.8513045  33.3535504  44.5122433  20.3953481
  32.2384930  46.1183357  21.2040234  31.3877749  45.5741262  21.2187529
  32.3273945  46.9750166  21.7315602  35.4094434  44.3225718  22.5482559
  36.2144065  43.5638666  22.0174360  34.5789576  43.8881302  23.5160708
  33.8850665  44.5186663  23.8916302  34.7882414  42.4899626  24.0026379
  35.8545661  42.3302078  24.1624236  34.0859246  42.3301554  25.4000521
  33.0707169  42.7115726  25.2906251  34.0901160  40.8737135  25.8557534
  33.5248661  40.8424711  26.7872190  33.4784603  40.3276300  25.1375818
  35.0562119  40.3960276  26.0187554  34.8063207  43.1419992  26.5174913
  35.0923085  44.1649723  26.2728715  34.2448783  43.3373356  27.4311256
  35.7559419  42.6259470  26.6589618  34.2940569  41.5702486  22.8603792
  34.9997020  40.6131411  22.5246000  33.1025028  41.8315125  22.3118091
  32.6708245  42.6862192  22.6331043  32.3300910  41.0350513  21.3241839
  32.0924234  40.0604582  21.7505479  30.9763384  41.6420221  21.1369896
  31.0893726  42.5953245  20.6207275  30.4181218  40.9789562  20.4760504
  29.9874401  41.7737293  22.3404121  28.9684486  41.9430113  21.9924140
  30.0527716  40.8157253  22.8562260  30.2780390  42.8625154  23.3662701
  30.9095120  43.8588190  23.0452323  29.9056649  42.7145195  24.6549845
  29.9849272  43.5337925  25.2403164  29.2930126  41.9962740  25.0139856
  33.0751848  40.8088064  19.9835336  33.1992984  39.7269368  19.4248533
  33.7504721  41.8688536  19.5446610  33.6070752  42.7642202  19.9894667
  34.6199727  41.8247890  18.3403015  34.2218351  41.0536814  17.6807749
  34.6082497  43.2187128  17.6752400  34.8815322  43.8872337  18.4916317
  35.3484750  43.2875681  16.8781042  33.2540369  43.6644554  16.9938707
  32.4667430  43.6513901  17.7475941  33.3304977  44.6702528  16.5807998
  32.8062153  42.7758026  15.8751559  31.8227744  42.0082140  16.1048973
  33.4570789  42.6759958  14.8929226  36.1002231  41.4054108  18.6261511
  36.8323183  41.1985254  17.6525033  36.4930558  41.1789274  19.8973155
  35.7568598  41.0640430  20.5791688  37.8535008  40.5974150  20.3147006
  37.9496169  40.5938053  21.4004469  38.0303168  39.1708970  19.7691655
  37.9420042  39.2624640  18.6866140  38.9601326  38.7262511  20.1238942
  36.9255614  38.2135296  20.2444482  35.9568715  38.6735177  20.0491261
  37.0476604  37.2827411  19.6905196  37.0546246  37.9099774  21.7110467
  38.0714893  37.6876044  22.0345283  36.8264151  38.7644768  22.3481131
  36.2472296  36.7995071  22.1851230  36.6592717  35.9283185  21.8828750
  35.2666616  36.8250656  23.0082726  34.6721292  37.9063702  23.3972263
  34.9724221  38.8401914  23.1565952  33.7368631  37.7828574  23.7579513
  34.7144294  35.7066965  23.3418679  35.0683475  34.9349713  22.7948022
  33.8796401  35.5935216  23.8990259  39.0929914  41.4069176  19.7921979
  40.1038837  40.8493376  19.4344676  38.9498138  42.7309847  19.7995460
  38.0404115  43.0285215  20.1229119  40.0599289  43.6987782  19.4562197
  40.6889153  43.2264805  18.7016261  39.3986320  45.0005627  18.9170563
  38.5759521  45.2458572  19.5887172  40.0876236  45.8208561  18.7157869
  38.5860276  44.6942902  17.6195300  38.0906367  43.7429333  17.8134942
  37.7874851  45.4023075  17.3978508  39.3062758  44.6043968  16.2354803
  38.8850284  45.2546501  15.2716422  40.2487516  43.8165617  16.1695766
  40.8281088  44.1667223  20.6649685  40.2011824  44.5342112  21.6418195
  42.1505880  44.2034149  20.6663370  42.5861216  44.0061331  19.7766805
  42.9876375  44.6559429  21.7944932  42.4478817  45.4243755  22.3479152
  43.1575441  43.5252571  22.7730346  43.7409544  42.7559042  22.2672296
  43.6994839  43.7676811  23.6871624  42.1542311  43.1712198  23.0099273
  44.3794632  45.2107096  21.4071679  45.1013279  44.7183943  20.5444646
  44.6399069  46.4044046  21.9823861  43.9189243  46.8484831  22.5329113
  46.0107183  47.0237541  22.0389175  46.6296053  46.7488575  21.1847997
  45.8446646  48.5275793  21.9800782  45.1188612  48.8527679  22.7254391
  46.7232323  49.1043663  22.2691011  45.4933596  49.0146017  20.5093479
  45.9247112  49.9965286  20.3147960  45.8137608  48.4131289  19.6586597
  43.9921522  49.2918539  20.3606725  43.4155035  48.8278198  19.3354869
  43.4581518  50.0636864  21.1563969  46.8666029  46.7605639  23.2509089
  48.0742502  47.1226215  23.1802034  46.3593340  46.1423779  24.3223047
  45.3831244  45.8942223  24.2479396  47.0174503  46.1205292  25.6346107
  48.1067276  46.0944843  25.6046033  46.6322899  47.4444056  26.3327694
  45.5471849  47.4990606  26.2452459  46.8934631  47.2937775  27.3802423
  47.3745584  48.6992025  25.7945037  46.6224098  49.6980715  25.1038337
  45.5465651  49.6201229  25.0501537  47.2863579  50.8846235  24.8074126
  46.6931105  51.6293192  24.2976141  48.6227751  51.0694504  25.0786591
  49.0663433  52.0195580  24.8199368  49.3744612  50.0556135  25.6799626
  50.4238701  50.2276659  25.8684802  48.7120104  48.9218760  26.0988164
  49.2574978  48.1592035  26.6347051  46.5515089  44.8934364  26.3933730
  45.3840494  44.4090652  26.1019158  47.3355484  44.4948721  27.4290299
  48.1611872  45.0129080  27.6937222  47.0356512  43.3548450  28.3293080
  46.0095978  43.5251284  28.6553860  47.0070934  42.4942732  27.6609516
  47.9873323  43.0548573  29.4032526  48.8861990  43.8163280  29.6221232
  47.7441835  41.9932365  30.1446009  47.0458508  41.3605738  29.7810411
  48.5285759  41.5053844  31.2786269  49.4850016  42.0167303  31.3876081
  47.7618980  41.7558002  32.6337624  46.8885040  41.1338663  32.8299141
  48.7014723  41.4892292  33.8353419  49.4919682  42.2212553  33.6699533
  48.2223797  41.6047430  34.8075724  48.9391661  40.4272413  33.7738132
  47.2848845  43.0686378  32.7904558  46.3937902  43.1097555  33.1452250
  48.7411404  39.9957490  31.0676861  47.8645802  39.3174815  30.5231214
  49.8893738  39.4971299  31.5327787  50.5987930  40.1687527  31.7891955
  50.2560949  38.0893207  31.6475654  49.6360302  37.4327421  31.0372138
  51.7073822  37.8634977  31.2159395  51.9294977  36.7999029  31.1291671
  52.2902155  38.4275484  29.8687983  51.5300465  38.6488247  29.1196108
  52.7288437  39.3670678  30.2049756  53.0238438  37.7414155  29.4455862
  52.6196718  38.3583784  32.1630430  53.4885025  38.0956054  31.8504953
  50.0020552  37.4487352  32.9699993  50.1252222  38.1321573  33.9715362
  49.6683311  36.1826563  33.0021071  49.6394157  35.7127547  32.1085453
  49.2019320  35.4513645  34.1700625  49.6346951  36.0228515  34.9911690
  47.6946068  35.5961704  34.1530824  47.5774145  36.6656280  33.9780426
  47.2944736  34.9262047  33.3920717  47.3058939  35.1900434  35.0869250
  49.6736431  33.9652205  34.2389917  49.4670200  33.1170130  33.3964133
  50.3747797  33.6654687  35.3219151  50.4884720  34.3610215  36.0453653
  51.1667919  32.5097275  35.7109451  51.5066147  31.9357777  34.8488545
  52.4790907  32.8299475  36.4580345  53.2081842  33.4004331  35.8826470
  52.3652554  33.4861469  37.3209047  53.2879162  31.5586543  36.7807555
  52.7092981  31.0756135  37.5681400  53.1531572  30.9418845  35.8921981
  54.8006630  31.8259335  37.1125007  55.0490427  32.9370403  37.6463675
  55.7049179  30.9501052  37.0681977  50.2436495  31.6691136  36.5785336
  49.9776363  32.0506120  37.7270889  49.8425531  30.4942608  36.0464525
  50.1740932  30.3368664  35.1054883  49.2895794  29.3425012  36.8435526
  48.3967161  29.7047400  37.3531389  48.9155626  28.1610823  35.8435059
  49.7929955  27.6251435  35.4815793  48.1465006  27.0882463  36.6402268
  47.7673769  26.3801551  35.9033632  48.8332987  26.5345693  37.2804236
  47.3079920  27.3776579  37.2736716  48.0050945  28.5266256  34.6187162
  46.9848680  28.1582260  34.7260261  47.9614210  29.6143055  34.5626092
  48.5456562  27.8744698  33.3170080  47.9411936  28.1789207  32.4625897
  49.6043873  28.1076097  33.2037258  48.4875345  26.8038225  33.5130262
  50.2735567  28.9430857  37.9831290  51.4053106  28.4595037  37.7844191
  49.8065662  29.1703796  39.1940236  48.8850069  29.5314598  39.3951464
  50.5164909  28.7858129  40.4076719  51.4847660  28.3856869  40.1069355
  50.7518339  29.9286175  41.4139128  51.5664339  29.6686101  42.0898771
  51.1143160  30.8241463  40.9091902  49.6587324  30.3283596  42.2664499
  49.5003414  29.8674536  43.5558605  50.3356314  29.2663717  43.8835669
  48.4899902  30.2297640  44.4721174  48.2489634  29.7769594  45.4225302
  47.4718666  31.0569668  43.9395475  46.4890909  31.4480639  44.7720003
  46.7030287  31.4393377  45.7078171  47.5429630  31.5518665  42.5983477
  46.7548704  32.2251129  42.2949505  48.6259031  31.1476374  41.7931080
  48.6223841  31.4948559  40.7704496  49.9163675  27.6313567  41.2088537
  50.7306862  26.9769764  41.8602514  48.5941410  27.2723079  41.1406803
  48.0477667  27.8559160  40.5234480  47.9748535  26.2367320  41.9318056
  48.7468624  25.5408716  42.2602701  47.4519110  26.7019391  43.2707787
  46.6042233  27.3833323  43.1984997  47.1017265  25.8483243  43.8511372
  48.2277393  27.2891474  43.7620878  46.9055080  25.5777907  41.0718298
  46.1410570  26.2121129  40.3210592  46.7953253  24.2341590  41.0943508
  47.4772739  23.7778401  41.6832733  46.2904549  23.3190966  40.0539017
  45.6439590  23.9455891  39.4393659  47.4207926  22.8918600  39.1279578
  47.8095007  23.8141727  38.6962628  48.2026672  22.3816085  39.6904635
  47.0872593  22.0073938  37.9369140  47.1747637  22.5602627  36.5936208
  47.4051809  23.5958409  36.3914037  46.9316435  21.7211151  35.4702377
  46.8932915  22.1648407  34.4863486  46.5655422  20.3557706  35.6891966
  46.1508656  19.5936239  34.6446037  45.6259394  18.8806391  35.0156975
  46.3613558  19.8465872  37.0353770  46.1265516  18.8098347  37.2262239
  46.7310619  20.6322622  38.1118965  46.6510439  20.2193832  39.1066480
  45.3874207  22.3188543  40.7022142  45.6144619  21.8695641  41.8475246
  44.4501781  21.7615652  39.9590445  44.4129229  22.0518684  38.9923835
  43.4697676  20.6589484  40.3340340  44.0256310  19.8297966  40.7717800
  42.3891258  21.1735630  41.3359022  42.7520895  21.1686587  42.3636818
  42.0302629  22.1635795  41.0545111  41.1399221  20.2028728  41.5053034
  40.4625797  20.2826715  40.6550455  41.4156961  19.1595733  41.6588449
  40.4166555  20.6535912  42.7719927  41.1160183  20.5903697  43.6056566
  40.1755333  21.7051315  42.6163483  39.1814423  19.8573124  43.0461502
  38.6025381  19.5313561  42.2854090  38.5885286  19.6990156  44.1736794
  37.4661827  19.1491449  44.2761087  37.0545173  18.7707376  43.4350157
  37.0441222  19.0390742  45.1870728  39.1967583  20.1840949  45.2107620
  40.0619030  20.6925821  45.0964451  38.6833239  20.3140616  46.0707569
  42.8408289  20.2514362  39.0336609  42.8488588  20.9946084  38.0926681
  42.4528980  18.9829254  38.9569688  42.6585484  18.3846545  39.7442961
  41.8516207  18.3442163  37.7554917  41.2033319  19.0569043  37.2456789
  42.8841782  17.9669929  36.6056561  42.3146772  17.6798022  35.7217455
  43.4513807  18.8801944  36.4255428  43.8323832  16.9230711  37.0699501
  44.1059303  17.2829115  38.0618095  43.2762575  16.0053325  37.2612143
  45.0389004  16.7048395  36.1658692  45.0676441  17.3407674  35.1341939
  46.0563183  16.0111308  36.5159035  40.9888887  17.1213043  38.1980801
  41.4763451  16.3847184  38.9898586  39.8072958  16.8788445  37.5853181
  39.4612694  17.4622333  36.8369699  38.7850928  15.9370434  38.0984569
  39.2430687  14.9784625  38.3423471  38.2140470  16.4588749  39.4282866
  37.4876904  15.6901562  39.6920633  39.0244317  16.4448273  40.1571131
  37.5649071  17.8451288  39.3852329  38.4215546  18.5191023  39.3809962
  36.9570351  17.9486668  38.4864140  36.6302252  18.0307734  40.5386019
  35.4957700  17.4917853  40.5893517  37.0012951  18.8176835  41.4749050
  37.6863408  15.5960953  37.1134710  37.3613143  16.3869882  36.2124133
  36.9386911  14.4924688  37.2744250  37.3032117  13.8892400  37.9978490
  35.7937050  14.0816975  36.4861393  35.6959629  14.6448362  35.5580068
  35.8174849  12.6406229  36.0503125  36.2657285  12.1113384  36.8911695
  34.8081684  12.2802877  35.8514905  36.6083527  12.4416244  34.8057175
  36.0417795  12.7788687  33.9377546  37.5496078  12.9912138  34.8150921
  36.9932413  10.9916317  34.4269681  36.1614680  10.1476490  34.3218565
  38.2312965  10.6211817  34.4039631  38.4606910   9.6724820  34.1442633
  38.9408231  11.2411463  34.7677159  34.5566893  14.2961168  37.3518443
  34.4138598  13.7503111  38.4804153  33.5394120  14.9683452  36.7382216
  33.6018324  15.1938653  35.7557011  32.1307254  15.0060451  37.2472429
  32.2659135  14.6645641  38.2735085  31.5991449  16.4884615  37.4439144
  32.4207139  17.1063149  37.8063869  31.3940454  16.8623149  36.4407849
  30.2941370  16.7016160  38.2372308  29.7703958  17.8197253  38.1484222
  29.8065782  15.8787858  38.9946079  31.2185955  13.9749336  36.5207267
  31.5855265  12.8346729  36.1541867  30.0298285  14.3863082  36.1145353
  29.6171641  15.1831627  36.5780354  29.1640568  13.5281873  35.2832675
  29.4906735  12.5059032  35.4739428  27.7835870  13.5374451  35.8757424
  27.8677368  13.1146908  36.8768883  27.3518920  14.5370102  35.9269118
  26.8033004  12.7374291  35.0465727  26.1048222  13.2457745  33.9137244
  26.3144732  14.2671001  33.6320400  25.0823426  12.5068891  33.3562493
  24.5192003  12.9087639  32.5269318  24.8195267  11.2115741  33.7574577
  24.0106606  10.6802857  33.2780051  25.5074549  10.6799328  34.8902130
  25.1950955   9.7263801  35.2896762  26.4339447  11.4983284  35.5767751
  26.9652390  11.1055291  36.4310789  29.3104577  13.8900232  33.8390136
  28.9997315  14.9572003  33.3272076  29.6535873  12.8746104  33.0818510
  29.8374295  11.9823146  33.5178733  29.9667525  13.0097187  31.6025496
  30.4993367  12.1855032  31.1280775  29.0211630  13.1164515  31.0709786
  30.8129263  14.2271829  31.2798357  30.5796957  14.9621212  30.3567791
  31.7850041  14.4962037  32.0915890  31.7786860  13.9098954  32.9139662
  32.6667643  15.6132710  31.9290018  33.0526304  15.7311440  30.9164238
  31.9462061  16.9358683  32.3371029  30.8900619  16.8978786  32.0702386
  31.9117689  17.0120680  33.8750172  31.7387104  16.0412729  34.3394613
  32.9259086  17.3354805  34.1095996  31.1191416  17.7203286  34.1162848
  32.4468374  18.2446229  31.7937493  33.4897351  18.3606315  32.0887136
  32.4257112  18.0681586  30.7183361  31.5797496  19.4812870  32.0352125
  31.4163327  19.8115766  33.0610347  31.9772243  20.3016305  31.4375901
  30.6381178  19.2128325  31.5562963  33.9792204  15.4463351  32.6329708
  34.0908813  14.8948479  33.6931968  35.0007725  16.1042476  32.2043419
  35.0203300  16.6777408  31.3731837  36.3309860  16.3906348  32.9247451
  36.3115191  15.9690273  33.9297175  37.4006629  15.6663740  32.1138525
  37.2597551  14.6076012  32.3312092  37.1930361  15.9293866  31.0766363
  38.8453364  16.1217189  32.3650575  39.0206718  17.1063209  31.9315648
  38.9879394  16.3255727  33.4262896  39.9855161  15.1839888  31.8540287
  41.1623144  15.2369130  32.3337269  39.6717501  14.4326317  30.8836627
  36.6323352  17.9224300  32.9375219  36.5756583  18.6285269  31.9695616
  37.0640111  18.4248161  34.0578938  37.2004414  17.7003717  34.7483039
  37.2278905  19.7948337  34.4539928  37.1304750  20.4685545  33.6026931
  36.1163640  20.1092339  35.4499912  36.3712072  19.3954527  36.2333655
  36.1398959  21.5276885  35.9406018  35.6834865  22.1723938  35.1895046
  35.7277369  21.5863657  36.9479656  37.1630406  21.9030929  35.9591961
  34.6525908  19.8143041  34.8971605  34.3426728  20.5611038  34.1661739
  34.5255780  18.8548851  34.3956804  33.6924267  19.7850645  36.0253859
  32.6779556  19.5841134  35.6810451  33.9846992  18.9114678  36.6080546
  33.7321067  20.6066489  36.7405963  38.6398196  20.1242328  35.0992465
  39.0179706  19.6194434  36.1212897  39.4558787  20.9625888  34.4968128
  39.0115094  21.4674258  33.7433028  40.6778193  21.5665078  35.0650740
  41.2003040  20.8255625  35.6701446  41.5654993  21.8137860  33.8075399
  40.9753466  22.2437239  32.9982352  42.6838875  22.7867913  33.9954519
  43.3939362  22.4787521  34.7629499  43.1932545  22.8842521  33.0367303
  42.2028971  23.7009549  34.3433905  42.2551918  20.4885864  33.3967948
  41.5459204  19.6947432  33.1626058  42.9073620  20.6178784  32.5330448
  42.9245043  20.1079178  34.1682959  40.2314425  22.8658319  35.8936644
  39.3186188  23.5893273  35.5291414  40.9200525  23.0333829  37.0309782
  41.7347145  22.4534702  37.1728659  40.6238079  24.0146184  38.1397891
  40.0010681  24.7881913  37.6904774  39.8252487  23.3773088  39.3363571
  40.4202461  22.6283360  39.8589706  39.4412851  24.0949130  40.0614166
  38.5456848  22.6939917  38.8068604  37.9773021  23.4633589  38.2842588
  38.8068342  21.8089342  38.2267094  37.6841378  22.2410035  39.9622369
  38.2256913  21.5029645  40.5539465  37.4602270  23.1208658  40.5654001
  36.3332844  21.7171764  39.4008470  35.8694911  22.6149869  38.9922738
  36.6510105  20.9090114  38.7420464  35.5301309  21.1372948  40.5082846
  35.4372787  21.8932843  41.1715841  34.6179223  20.9763265  40.1057053
  35.9741926  20.3849578  41.0151386  41.9308233  24.6560121  38.5595536
  42.7730322  24.0559292  39.2199969  42.2093058  25.9094596  38.1075740
  41.4991617  26.3371634  37.5306296  43.5311985  26.5272450  38.2102299
  44.2311287  26.0474253  38.8943148  44.3537951  26.3148880  36.9445062
  45.3526449  26.7083526  37.1331453  44.6096706  24.8766160  36.5560913
  43.6231947  24.4188929  36.4822292  45.0786972  24.8238516  35.5735779
  45.1769257  24.3355417  37.3134303  43.7899303  27.0218778  35.6943917
  43.8877106  28.1071806  35.6686544  44.2882013  26.6809654  34.7868657
  42.7414703  26.7792225  35.5213165  43.4992933  28.0581021  38.5226083
  42.8068876  28.9018393  37.9704142  44.2292976  28.2820225  39.5935249
  44.6538115  27.5363016  40.1262379  44.5251656  29.6023870  40.2173758
  43.7167215  30.2618909  39.9018335  44.6264172  29.6090102  41.7334414
  45.1995420  28.7368989  42.0481634  45.1263332  30.5092788  42.0908022
  43.2330847  29.5577669  42.4344826  42.5255966  30.2586794  41.9914484
  42.8637457  28.5437179  42.2815418  43.1616879  29.8318458  43.9057255
  43.5027361  30.8526254  44.0783405  42.1931267  29.7029138  44.3888092
  44.1826630  29.0367579  44.7392750  44.1590929  27.9589891  44.5781565
  45.1879263  29.4074178  44.5388842  43.9006901  29.2699385  46.1706066
  44.0636873  30.2316141  46.4327526  42.9534388  29.0819001  46.4663458
  44.5654488  28.7501597  46.7256069  45.7757378  30.1336575  39.4936514
  46.8989849  29.6534514  39.7118711  45.6820869  31.1845613  38.7166142
  44.7473812  31.4977241  38.4967303  46.7081547  32.0576549  38.2444859
  47.5988626  31.4301682  38.2127857  46.3792610  32.3389745  36.7419696
  47.1601009  32.9886079  36.3465381  46.3052416  31.4206290  36.1595035
  45.4022169  32.8044820  36.6124105  46.9607258  33.3611703  39.0368867
  46.2249041  33.7389803  39.9548364  48.0254030  34.1481590  38.6828661
  48.7127352  33.7758970  38.0432510  48.4776354  35.3502774  39.3868923
  47.5533676  35.9106302  39.5277667  49.1642189  35.0305343  40.7455730
  48.4032583  34.7031307  41.4539862  50.3778505  34.0754509  40.6055355
  51.0095978  34.2781448  39.7407150  50.9269714  34.0610600  41.5470028
  49.9045420  33.1194067  40.3817892  49.6462488  36.3533187  41.3369274
  50.6094980  36.6035080  40.8923435  48.8867903  37.1249604  41.2108612
  49.8639011  36.4063597  42.9315805  50.5129862  35.5983543  43.2690954
  50.2559137  37.3690104  43.2598066  48.8617182  36.3297391  43.3533096
  49.2102242  36.3161421  38.4653091  50.1413870  35.8874750  37.7259064
  48.5842896  37.5499415  38.3318162  47.7461624  37.7902627  38.8416052
  49.0912676  38.5307813  37.3716545  48.9589739  38.1629801  36.3541484
  48.6383343  39.5191860  37.4491858  50.6146288  38.8130856  37.5968933
  51.0204887  39.0467143  38.7211704  51.3312197  39.0002489  36.4981222
  50.8699560  38.9904737  35.5996561  52.7877665  39.2603111  36.4216304
  53.1397581  39.3195248  37.4515319  53.5924673  38.2471585  35.6423759
  53.0682087  38.1393290  34.6928382  54.6214056  38.6006141  35.5756354
  53.6860085  36.9335747  36.4212513  52.8446436  36.2734675  36.2103748
  54.4977093  36.4381242  35.8885527  53.9733887  36.9696856  37.9349470
  54.8738956  37.5832462  37.9618859  53.0867720  37.3535442  38.4395766
  54.1794157  35.6181836  38.4487081  54.4047213  34.8639131  37.8159261
  53.9075422  35.2256393  39.6686482  53.5560465  36.0401416  40.6199837
  53.3905840  37.0291638  40.4992962  53.3828211  35.6933355  41.5526247
  54.0159035  33.9508510  40.0029039  54.2911816  33.2864904  39.2937136
  53.9557362  33.6940193  40.9778452  53.0000448  40.6879568  35.8711672
  53.4776258  41.4856625  36.5890288  52.7595186  40.8658838  34.5822191
  52.3779011  40.0468683  34.1309071  53.4595966  41.9091749  33.8979220
  53.7505817  42.7214861  34.5639396  54.7023630  41.2765312  33.3548546
  55.1844358  40.6706429  34.1220593  54.5007515  40.5079269  32.6087308
  55.6956959  42.2578192  32.8237844  55.3457308  42.7629137  31.9234991
  55.8540297  43.0379820  33.5683513  57.0221806  41.5502024  32.4737072
  57.1542311  40.3321362  32.4053168  58.0259943  42.3831797  32.2021079
  58.9601946  42.0157814  32.0908260  57.8479338  43.3619833  32.0279193
  52.5717926  42.4423122  32.7101851  51.9587183  41.6427422  32.0040131
  52.4776602  43.8042307  32.6130462  53.0269003  44.3396950  33.2700944
  51.8025589  44.5857430  31.5262961  50.7287312  44.4048691  31.5740633
  51.9233942  46.1396122  31.7868590  52.9981995  46.3091087  31.8514037
  51.5781355  46.7440987  30.9481144  51.2601185  46.6559505  33.0219913
  50.2372360  46.8956614  32.7315569  51.3091946  45.9023714  33.8079977
  52.0669699  47.9210138  33.4749508  51.5768433  48.3058739  34.3692398
  53.0672884  47.6334667  33.7986541  52.2278929  48.9512396  32.4133468
  51.3935423  49.2698193  31.9416761  53.2829618  49.5957851  32.0222545
  54.5175600  49.2711067  32.2668123  54.7112894  48.5809135  32.9782939
  55.2837801  49.7580814  31.8242574  53.1327248  50.5996609  31.2621045
  52.2282600  50.7082748  30.8259320  54.0416622  50.9850311  31.0489917
  52.4132633  44.4228840  30.1422906  53.5902405  44.1319799  30.0589013
  51.6135073  44.7287893  29.0555215  50.6115723  44.6619749  29.1639805
  52.1553087  44.6328545  27.6999950  53.1503916  45.0734901  27.6387835
  52.2738123  43.1929493  27.2646022  52.9254723  43.1710529  26.3911247
  52.8268099  42.6203918  28.0092335  51.0291815  42.2761011  27.1103406
  50.0790262  42.5339985  26.0551596  50.1993847  43.4859610  25.5594993
  48.9218378  41.8324995  25.9503245  48.1830740  42.0447826  25.1916623
  48.6662626  40.7595730  26.7779803  47.7493477  40.1922369  26.7163014
  49.6594000  40.4024792  27.6901889  49.4248438  39.5722485  28.3398795
  50.8255243  41.1582899  27.8844714  51.6159630  40.9113407  28.5777402
  51.3495541  45.4126358  26.6398168  50.2407312  45.8204651  26.9551635
  51.8669605  45.4856586  25.4415417  52.8453350  45.2865171  25.2891421
  51.2469673  46.1727047  24.3114781  50.2235365  46.4844084  24.5201135
  52.1270609  47.4258709  24.0601659  52.3182917  47.8936291  25.0259447
  53.1102085  47.1757841  23.6614513  51.3528395  48.4782028  23.2375216
  51.1066818  48.0580902  22.2623229  50.3689957  48.6852360  23.6585951
  52.1777153  49.7782946  23.0094028  52.5803852  50.1847887  23.9371538
  52.9782152  49.5525742  22.3048806  51.1984634  50.8080101  22.3052359
  51.1535740  50.6522942  21.2273479  50.2089214  50.8361101  22.7614355
  51.6597176  52.2238159  22.4415350  52.4605131  52.3437691  21.8378472
  50.9127426  52.8349400  22.1437812  51.8802452  52.4363232  23.4039855
  51.1101389  45.2318668  23.0896425  52.1162558  44.7037411  22.5957465
  49.9097538  45.0477982  22.6449728  49.1719675  45.5688000  23.0970049
  49.5764208  44.1859198  21.4690351  50.0737095  43.2264519  21.6112423
  48.0891752  43.7788582  21.3826632  47.5034189  44.6980524  21.3739467
  47.7993107  42.8478146  20.2019763  48.1974792  41.8581438  20.4258394
  46.7158079  42.7436304  20.1448607  48.1226492  43.1938171  19.2202258
  47.7797699  43.0644941  22.6952410  46.7310953  42.7684259  22.6682138
  48.4119320  42.1788979  22.7599478  47.9001331  43.7221193  23.5561371
  49.9943399  44.8096800  20.1466227  49.8092985  45.9579706  19.8331130
  50.6258535  43.9358759  19.3658853  50.7280731  42.9797840  19.6749735
  51.2500763  44.2658901  18.0987561  51.1785173  45.3084326  17.7887809
  52.7729273  43.9125443  18.1235111  52.7933121  42.8228760  18.1061077
  53.2163191  44.1508389  17.1567011  53.6921263  44.5216990  19.2249429
  53.5379362  44.0027380  20.1709938  55.1178932  44.2834473  18.7931550
  55.8143663  44.6318674  19.5558012  55.2011108  43.1988049  18.7243998
  55.3227186  44.7639608  17.8364670  53.5149002  46.0500240  19.4108105
  54.3947792  46.4703417  19.8978913  53.3050394  46.4879560  18.4349644
  52.6262283  46.1393261  20.0356221  50.6268692  43.5326147  16.8841887
  50.6074953  44.0323496  15.7951200  50.1017714  42.3066568  17.1627390
  50.0268078  42.0262241  18.1301272  49.3325520  41.4527845  16.1914182
  48.6161852  42.0620489  15.6403077  50.3393459  40.7662249  15.2893960
  51.1432219  41.4314747  14.9742389  50.7978487  39.9622703  15.8651841
  49.7327423  40.1058483  14.0515947  49.0294838  39.3821692  14.4636834
  49.2116880  40.8488274  13.4477830  50.7552242  39.3411756  13.2124269
  51.9466591  39.3385172  13.5136688  50.3039503  38.4492397  12.4331832
  48.5369062  40.4225683  17.0150614  48.9850664  39.9688959  18.0821443
  47.3392725  40.1057720  16.5785742  46.9111872  40.5973339  15.8070743
  46.5047169  39.0142369  17.0824230  47.0788813  38.6183262  17.9200912
  45.1131105  39.5042539  17.6776052  44.5286131  39.9957466  16.8998563
  44.6164083  38.6401820  18.1189406  45.2132845  40.5743790  18.7669146
  45.8821774  41.3216066  18.3399081  43.8629198  41.1433601  19.1934621
  43.2089472  40.3603888  19.5773602  44.0213442  41.8421841  20.0148320
  43.4114122  41.5059805  18.2700193  45.8838940  40.0081825  20.0462198
  45.3148031  39.1204119  20.3221059  46.9367504  39.7725105  19.8911285
  45.9567022  40.6454372  20.9275270  46.2854719  37.8853798  16.0894191
  46.0869789  38.0736518  14.9368644  46.4037991  36.6533589  16.5433478
  46.5583181  36.6577697  17.5414479  46.5702629  35.2998328  15.8466423
  46.1562061  35.3992391  14.8432577  48.1245089  35.0041509  15.8191776
  48.4875679  35.0135088  16.8468940  48.2824993  34.0239596  15.3693259
  48.9810753  35.9880471  15.0620461  48.5585928  36.0428309  14.0587461
  48.9653778  37.0139074  15.4300952  50.3976345  35.3859568  14.9229085
  50.8680439  35.4148602  15.9057510  50.2640009  34.3462563  14.6241379
  51.2485600  36.1110163  13.9427936  50.8528996  36.8345189  13.3596110
  52.4958229  35.8980846  13.6108601  53.0232573  36.8331552  12.9660690
  52.4761295  37.6692343  13.1134534  53.9766455  36.7362285  12.6470673
  53.2255125  34.8345757  13.8283587  53.0174065  34.1563058  14.5472085
  54.1990328  34.7882867  13.5633647  45.7268238  34.2291141  16.5786695
  45.0525522  34.4351268  17.5998402  45.8601618  32.9997039  16.0835660
  46.4748049  32.8681183  15.2929926  45.1740313  31.8454027  16.6503465
  44.6741152  32.0787978  17.5904036  44.1186380  31.2377048  15.6832337
  43.7111807  30.2875471  16.0286069  43.0337048  32.2603226  15.3348410
  43.3586454  33.2856727  15.1582885  42.6101017  31.9218278  14.3892801
  42.2000408  32.2492409  16.0369670  44.9000120  31.0052967  14.5028639
  44.8195934  30.0916290  14.2194188  46.1525917  30.7343960  17.0070410
  47.2625113  30.7025075  16.5319479  45.8197546  29.7559190  17.8371990
  44.9513912  29.7478771  18.3529329  46.8130064  28.7591529  18.3100581
  47.8114033  29.1820526  18.1984091  46.5047216  28.3804965  19.7729909
  46.2976885  29.3639803  20.1948881  45.6679344  27.6844978  19.8318470
  47.5317574  27.7078652  20.7331681  46.9889498  27.6273417  21.6749644
  47.7842140  26.7320228  20.3183222  48.7976456  28.5637593  20.8799648
  49.0721178  29.5876646  20.2449822  49.7327518  28.2220101  21.6995168
  50.5235958  28.8457131  21.7747784  49.7126913  27.4317598  22.3281670
  46.8043661  27.4608445  17.4460351  47.8419065  26.7829752  17.2069931
  45.6288815  27.1485806  16.9539845  44.9041748  27.8219748  17.1575618
  45.3143549  26.1054540  16.0797000  44.3529558  26.3669610  15.6376278
  46.2282085  25.8698988  14.8437607  47.1975803  25.4187274  15.0555634
  45.6830311  25.1543331  14.2282534  46.4119387  27.0040035  14.0319514
  47.0604706  27.6081777  14.4007063  45.0946856  24.7627425  16.7995012
  45.8559656  24.4299388  17.7173591  44.0067530  24.0158916  16.5581620
  43.8876247  23.2279253  17.1786618  42.8208303  24.3206048  15.7935297
  43.1842566  24.5504141  14.7919250  41.9108915  23.1403255  15.7317138
  41.5449095  22.8519320  16.7171013  41.0175848  23.4953785  15.2178621
  42.3577118  21.8405676  15.0393784  41.9646931  20.7139945  15.5015957
  43.0175924  21.9108176  13.9287317  42.0699453  25.5672193  16.2018144
  41.9299746  26.4784217  15.3397870  41.5777206  25.7163858  17.4056387
  41.5753222  24.8548889  17.9328203  41.0343790  26.9888330  18.0372632
  40.5218601  27.5902200  17.2864234  40.2833509  26.5639400  18.7032413
  41.9653177  27.8530598  18.7815869  43.1441164  27.6059008  18.6780417
  41.4244461  28.8627219  19.4825923  40.4145098  28.8516641  19.4801593
  42.0474291  29.5619035  20.6252480  41.2711000  29.8548532  21.3320684
  42.9335213  28.7197709  21.5194845  43.8304186  28.3632231  21.0129738
  43.5391521  29.5333743  22.6508307  44.1574717  28.9018512  23.2887626
  44.0836287  30.3952098  22.2649741  42.7234888  29.9485636  23.2427907
  42.1801567  27.4857879  22.1363974  41.3962317  27.8607035  22.7944303
  41.6969538  26.9719410  21.3053870  42.9966688  26.4986968  22.9484844
  43.2996273  26.9656324  23.8856530  42.5411797  25.5113602  22.8723574
  43.9407253  26.4023399  22.4122286  42.6952124  30.8535218  20.1372552
  43.5711002  30.7804108  19.2820036  42.4175358  31.9533610  20.7752824
  41.7522383  31.8386602  21.5264988  43.1234503  33.2467842  20.5036783
  43.1755447  33.3017516  19.4163096  42.4057150  34.5930672  20.9159040
  41.5010071  34.7037673  20.3181100  41.9758081  34.5421219  21.9162464
  43.1213617  35.9530377  20.7698536  43.7482548  36.1166859  21.6463923
  43.7722778  35.9934258  19.8964822  42.0830011  37.1251583  20.7885385
  41.2480211  37.2504926  21.6853952  42.0544863  37.8595734  19.6759188
  41.3307762  38.5557389  19.7840917  42.5329971  37.5856757  18.8296866
  44.6394444  33.1818700  20.9483480  45.0601625  32.4868011  21.8572116
  45.5120277  33.9520335  20.2602434  45.1952600  34.4222116  19.4243646
  46.9983053  34.1777444  20.5079961  47.1737528  33.9964509  21.5684009
  47.8076410  33.2385111  19.5876777  47.4949694  32.2086549  19.7601128
  47.7001047  33.4375858  18.5214198  49.3550587  33.2572865  19.8763382
  49.6594572  34.3035984  19.9024332  49.4817448  32.7781248  20.8471394
  50.1535177  32.5755668  18.7946081  50.5619431  33.2622552  17.8393149
  50.6153059  31.3763762  18.9352691  51.1209726  30.9570646  18.1680810
  50.1771164  30.8081269  19.6460247  47.4120808  35.5929804  20.2176023
  47.0323181  36.2357020  19.2231536  48.1020832  36.2752438  21.1394358
  48.4014416  35.8440924  22.0023370  48.6405706  37.6154399  20.8755040
  48.2038975  38.1605148  20.0386620  48.2016230  38.3462882  22.1517801
  48.5562181  37.9385805  23.0984211  48.5449982  39.3751478  22.0438957
  47.1137333  38.3289075  22.2173238  50.1691437  37.5674963  20.7604098
  50.8689928  36.8301868  21.4178753  50.6558275  38.5802102  20.0029850
  50.0102091  39.1414928  19.4661057  52.0475197  39.0270615  19.8261428
  52.7057314  38.2549095  20.2244377  52.2726011  39.1582751  18.3362353
  51.9617939  38.2207227  17.8752649  51.6521692  39.9181724  17.8611243
  53.6724663  39.5909691  18.0505109  54.0066767  40.4544210  18.6257136
  54.3546295  38.7794137  18.3037770  53.8324785  39.8902774  16.5297437
  53.7255669  38.9644504  15.9644878  53.1102180  40.5575037  16.0593724
  55.2887583  40.3169823  16.3944626  55.4280233  41.2297964  16.9736683
  55.8574724  39.5116997  16.8594337  55.6750059  40.5631685  14.9864805
  55.2158689  41.3840580  14.6184528  56.6795158  40.6586456  14.9424601
  55.4101944  39.7568202  14.4389617  52.2654057  40.3735685  20.5960226
  51.6478586  41.3980246  20.3145885  53.1954908  40.2873993  21.5346432
  53.7997627  39.4791913  21.5764952  53.2396650  41.2038708  22.6486063
  52.6139116  42.0486403  22.3606992  52.6392221  40.5949116  24.0087247
  52.6166821  41.3961554  24.7473741  51.2483168  40.0817060  23.8559508
  51.3827896  39.1103029  23.3801413  50.7845545  39.9649930  24.8354435
  50.6036091  40.8108282  23.3651948  53.4345579  39.4985723  24.6134281
  54.3246460  39.9122381  25.0874805  52.9173470  39.1098094  25.4906154
  53.7366819  38.7459397  23.8851666  54.6099854  41.7833233  22.9379225
  55.5677366  41.0682106  23.3226538  54.7481251  43.0831194  22.8919101
  53.9799309  43.6250544  22.5227475  55.9757519  43.8371325  23.3735490
  56.8989658  43.3169460  23.1182456  55.9874773  45.2505684  22.7467394
  56.0662889  45.1037169  21.6695523  55.0313663  45.7199955  22.9782224
  57.1787024  46.1030340  23.1572056  57.4546003  45.8227730  24.1737843
  58.0166721  45.9690094  22.4731374  56.7107296  47.5032520  23.1955767
  56.2156582  48.0354023  22.2029591  56.8665218  48.1688452  24.3298388
  56.4353371  49.0818977  24.3070364  57.1527767  47.6692152  25.1596165
  55.7989740  43.9568710  24.8789930  54.9644518  44.6726704  25.4221296
  56.5297365  43.1662512  25.7065487  57.2283125  42.5546932  25.3089428
  56.5693426  43.2547617  27.1431231  55.5690050  43.1262827  27.5565505
  57.6735258  42.2808933  27.6540947  58.5625267  42.4722910  27.0531368
  58.0892754  42.4274063  29.0943837  58.6406612  41.5307665  29.3774223
  58.8125038  43.2234001  29.2716980  57.2313833  42.4533510  29.7662854
  57.3221064  40.7523727  27.4684143  56.8926620  40.5479670  26.4876509
  58.1969547  40.1069880  27.5472569  56.0984087  40.3441048  28.3669019
  55.7986879  39.2976832  28.3097172  56.3419390  40.3604984  29.4292235
  55.2437115  40.9957027  28.1852245  56.9359779  44.6306276  27.7205324
  57.7048111  45.3792286  27.0205307  56.2791443  45.1074457  28.8241529
  55.5905008  44.5316696  29.2871356  56.5508747  46.3579130  29.5160294
  57.3668098  46.7857504  28.9335251  55.2293301  47.1540546  29.5241761
  54.4705725  46.4866114  29.9327230  55.3399992  48.0953217  30.0625706
  54.6096182  47.5401926  28.1185722  54.4486952  46.6256714  27.5477362
  53.2091475  48.1892776  28.3836484  53.3394384  49.1198301  28.9361048
  52.7424717  48.4150982  27.4248385  52.5316429  47.5401831  28.9384127
  55.4958487  48.6040878  27.4001837  55.4032898  49.5552063  27.9244971
  56.5271044  48.2517004  27.3790741  55.2219582  48.6614370  26.3467145
  57.0037794  46.1036921  30.9939313  57.1839714  44.9565458  31.3496256
  57.4585533  47.1399832  31.7425585  57.7655411  48.4537792  31.3135600
  56.9507742  49.1557407  31.4910746  58.0089331  48.5424042  30.2547860
  58.9723444  48.9256573  32.1684909  59.1428185  50.0020409  32.1476269
  59.8330402  48.3910036  31.7666888  58.6189747  48.3907795  33.5294294
  57.8519011  49.0844250  33.8737392  59.5225763  48.3486223  34.1375661
  57.9320192  47.0058107  33.1758261  58.6963844  46.2308693  33.1182766
  56.7614651  46.7355394  34.1646957  55.7242250  47.3708200  34.0123796
  56.9846058  45.9634638  35.1373434  56.6186953  60.4521990  49.9959326
  56.2597513  59.5490980  50.2710009  56.3466549  61.0670471  50.7496309
  57.6184273  60.3794432  49.8720312  55.9656668  60.9330559  48.7508488
  56.5815496  61.7599487  48.3972359  55.8272839  59.7996950  47.7195120
  56.8208408  59.5286179  47.3624897  55.4542112  58.8816071  48.1734133
  55.0760651  60.1644421  46.4806890  55.2856827  59.3904734  45.7423544
  54.0055943  60.1688957  46.6860580  55.5821228  61.4936781  45.9120846
  56.7748356  61.7791557  45.8061266  54.7241640  62.3164845  45.6753302
  54.5125437  61.3619232  49.0376425  53.7184334  60.5713034  49.5488167
  54.2951202  62.6269913  48.8203812  55.0303745  63.1596851  48.3779526
  53.0302811  63.3347368  49.2174149  52.8685379  63.0961132  50.2686071
  53.1916666  64.8142195  49.1411924  53.5011864  65.1629353  48.1559515
  52.1145010  65.6728411  49.6555138  52.0794010  65.5816031  50.7411194
  52.2714758  66.7419863  49.5127058  51.1308098  65.4101133  49.2663717
  54.2540789  65.1990414  49.9551201  55.0271988  64.9246883  49.4564962
  51.8602371  62.8848982  48.2740927  50.7327223  62.7842522  48.7878799
  52.0852327  62.5635004  46.9756937  52.9644108  62.7420902  46.5117455
  50.9991217  62.0094061  46.2050772  50.1209116  62.6493120  46.1192226
  51.5949011  61.6268539  44.8037958  52.1212006  62.4654245  44.3478298
  52.3368502  60.8398914  44.9390697  50.6471586  60.9523487  43.7367678
  50.5601072  59.9208641  44.0781927  49.2544031  61.6110134  43.6534500
  49.3634272  62.6831198  43.4897375  48.5366154  61.2246704  42.9298306
  48.7435627  61.4618731  44.6047115  51.1285400  60.9581137  42.2957802
  50.3815651  60.4546833  41.6820240  51.3688135  61.9980097  42.0744371
  52.0602751  60.4074144  42.1665573  50.4170418  60.7379055  46.8715382
  49.1642046  60.5550194  46.9825745  51.3059521  59.9066591  47.4648333
  52.3003817  60.0833082  47.4678183  50.8295631  58.6468458  48.0960703
  50.0942850  58.0983162  47.5073576  52.0937490  57.6921797  48.1269503
  52.9738474  58.1987906  48.5230303  51.8267536  56.8561745  48.7734127
  52.4479580  57.1441793  46.7576647  51.6548681  56.4441872  46.4947462
  52.4325705  57.9380655  46.0109329  53.8948536  56.0460949  46.8377638
  53.2714939  54.7990561  48.0303192  53.9524555  53.9514732  48.1078053
  53.1733799  55.1698923  49.0505886  52.2291565  54.5202637  47.8756857
  50.2320004  58.7683153  49.5304441  49.3669128  58.0041885  49.9051905
  50.8061600  59.7440481  50.2690411  51.4349651  60.3320312  49.7408581
  50.3367805  60.0614071  51.6502476  50.2754354  59.1450405  52.2372866
  51.2704468  61.1338997  52.2153234  51.4091253  61.9339848  51.4881802
  50.7204676  61.5552664  53.0567980  52.6020813  60.6145191  52.7939606
  52.8238487  59.3909454  52.9282045  53.4708786  61.4403152  53.2032967
  48.8603306  60.6722355  51.6078377  47.9734421  60.2161360  52.3627424
  48.5198450  61.4519930  50.5979776  49.1819715  61.7167425  49.8827124
  47.1491957  62.0368052  50.3643131  46.8473196  62.5778341  51.2611198
  47.2115135  62.9569101  49.1386032  47.7653599  62.4949980  48.3212948
  46.2096739  63.1176138  48.7403727  47.7166557  64.3565702  49.2451096
  48.8014841  64.3261671  49.3467236  47.5149679  64.8904467  48.3164549
  47.1740532  65.3247881  50.3314352  47.3980188  66.3693285  50.1149178
  46.0932636  65.2765131  50.4643059  47.7563763  65.0578737  51.6364813
  48.6791134  64.6475077  51.6525698  47.1101713  65.1497221  52.8336143
  45.8426332  65.4594564  52.9157591  45.4337072  65.8123112  52.0623064
  45.3280497  65.4275894  53.7842560  47.7209044  64.8313189  53.9069223
  48.7249947  64.8165226  53.7988138  47.2888231  64.9185896  54.8156500
  46.2277365  60.8880043  50.0711441  45.2597380  60.6099606  50.7434320
  46.6389322  60.0652790  49.0760946  47.4209118  60.3583479  48.5080051
  45.8831120  58.8667488  48.7925339  44.9143887  59.2721653  48.5004425
  46.4498901  58.0744457  47.5741577  47.5278091  58.2235098  47.6372194
  46.1207962  56.5706348  47.4723053  46.6342402  56.2381554  46.5701246
  46.5049410  56.0083914  48.3234358  45.0522137  56.3676739  47.4012995
  46.0721779  58.7558508  46.2484980  45.0009489  58.8218498  46.0582066
  46.2755632  59.8264694  46.2712574  46.7640686  58.2007122  45.0077820
  46.4071465  57.2673655  44.5723867  46.7875576  58.9453793  44.2121553
  47.8118563  57.9830742  45.2148390  45.5779696  57.9818726  50.0185394
  44.3615580  57.7964926  50.3392935  46.6008568  57.4816704  50.7576180
  47.5208998  57.6447630  50.3741837  46.5247583  56.7023420  52.0037556
  46.1167336  55.7633495  51.6297102  47.9381275  56.5019131  52.6225710
  48.4123802  57.4822474  52.5763273  47.7650690  56.2482166  53.6684179
  48.7827301  55.4932117  51.8595791  48.2913589  54.5255232  51.9607735
  48.8408804  55.8607149  50.8350468  50.1557302  55.3059769  52.4904346
  50.6636715  56.2703609  52.4827385  50.0711155  54.9920082  53.5308027
  51.0437202  54.3943119  51.6392708  50.6779861  53.3686161  51.5914917
  51.1822939  54.8406029  50.6545258  52.3868704  54.2255116  52.3250437
  53.0393600  54.9670029  52.1139812  52.1833515  54.2020559  53.3140469
  52.8267670  53.3404589  52.1170235  45.5884647  57.3259115  53.0313873
  44.8361111  56.6382170  53.6902618  45.6210089  58.6977911  53.1627369
  46.3394356  59.1786337  52.6404810  44.7909880  59.5296574  54.0945673
  44.8522997  59.1195107  55.1025963  45.3759861  60.9493685  54.2445469
  46.4378262  60.8560514  54.4723320  45.1583433  61.4464188  53.2992077
  44.7774172  61.8000031  55.3616333  45.3943968  62.6982260  55.3364325
  43.7220621  61.9732618  55.1511383  44.8014736  61.1480331  56.7647076
  44.2506027  61.8294477  57.4130201  44.2894411  60.1934290  56.6436100
  46.2896347  61.0561705  57.3296261  46.8883848  60.5538750  56.5698242
  46.5908670  62.1037245  57.3282385  46.3385010  60.4612780  58.7222433
  47.1285343  60.8731604  59.1979504  45.6252670  60.7593918  59.3722630
  46.3549376  59.4514132  58.7223053  43.2695961  59.4829988  53.7837458
  42.4981117  59.4034338  54.7148752  42.8627443  59.4870472  52.4972200
  43.6502934  59.5445442  51.8674898  41.4977598  59.0846300  52.1026897
  40.8193350  59.5622683  52.8095913  41.1753368  59.4908381  50.6848288
  41.8564415  58.9671278  50.0140667  40.1818609  59.1000080  50.4649258
  41.3048697  61.0083771  50.3094959  42.2360277  61.3496304  50.7618141
  41.4234209  61.3310194  49.2751169  40.2669621  61.8753433  50.9561825
  39.4457579  61.5126514  51.7806005  40.0822401  63.0902100  50.5073977
  39.2316818  63.5540390  50.7929087  40.4692268  63.3950615  49.6256876
  41.2564659  57.5889111  52.4450636  40.3103876  57.3435926  53.1029940
  42.1415854  56.6963148  52.1061325  42.9348898  57.1173763  51.6440964
  41.9941950  55.2011204  52.2252655  41.1508560  54.9355221  51.5878153
  43.2317495  54.4602776  51.5820312  43.5326290  54.8311996  50.6022406
  44.0831804  54.7175503  52.2120953  43.0583191  52.9628372  51.3566685
  43.0263233  52.4371910  52.3110151  41.7948294  52.4127579  50.5708170
  40.9238958  52.5714874  51.2067318  41.6292906  53.0205011  49.6812439
  41.8353939  51.3526344  50.3206348  44.3204927  52.4010086  50.6605768
  45.2547026  52.5921059  51.1886263  44.2498350  51.3298368  50.4716492
  44.4116926  52.8846693  49.6880293  41.7850351  54.7229004  53.6247063
  41.1058807  53.7036848  53.8495302  42.2483015  55.4870272  54.6161652
  42.7708197  56.3037252  54.3331814  42.0479774  55.2710962  56.0329914
  42.0426607  54.1956568  56.2104797  43.2612562  56.0072231  56.6989470
  44.1879129  55.8276939  56.1538172  43.2283831  57.0844555  56.5358686
  43.3684778  55.8150291  58.1435299  44.3136978  56.2522554  58.4652233
  42.6380825  56.4514875  58.6430693  43.3733749  54.3633032  58.5601187
  42.3969841  53.9590836  58.2929802  44.0483665  53.7454176  57.9679108
  43.4995890  54.1925478  60.1030302  44.3585920  53.7304401  60.3650856
  42.5039339  54.5267248  60.9452724  42.7254629  54.3797159  62.2192621
  43.6913252  54.3165541  62.5077391  42.0782566  54.8169088  62.8596354
  41.4533567  55.1761246  60.6289244  41.2867641  55.3685999  59.6515322
  40.6491995  55.3522396  61.2140846  40.6938839  55.7987261  56.5732622
  40.4453135  55.5018139  57.7736807  39.7571826  56.4404964  55.8248520
  40.0200081  56.6261768  54.8674870  38.3926296  56.6567421  56.2034416
  38.2136750  56.2414312  57.1952105  38.0511117  58.1443167  56.1244345
  36.9913197  58.1576300  56.3789225  38.6769199  58.6042547  56.8892431
  38.1150889  58.7932348  54.7098351  39.0468812  59.3535614  54.6330309
  38.1381869  58.0468273  53.9158297  36.9313288  59.6723032  54.4073439
  36.8605995  60.7584095  55.0401402  36.1960292  59.4153738  53.4307766
  37.4148011  55.8291721  55.2814293  36.3108134  55.4550028  55.6690359
  37.8732085  55.4768705  54.0916681  38.7164330  55.9404469  53.7847948
  37.4191761  54.3655109  53.2104206  36.3682818  54.5388699  52.9787588
  38.1249785  54.3533325  51.8384361  39.1954064  54.3928480  52.0402384
  37.9843354  53.3750153  51.3788605  37.7084565  55.3667784  50.8388662
  37.6552916  56.7110968  50.9745836  38.0588317  57.2555590  51.8154907
  37.4068928  57.3001623  49.7935677  37.4193120  58.2989597  49.6440840
  37.2197819  56.3895369  48.7980938  36.8620110  56.5700293  47.4295759
  36.7245317  57.5734997  47.0546818  36.6713738  55.4503632  46.6436672
  36.3568139  55.5568409  45.6159925  37.0137429  54.1755199  47.1386623
  36.9840050  53.3372307  46.4583778  37.3770738  54.0146351  48.4891462
  37.4938011  52.9952192  48.8261461  37.4589467  55.1209736  49.3914175
  37.4058104  52.9506063  53.7745953  36.4541149  52.1633244  53.6487007
  38.4276223  52.6228762  54.5085907  39.2714453  53.1776857  54.5245743
  38.4842086  51.4322138  55.3273726  37.4576592  51.3090134  55.6725073
  38.8564491  50.1623440  54.5572901  38.2808113  50.0923967  53.6343336
  39.8886561  50.2567387  54.2200232  38.5839486  48.8446426  55.1782465
  38.4481215  47.8003216  54.5204973  38.6290479  48.7876081  56.4619541
  39.3551803  51.6524649  56.5605640  40.5582523  51.8055010  56.4548111
  38.7343264  51.7393351  57.7355909  37.7669859  51.4532423  57.6855898
  39.3647146  52.2265816  59.0091324  39.8888302  53.1746531  58.8884354
  38.1984568  52.3995161  59.9918318  37.3555923  51.7567873  59.7377062
  38.6008048  52.0292091  60.9347486  37.5067449  53.6986303  60.0651073
  37.7324224  54.3423653  59.2149401  36.4265323  53.5870504  59.9713039
  37.7239656  54.5036697  61.4266205  38.7784672  55.0239134  61.7959023
  36.8039513  54.4871378  62.2980070  40.4563951  51.2405443  59.4656897
  41.3532782  51.7454958  60.1234627  40.4500198  49.9898291  59.0440750
  39.7612286  49.8331213  58.3221960  41.5402126  49.0050268  59.2291355
  42.4662495  49.5610380  59.3754435  41.1738682  48.1684399  60.5740118
  41.0948467  48.8762951  61.3991165  40.1664162  47.7523422  60.5716896
  42.1447802  47.1029949  60.9870243  43.3386421  47.3113298  60.9586573
  41.6378736  45.9659672  61.3891363  42.3337603  45.3339863  61.7585135
  40.6418276  45.8973837  61.5417337  41.8753195  47.9589796  58.1273413
  41.1238003  47.0293093  58.0267811  42.9075146  48.1959772  57.3289680
  43.4257984  49.0537071  57.4546051  43.3275700  47.2099638  56.3103485
  42.4562979  46.6136980  56.0393286  43.8563490  47.7964306  54.9913168
  44.6310663  48.5030127  55.2890539  44.2627811  47.0399761  54.3199825
  42.8584385  48.6285639  54.1979599  42.3251677  49.3280458  54.8417377
  43.5492706  49.4381905  53.0868101  43.9527035  48.7605858  52.3343563
  42.8717995  50.1072311  52.5562191  44.2207241  50.2044535  53.4742355
  41.8231583  47.7105665  53.5546255  41.2857485  47.1196842  54.2963409
  41.0731125  48.2431364  52.9698992  42.3820686  47.0660353  52.8761768
  44.3784285  46.2902689  56.9854164  45.2283621  46.7195415  57.6949358
  44.2545938  44.9173021  56.9660282  43.5031939  44.6220827  56.3591099
  44.6638250  43.9469242  57.9878092  44.8372698  44.5944357  58.8473129
  43.6060190  42.9306173  58.2358456  43.4607887  42.2742701  57.3778152
  43.9628983  42.1782589  58.9391947  42.2041655  43.4568739  58.7191916
  42.3511267  44.1725969  59.5280457  41.8908358  44.0764952  57.8789568
  41.2090826  42.3280191  58.9992762  41.1824942  41.6089725  58.1805229
  41.5076494  41.8857574  59.9497271  39.8640609  42.9522991  59.1376591
  39.2055058  42.1897936  59.5535803  39.7941947  43.7377548  59.8901701
  39.1761684  43.3855104  57.8904533  39.1935873  42.6248693  57.2262049
  38.2102561  43.5088253  58.1586075  39.4845057  44.2674780  57.5068331
  46.0267735  43.2444000  57.7255487  46.3446665  42.6952887  56.6562605
  46.8260956  43.1896687  58.7835407  46.5341234  43.5973358  59.6602726
  48.0725670  42.4204445  58.9301443  48.4700823  42.6204300  59.9251747
  47.7560186  40.8858919  58.8838243  47.6497459  40.5183744  57.8631687
  48.6271191  40.3822184  59.3028784  46.6064453  40.3568220  59.7934198
  45.6454754  39.7807860  59.2711067  46.7417812  40.3375149  61.0401201
  49.0348101  42.7901745  57.7993298  49.4960976  41.9771576  57.0871401
  49.1699886  44.0963602  57.4706602  48.7614489  44.8684788  57.9776382
  50.0010824  44.4994926  56.3207006  49.9341774  45.5834150  56.2272406
  51.5276432  44.1711473  56.5752029  51.6336870  43.1007481  56.3988543
  52.1563339  44.6493340  55.8240843  51.9550848  44.7030783  57.9963207
  52.5485516  43.9030123  58.7152243  51.9698048  45.9377098  58.2447052
  49.5139122  43.9110708  54.9767447  50.2812624  43.4938240  54.1464138
  48.1513834  43.9820051  54.7291851  47.5819302  44.6093559  55.2789688
  47.5233650  43.6062145  53.4204626  47.8685474  42.6100206  53.1437826
  45.9967661  43.4841633  53.5491276  45.5483055  43.3088160  52.5712490
  45.8556080  42.6175261  54.1949749  45.5884075  44.5673037  54.2340660
  45.3715706  44.3825006  55.1508188  47.8787613  44.6502590  52.2667933
  48.1273890  44.3030262  51.0984421  47.9244328  45.9186602  52.5778961
  47.7203560  46.1001301  53.5502768  48.3920765  47.0369005  51.7013741
  47.8410292  46.9619656  50.7639122  47.8707695  48.2762432  52.4026394
  46.8139839  48.1217909  52.6204920  48.4830379  48.4443617  53.2886171
  48.0236673  49.6075058  51.5877533  49.0706062  49.9044514  51.5258121
  47.5164461  49.5778131  50.1534081  47.9305792  48.6591148  49.7379637
  46.4269161  49.5711327  50.1222134  47.8404379  50.4453278  49.5784807
  47.2699404  50.7465458  52.3528624  47.2749138  51.6668940  51.7688799
  46.2137938  50.4881334  52.4295855  47.8592634  50.9341145  53.2504225
  49.9028444  47.1322298  51.4130259  50.6833649  47.4355888  52.3535824
  50.4439688  47.0087719  50.1684523  49.7328615  46.6308260  48.9709044
  49.0319586  47.3844910  48.6119747  49.1432285  45.7301521  49.1418600
  50.7501888  46.3667917  47.8541565  50.4081821  46.8897152  46.9610262
  50.7048225  45.2837896  47.7395296  52.1024561  46.8941402  48.4231138
  52.2317410  47.8884077  47.9955339  52.9440403  46.2597656  48.1449032
  51.9270086  46.9126177  49.9347353  52.2826624  46.0413122  50.4846811
  52.7562571  48.1322384  50.4844475  52.4032831  49.3052769  50.4289627
  53.9265633  47.7315664  51.0350418  54.0166712  46.7369986  51.1860943
  55.0078297  48.6588955  51.4213371  54.5916176  49.5596552  51.8724489
  55.8702707  47.9183006  52.4234104  55.9890461  46.8884611  52.0866251
  56.8449020  48.4057188  52.4481201  55.1593542  47.8484869  53.6278296
  54.2963028  47.4502420  53.4931278  55.8891058  49.2287827  50.2693701
  56.6430044  50.1544809  50.3933668  55.7625437  48.5598469  49.0734053
  55.0533390  47.8591967  48.9114857  56.4719772  48.9359426  47.8553820
  57.4355888  49.3804502  48.1043100  56.5732431  47.6618052  46.9898033
  57.0907879  46.8780899  47.5430155  55.5804157  47.3030519  46.7183447
  57.3185349  47.8526545  45.7437849  56.7642069  47.9766703  44.6728468
  58.6200047  47.9924726  45.8268356  59.1211224  48.0707502  44.9534178
  59.0746069  47.8243732  46.7129421  55.5449009  49.9391794  47.1058226
  54.3406343  49.7557545  47.0617056  56.1066198  51.0213184  46.4391375
  57.4296093  51.6677046  46.6274929  58.0574036  51.2425041  45.8444357
  57.7636147  51.5665054  47.6601076  57.2407770  53.1454563  46.4157343
  58.1505537  53.5238504  45.9496641  56.9530392  53.5724640  47.3764515
  56.1460781  53.2922602  45.5274677  56.5444422  53.3379078  44.5138979
  55.5965328  54.2312098  45.5943441  55.2380657  52.0015144  45.7227230
  54.3610954  52.2832680  46.3055086  54.6280813  51.5281582  44.4404125
  53.5335207  52.0415926  44.1430807  55.2812862  50.5845594  43.7851667
  56.0617113  50.1121426  44.2185879  54.7913170  49.9819613  42.4743271
  54.4198895  50.8589602  41.9442225  55.9214163  49.4329739  41.6355467
  56.5100098  48.7045717  42.1933031  55.2928543  48.7213278  40.4117441
  54.4732523  48.0396843  40.6391621  54.8755121  49.4289827  39.6953988
  56.1597013  48.2364082  39.9628329  56.9033432  50.5742884  41.1838436
  56.9943285  50.4790354  40.1018286  56.3728142  51.5032101  41.3929892
  58.3296251  50.6399441  41.7019272  58.7335539  49.6296501  41.7671061
  58.8630819  51.2846851  41.0034752  58.3863974  51.0111427  42.7252054
  53.5848188  49.0510654  42.7651644  52.4646759  49.3348265  42.3698997
  53.7988901  48.0686331  43.6162424  54.7241735  47.7313185  43.8402319
  52.7603340  47.1364403  44.1199684  52.3010731  46.5007210  43.3629751
  53.4113646  46.1424494  45.0613213  53.7482500  46.8018007  45.8612347
  52.7107477  45.3498316  45.3239918  54.5462132  45.2978373  44.4727755
  55.3099298  44.7852421  45.3164864  54.5173788  44.9447012  43.2653475
  51.5679836  47.8810024  44.7979975  50.4369593  47.4195766  44.6674967
  51.7445135  48.9999819  45.5616856  52.6544762  49.2600155  45.9144688
  50.6824875  49.9156284  46.0243750  49.9815607  49.3414545  46.6302967
  51.3940907  51.0791636  46.7803812  51.7998791  50.6058264  47.6744699
  52.2431087  51.4321613  46.1950064  50.5610132  52.2260332  47.1450138
  50.0127363  52.1909809  48.4149027  50.1967764  51.3590527  49.0785456
  49.1540527  53.2671738  48.8262224  48.6538410  53.1548834  49.7767878
  49.1246986  54.4672585  48.0715036  48.5662317  55.3145409  48.4411383
  49.6636772  54.4504309  46.7807722  49.5720387  55.3365755  46.1702347
  50.3375959  53.2214785  46.2505293  50.8743238  53.3273649  45.3193426
  49.8446321  50.3912544  44.8297977  48.6367369  50.3145409  44.8823357
  50.5459881  50.8478022  43.7931442  51.5554571  50.8715487  43.8157940
  49.9224234  51.3077402  42.4908638  49.2340088  52.1219110  42.7174091
  50.8903122  51.9485426  41.5246487  51.5704203  52.5518084  42.1260023
  51.5130138  51.1541319  41.1132383  50.3509617  52.5620937  40.3960276
  50.6319666  53.4734106  40.5062008  49.1500187  50.1656199  41.8749285
  48.0225897  50.3827190  41.4583588  49.6990395  48.9291334  41.9576883
  50.6102657  48.8586092  42.3875666  48.8218164  47.7742434  41.5184450
  48.4020519  48.2158709  40.6146383  49.6318960  46.5226460  41.2237215
  49.8353815  45.9665012  42.1388197  48.9145041  45.8862066  40.7056522
  50.8897734  46.6725826  40.4060841  50.9148693  47.6375389  39.3585134
  50.1113939  48.3209848  39.1267323  52.0173597  47.6278687  38.4598064
  52.0431519  48.2203579  37.5572014  53.0859566  46.7093897  38.7012625
  54.1394901  46.7426634  37.8000450  54.8131609  46.0844231  37.9857635
  53.0582333  45.8042622  39.7716427  53.8708115  45.0941133  39.7291708
  51.9773865  45.8130598  40.6752348  51.8391228  45.1041365  41.4781857
  47.5725365  47.4627399  42.4197006  46.4748096  47.0779896  41.9229650
  47.8130150  47.6006269  43.7305927  48.7122536  47.8621721  44.1088343
  46.8261719  47.0735550  44.7031832  46.4010668  46.1312580  44.3575525
  47.4468899  46.8406773  46.1090899  48.2725668  46.1574554  45.9101772
  47.8027058  47.7897978  46.5099287  46.5920687  46.2902117  47.2381687
  46.7683411  45.0948572  47.8995466  47.5808525  44.3906260  47.7981377
  45.8265638  44.9860764  48.9295816  45.8255196  44.1838503  49.5432043
  45.0400019  46.1426735  49.0547991  44.0353966  46.5280914  49.9143791
  43.7388420  45.9458780  50.7743120  43.4601641  47.8146648  49.7465229
  42.6436424  48.0823803  50.4007626  43.8634634  48.6718750  48.7099886
  43.4217691  49.6516323  48.6033010  44.9572897  48.2719994  47.8754330
  45.3148937  48.9506817  47.1152258  45.5539083  47.0225716  47.9759645
  45.6073856  48.0557346  44.7680855  44.5324516  47.6299906  44.6954966
  45.9105635  49.3399334  44.8540926  46.8986511  49.5486593  44.8390102
  44.9161911  50.4074955  44.8512602  44.2237329  50.2018023  45.6675291
  45.7009125  51.7077065  44.9689817  46.5946722  51.5338993  44.3697453
  44.9925232  53.0135393  44.5219135  43.9915752  52.8766251  44.9311209
  45.4417038  53.9582586  44.8282480  44.9373770  53.0227375  43.4333467
  46.1174536  51.9388485  46.4589548  46.5602112  51.0217285  46.8474722
  46.8506622  52.7453279  46.4689350  45.2443457  52.2333097  47.0412588
  44.0809155  50.2906561  43.6222363  42.8330135  50.4273319  43.8421440
  44.6498680  50.1848602  42.3720026  45.6455183  50.0200939  42.3316383
  43.7531805  49.9875927  41.2117529  42.9869556  50.7578230  41.1237478
  44.6865559  50.0689220  40.0200891  44.1078615  50.1479244  39.0997696
  45.3001118  50.9683609  40.0716496  45.2256727  49.1244745  39.9461198
  42.9506397  48.5940742  41.1301565  41.8744373  48.5049677  40.4938412
  43.4945297  47.5747538  41.8256521  44.4858837  47.6537943  42.0019245
  42.8173876  46.2865162  42.0399523  42.4038982  45.9271717  41.0976124
  43.8080692  45.2543926  42.4517584  43.8562202  45.1001358  43.5297108
  43.5196972  44.2892075  42.0353842  44.7815800  45.5016184  42.0283794
  41.7857170  46.4241505  43.1529617  41.0567951  45.4511261  43.2940769
  41.6987371  47.5366879  43.9825487  42.3877621  48.2747078  43.9566946
  40.8536386  47.5991917  45.1858091  40.1992893  46.7292738  45.1294756
  41.6754723  47.4515152  46.4766836  42.6030016  48.0159903  46.3809824
  41.0705566  47.6959991  47.3498392  42.0432520  45.9868336  46.7405081
  41.1966896  45.2618599  47.2793055  43.1430769  45.4448843  46.3447094
  43.2905293  44.4774151  46.5944290  43.7163687  46.0140514  45.7384968
  39.9194884  48.7930155  45.1530027  38.8235760  48.7062073  45.6732941
  40.2272558  49.8861122  44.4879055  41.1346960  49.9536371  44.0496159
  39.2493892  50.9614372  44.1549969  38.5986733  51.0387611  45.0260305
  40.0338078  52.2797108  43.7933922  40.7815981  52.0746994  43.0273104
  39.2961979  53.0379105  43.5304070  40.8235121  52.9123545  44.9477816
  41.5226793  52.1743822  45.3410530  41.5014458  54.1533899  44.4275475
  41.9327879  54.6530771  45.2949381  42.2776556  53.9587069  43.6874819
  40.8165312  54.8552704  43.9517832  39.9661446  53.3313656  46.2238359
  40.7344532  53.6317682  46.9362640  39.3598104  54.1846609  45.9199429
  39.3249249  52.5320244  46.5953064  38.3890390  50.6875181  42.9250383
  38.8526440  50.1108313  41.9983292  37.1000767  51.1208773  42.9339409
  36.4037919  51.4630747  44.1272354  36.7165613  52.4189901  44.5473623
  36.4158010  50.6750965  44.8802614  34.9248648  51.6055107  43.7628746
  34.8055530  52.6405668  43.4426832  34.3362474  51.2668467  44.6154881
  34.8164868  50.6616306  42.5751781  33.9914203  51.0016441  41.9492769
  34.6943569  49.6105289  42.8366518  36.1816955  50.7371759  41.8280697
  36.3778543  49.6976805  41.5652514  36.3082051  51.7120886  40.6889677
  35.4459691  52.5250912  40.3564358  37.4526811  51.7183781  40.0510740
  38.1281805  51.0738039  40.4362011  37.8433371  52.4672747  38.8063884
  37.5341725  53.5101271  38.8769603  39.3922853  52.5559807  38.6706328
  39.6885467  53.0742979  37.7586699  39.7854328  53.4059763  39.8797393
  39.4867158  52.9066563  40.8014488  40.8655310  53.5493898  39.8494315
  39.3201923  54.3897343  39.8175287  40.0551367  51.2095022  38.6892581
  40.1004744  50.9510994  39.7472143  39.5843959  50.4917860  38.0174065
  41.5143681  51.4126778  38.2659626  41.6521168  51.6202927  37.2048163
  42.0334625  52.1406364  38.8894391  42.0866394  50.5072260  38.4678388
  37.2458172  51.9212627  37.4874711  36.8893838  50.7604647  37.4252892
  37.1477199  52.8010225  36.5187383  37.5391912  53.7161589  36.6901326
  36.6530633  52.5096130  35.1426339  35.7001829  51.9918060  35.2521610
  36.4489198  53.9071321  34.4515824  35.8209538  54.4682550  35.1436043
  37.4322963  54.3772030  34.4621134  35.9587479  54.0209341  32.9899096
  36.7158842  53.7894154  32.0198917  34.7940397  54.3506336  32.8735137
  37.5976324  51.5996790  34.3033051  38.7985849  51.5707016  34.4903135
  37.0842743  50.9559965  33.2539296  36.0801435  50.9281254  33.1487870
  37.7822900  50.0484705  32.3813677  38.3930659  49.4140053  33.0236340
  36.8635035  49.1840601  31.4778233  36.2103105  49.7716665  30.8327174
  37.5010347  48.5664320  30.8452177  36.0644722  48.1472063  32.2705507
  36.6685605  47.4677706  33.1870246  34.9361944  47.8513050  31.8588042
  38.8112545  50.8224869  31.5665126  39.8031926  50.3145123  31.1633253
  38.6483932  52.0504475  31.2501311  37.7456617  52.3886013  31.5515161
  39.5511222  52.9564953  30.5961442  40.1237154  52.4990654  29.7893047
  38.7632489  54.1322231  29.9132895  39.3569422  54.6284962  29.1456079
  37.7580142  53.8821030  29.5741034  38.5910034  55.1228285  30.8989334
  37.9537058  54.7416639  31.5073466  40.7420588  53.4693861  31.4720321
  41.8661547  53.5185242  30.9822488  40.5376720  53.6030531  32.8243303
  39.5465970  53.5810661  33.0176854  41.5570879  53.6705732  33.8276672
  42.2951317  54.4352007  33.5853243  40.9089756  54.2064571  35.1618242
  39.9793863  53.6897945  35.4006219  41.5469360  53.8700914  35.9791136
  40.7910204  55.7560587  35.2957392  41.7588472  56.2548018  35.3473806
  39.9620461  56.4335775  34.2333603  39.7393942  57.4673176  34.4977665
  40.5472326  56.3422346  33.3183098  38.9919758  55.9370947  34.2094541
  40.1629210  56.0319996  36.6911721  40.8936644  55.7542467  37.4507594
  40.0010061  57.1092939  36.7275667  39.2559314  55.4293680  36.7391658
  42.2809887  52.2615862  34.1019940  43.5252380  52.2710752  34.2366672
  41.6079092  51.1118460  34.1127443  40.6307173  51.0811567  33.8592505
  42.2786093  49.7956228  34.1525960  42.9953527  49.9123526  34.9654627
  41.4085245  48.6157942  34.3162847  40.6988764  48.6463499  33.4895039
  42.1218300  47.7922344  34.2839599  40.6583118  48.5147381  35.6279397
  40.0470304  49.3639326  35.9333968  39.9405575  47.7076149  35.4813576
  41.5059423  48.1846762  36.8308401  42.3886967  48.8132334  36.7135072
  41.0612154  48.4987736  37.7751207  41.8230295  46.7598200  36.9986653
  41.9920921  46.2130308  36.1664748  41.2230539  46.0461378  37.9510188
  40.7381487  46.6382265  39.0200830  41.1447096  47.5132513  39.3186402
  40.2722406  45.9881449  39.6368694  41.0267448  44.7580957  37.7664590
  41.3244772  44.4322300  36.8580174  40.2533674  44.3132401  38.2398438
  43.2122660  49.6060038  32.9815841  44.4056797  49.3438864  33.2031894
  42.8437376  50.0441170  31.7473364  41.8843937  50.2038240  31.4748311
  43.8509846  50.2343702  30.6555510  44.4224453  49.3101025  30.5703497
  43.1489229  50.4176569  29.2878914  42.3387384  51.1325741  29.4313979
  43.8913536  51.1016226  28.1711102  43.9852095  52.1755123  28.3325124
  44.9071312  50.7186651  28.0729413  43.3193493  50.9458590  27.2564220
  42.6072216  49.0741062  28.9343691  43.4184361  48.5286427  28.4521842
  42.2762632  48.4335995  29.7518754  41.3896322  49.2281485  27.9472041
  41.6280556  49.8249006  27.0667839  41.0938787  48.2562923  27.5520682
  40.5218744  49.7006035  28.4075141  44.8765373  51.3145447  30.8155131
  46.0084009  51.0901690  30.4569387  44.5861530  52.4616861  31.3869596
  43.6010218  52.6044083  31.5579653  45.6014538  53.4454107  31.8314600
  45.9711266  53.7813568  30.8626556  44.9088955  54.5666409  32.4088025
  44.0800333  54.9152088  31.7926979  44.4505358  54.2826271  33.3560848
  45.7674599  55.8173847  32.7798533  46.4793539  55.6210661  33.5815787
  46.3341713  56.0215855  31.8714261  44.9151659  57.0541716  33.0199647
  43.7130928  57.0005798  32.9430199  45.4108381  58.2027817  33.2881618
  44.8685074  59.0542507  33.3193851  46.3719845  58.4245443  33.0710864
  46.6850090  52.9471350  32.7172828  47.8303814  53.3554363  32.5241232
  46.4519644  52.0711470  33.6908293  45.4763794  51.9367933  33.9150810
  47.4232101  51.2923288  34.4480705  48.0385351  51.9669724  35.0433302
  46.6151524  50.3706455  35.3753662  45.9995937  51.0907984  35.9144044
  46.0868168  49.6204329  34.7870255  47.5272560  49.6350193  36.3082170
  48.3692551  50.2867842  36.5413356  46.8837166  49.3332148  37.6633525
  46.4859104  50.2281761  38.1417966  46.0199976  48.6869431  37.5070810
  47.5312519  48.7537718  38.3214116  47.9858303  48.2798624  35.8266282
  48.7147331  47.8288603  36.4999795  47.0804167  47.6769781  35.7568932
  48.4060574  48.2431602  34.8215604  48.3799553  50.5394650  33.4749651
  49.5919943  50.3161287  33.7598681  47.8815651  50.0526333  32.3746967
  46.9541836  50.4181099  32.2119164  48.5699129  49.4370222  31.1998677
  49.2512274  48.7170076  31.6531849  47.6138830  48.6031008  30.2427173
  47.0981264  49.2887831  29.5704508  48.2477713  48.0455017  29.5532489
  46.6628218  47.6151037  30.9549284  45.9984732  48.3057117  31.4743471
  45.7675219  46.8889141  30.0177836  44.9119091  46.3995266  30.4830980
  45.4260111  47.6984453  29.3727040  46.3941145  46.1770105  29.4804978
  47.4149466  46.7060804  31.9498086  47.7340460  47.2075224  32.8634930
  46.6979885  45.9862423  32.3446512  48.1862926  46.1644459  31.4023066
  49.4071531  50.4690933  30.4479074  50.5208635  50.1577234  30.1045680
  48.8680124  51.6873360  30.1723003  47.8719473  51.7215872  30.3359270
  49.4949150  52.6918459  29.2883325  49.8827219  52.1882010  28.4028649
  48.3570576  53.6162567  28.8339067  47.8019285  54.0016699  29.6891212
  48.8372231  54.4539785  28.3281755  47.4238443  53.0008936  27.7688003
  47.9963255  53.0624342  26.8432856  47.1487522  51.9688082  27.9861188
  46.1118650  53.8401413  27.6655054  45.4785538  53.7270164  28.5454035
  46.2858295  54.9081564  27.5343871  45.3980398  53.3784199  26.3911057
  46.0610485  53.4952021  25.5338526  45.1002312  52.3321629  26.4600587
  44.2061758  54.2354345  26.2604666  44.4838715  55.2037191  26.1869049
  43.6415291  53.9695215  25.4663801  43.7111139  54.2809677  27.1396375
  50.6681061  53.4753180  29.8303366  51.4949751  53.9658833  29.0901923
  50.9142399  53.3787346  31.1718583  50.3298378  52.7417898  31.6942358
  51.7671490  54.3374872  31.8670249  52.3124981  54.9331808  31.1350083
  50.7618761  55.3199387  32.6338005  50.1279211  54.7889376  33.3438993
  51.5155935  56.2910080  33.5037804  50.8832312  57.0536137  33.9583683
  51.9866323  55.7609606  34.3315935  52.3287010  56.7351389  32.9295802
  49.7031927  55.9880877  31.8033719  49.0725756  55.3006649  31.2395716
  49.1057491  56.6750574  32.4027300  50.2724600  56.9466782  30.7544875
  50.9134531  56.5220165  29.9818993  49.4734573  57.4660873  30.2254248
  50.8473587  57.7781439  31.1622310  52.7101421  53.5083055  32.7961135
  52.3020697  52.7659225  33.7027431  53.9914751  53.7370586  32.4789262
  54.1562414  54.4208956  31.7541313  55.0849819  53.1229544  33.2259440
  54.8956442  52.0793152  33.4770918  56.5552950  53.1398773  32.5684547
  56.7949867  54.1528797  32.2452331  57.2566557  52.9050016  33.3691001
  56.8019390  52.0868540  31.4903069  57.8632402  52.1579504  30.8893919
  55.8525181  51.3783693  31.0480118  55.3278637  53.7276649  34.6169877
  55.8481598  53.0458450  35.4826450  55.1337004  55.0081158  34.6571183
  54.8859215  55.5442429  33.8378048  55.2603817  55.8591509  35.8216763
  56.2491560  55.6891775  36.2477589  55.2535343  57.2919798  35.3991270
  54.3450451  57.4131775  34.8091555  55.2238274  57.9330826  36.2801528
  56.3981009  57.6684427  34.6803761  56.6385031  58.5878897  34.8161221
  54.2044449  55.6038332  36.8204522  53.2101107  56.2853479  36.8949652
  54.3408728  54.4513416  37.5007772  55.0859404  53.8247299  37.2318101
  53.3078146  53.8908195  38.2810140  52.4112320  53.7011814  37.6908565
  53.8461351  52.5271463  38.8932538  54.5499420  52.8404045  39.6643806
  53.0932236  51.8302393  39.2614174  54.2952585  51.9762325  38.0668855
  52.8463173  54.7691298  39.4638109  51.7177677  54.8022175  39.9625993
  53.7604237  55.5784941  39.9767780  54.6767092  55.5725098  39.5519352
  53.4654951  56.6417360  40.9514189  52.8033113  56.2390566  41.7178869
  54.7370338  57.0252991  41.8125248  55.3625298  57.6068878  41.1353159
  54.4198608  58.0660439  42.9192829  54.1212988  59.0407467  42.5333929
  53.5511303  57.8129435  43.5270309  55.3517294  58.3172798  43.4258413
  55.5108023  55.7681990  42.4020529  54.8273849  55.2187300  43.0494452
  55.6824636  55.0569153  41.5941477  56.8849659  56.0842609  42.9680109
  57.3627567  55.1102400  43.0733728  57.3405170  56.8381119  42.3259163
  56.9211102  56.4127064  44.0067196  52.7495480  57.8735733  40.3445530
  51.7893076  58.3644819  40.9457111  53.0835724  58.3631611  39.1909289
  53.7690544  57.9105186  38.6032820  52.4250889  59.4709253  38.5065961
  52.4384594  60.3244448  39.1844058  53.2809591  59.9673462  37.3342133
  53.4191465  59.2054081  36.5671062  52.7792692  60.7851076  36.8168426
  54.7853804  60.5401182  37.6959944  55.5142546  59.7300673  37.6703382
  55.0929880  61.2204456  36.9018745  54.8534727  61.3219023  39.0208411
  54.1121387  62.2227478  39.1853428  55.6559515  60.9310579  39.9469924
  55.6995869  61.5219879  40.7649136  56.2413549  60.1161194  39.8317575
  50.9653521  59.0286779  38.1496716  50.0571394  59.8839283  38.2973576
  50.7495165  57.8023624  37.6111484  51.5316820  57.1944618  37.4142289
  49.3531847  57.2873259  37.2735715  48.9881802  57.9232407  36.4670444
  49.3687868  55.7966375  36.9426489  50.3007889  55.6875992  36.3880420
  49.4020987  55.1829481  37.8428602  48.2668543  55.2199507  36.0944915
  48.1095457  55.9116697  35.2669144  48.5721731  54.3251848  35.5520201
  46.9837952  55.0375366  36.8616843  46.4428616  55.9712076  37.0158219
  46.3535452  54.3596411  36.2860608  47.1178675  54.3111753  38.1351805
  46.5277338  54.7125053  38.8498712  47.7551889  53.2819653  38.6346102
  48.6402893  52.5992584  37.9865241  49.1612196  53.0977917  37.2792792
  49.2536831  51.9303131  38.4296465  47.4917269  53.0209255  39.8663568
  46.5972424  53.3539629  40.1966238  47.9799652  52.2428131  40.2862024
  48.3615541  57.4669313  38.3851814  47.3597670  58.1406736  38.1952953
  48.7768459  57.2551870  39.6430397  49.6904659  56.8422222  39.7649527
  47.8961134  57.5071907  40.8177185  46.9463444  56.9747257  40.7675076
  48.7215137  56.9527292  41.9879436  49.7751379  57.2002411  41.8586588
  48.3156729  57.4058485  42.8924179  48.8452053  55.4144096  42.2238970
  48.6710167  54.9226570  41.2668514  50.0804806  54.9611235  42.9860067
  50.0554419  53.8907099  43.1901884  50.9847212  55.2609444  42.4563265
  50.1673126  55.3521109  43.9997578  47.6977348  54.8684835  43.0667591
  47.6840496  53.7875795  42.9268742  47.7809381  55.2326632  44.0907478
  46.7896605  55.2538013  42.6030445  47.4577618  59.0485477  41.0561323
  46.4450788  59.2111683  41.7673445  47.9505873  60.0225639  40.3072786
  48.6620235  59.7709227  39.6359873  47.2344065  61.3727951  40.2232361
  47.1480227  61.8564177  41.1962461  48.0124426  62.3153305  39.3094707
  48.1108332  61.8251801  38.3408737  47.6090622  63.3200073  39.1829419
  49.4217920  62.5678492  39.8070908  49.2455912  63.1566858  40.7072687
  49.9565220  61.6527367  40.0615072  50.3664303  63.3903217  38.9074588
  50.3214455  62.8194427  37.9800034  49.8572683  64.3079042  38.6126757
  51.7659712  63.5414410  39.4197536  52.4229431  62.7989578  39.2268729
  52.1080828  64.4265938  40.3409576  51.3051224  65.3119421  40.8819294
  50.3435993  65.4230738  40.5934381  51.6199303  66.0760021  41.4626265
  53.2491064  64.4132423  40.7596588  53.7898350  63.6024523  40.4944611
  53.2060480  64.7835255  41.6983509  45.8443165  61.2993479  39.7341228
  44.9730206  62.0141745  40.2114010  45.5913544  60.4198265  38.8287640
  46.3741350  59.9281359  38.4218168  44.3218660  59.9420595  38.3666086
  43.8387680  60.8322287  37.9637241  44.3366671  58.9682961  37.2258186
  44.5962715  59.5441675  36.3375163  45.0135326  58.1296730  37.3890972
  42.6926708  58.2259083  37.0543766  42.9030943  57.1085358  37.7558780
  43.4955406  59.5305014  39.5684481  42.4381065  60.1581049  39.7703171
  43.8534975  58.3940315  40.2842569  44.5963430  57.7487707  40.0564003
  42.9416466  57.8546906  41.2699223  42.0433187  57.6358223  40.6926823
  43.3841562  56.5079355  41.7778683  44.4036436  56.4949274  42.1633244
  42.6476145  56.2605190  42.5423241  43.1812811  55.4524374  40.7000875
  42.7702427  54.5943451  41.2319040  42.5170469  55.7277155  39.8808670
  44.4994926  55.0942802  40.0195885  44.9685097  55.8480120  39.1714978
  45.0366020  54.0372944  40.4363108  42.4980450  58.8178873  42.3684597
  41.3552618  58.8280249  42.7600813  43.3864069  59.6340561  42.8916359
  44.3067455  59.4886732  42.5018501  43.1709623  60.6197882  43.9298010
  42.7741861  60.1460409  44.8277092  44.5610380  61.2555408  44.1954327
  45.2268744  60.4357147  44.4649649  44.9246359  61.7259407  43.2818556
  44.5885372  62.2906828  45.3692055  43.8927460  63.0919266  45.1202536
  44.0193081  61.7580795  46.6541338  42.9419088  61.6158438  46.7382717
  44.4746208  60.7832623  46.8288469  44.2935038  62.4458361  47.4540806
  45.9643888  62.9873133  45.5700445  46.3545990  63.3423042  44.6162033
  46.0089111  63.7087488  46.3859177  46.7320967  62.2477388  45.7975388
  42.1138382  61.7124176  43.4838724  41.3282824  62.0776510  44.2940283
  42.0387793  62.0554543  42.1941566  42.6981831  61.5500164  41.6198540
  40.8454800  62.8329611  41.6628790  40.6813526  63.7910080  42.1561432
  41.0519886  63.2437658  40.1785278  41.3735056  62.3561764  39.6336317
  40.0903749  63.5410404  39.7601652  41.9842529  64.4642353  39.8918605
  42.5149298  65.1977110  40.7353926  42.2454357  64.6605825  38.6857080
  39.4948006  62.0763016  41.7638493  38.4684038  62.7090120  41.8215179
  39.5042872  60.7198429  41.7758226  40.3841877  60.2640486  41.5805578
  38.3292842  59.9138689  42.1824169  37.4445724  60.2545404  41.6445208
  38.3751869  58.4690237  41.7824984  38.9220905  57.9970694  42.5987482
  37.0294023  57.7297878  41.9271898  37.1419477  56.6661787  41.7170191
  36.6816163  57.8262138  42.9557037  36.2865949  58.3095598  41.3792849
  38.9498472  58.1374311  40.4440308  40.0149679  58.3672714  40.4158163
  38.7048411  57.1173906  40.1480579  38.2896090  58.9880562  39.3231869
  38.7011361  58.7445784  38.3436632  37.2235942  58.7656116  39.3704295
  38.4909105  60.0344849  39.5524573  38.0014348  60.1824856  43.6739111
  36.9176388  60.5715227  44.1273260  39.0110040  59.9129915  44.4860888
  39.8863602  59.6335220  44.0668631  38.9359069  60.0559998  46.0370874
  38.0885506  59.4472551  46.3525581  40.2284861  59.5287943  46.7402887
  40.9765673  60.3214598  46.7276764  39.8713303  59.3558359  47.7554846
  40.8168173  58.1450796  46.2041426  40.0579453  57.3778152  46.3575125
  41.0027742  58.1378412  45.1301432  42.2102833  57.3816776  47.0324183
  41.2779903  56.5641832  48.3298063  41.9137716  56.2160015  49.1438389
  40.6159687  57.2662830  48.8366461  40.7087374  55.7040787  47.9772806
  38.7212396  61.4484406  46.5303087  38.0352473  61.5539455  47.5684214
  39.1782308  62.5151825  45.9096003  39.8888397  62.3974895  45.2015829
  38.9350867  63.8949013  46.3460112  38.8789892  63.9717150  47.4318552
  40.0878477  64.7430944  45.8366108  40.2093554  64.4656658  44.7895336
  39.7049522  65.7423210  46.0440826  41.3937902  64.5639372  46.6492510
  41.4471102  63.9872503  47.7203655  42.5073719  65.0401640  46.1900949
  43.3556747  64.8297501  46.6962671  42.5095797  65.2964687  45.2131605
  37.5491691  64.4066715  45.8807325  37.2185922  65.5511856  46.2010717
  36.7046547  63.6658525  45.1537323  36.9019127  62.6867056  45.0038576
  35.6332731  64.1944695  44.3009520  35.0941110  65.0057840  44.7900057
  36.1442113  64.7343779  42.8968716  36.3336325  63.9107704  42.2084713
  35.3459096  65.3329611  42.4581051  37.3878860  65.6573391  42.9402828
  37.3495054  66.3150167  43.8086605  38.3011580  65.0628376  42.9647112
  37.4245667  66.6075802  41.7257547  37.4729300  65.9901571  40.8287907
  36.4349270  67.0644045  41.7202568  38.6598086  67.5582600  41.7010546
  38.6792588  68.0310965  42.6829672  39.5468497  66.9377041  41.5738964
  38.3678150  68.4728479  40.6127310  37.5654674  69.0648842  40.7734442
  39.1735792  69.0315723  40.3704977  38.2078385  67.9626560  39.7558689
  34.4875717  63.1541872  44.1683769  33.7537718  63.1824112  43.2362270
  34.2272758  62.4158525  45.2347898  34.9378395  62.3300362  45.9474182
  33.0156302  61.6009188  45.2986813  32.1682048  62.1136284  44.8435974
  33.1993532  60.2573442  44.6306372  32.2609067  59.7111082  44.7257423
  33.5483265  60.3900814  43.6065817  34.2733550  59.1449404  45.5140162
  35.4804444  59.6424961  45.2306795  32.5457239  61.3755560  46.7544651
  33.3975959  61.4739275  47.6996517  31.3242865  60.9710979  46.9151974
  30.7251358  60.8697271  46.1084509  30.6206632  60.8866262  48.1861067
  31.2447572  61.1019897  49.0534210  29.4584394  61.8819046  48.2048178
  28.7795234  61.6005135  47.3998404  28.7365055  61.9348478  49.5804882
  29.4897246  61.9455862  50.3682995  28.3021212  62.9291391  49.6844387
  28.0668211  61.0827494  49.6969032  29.8482394  63.2439137  48.0126810
  30.1511669  63.1767845  47.1042061  30.0595069  59.4475746  48.3759117
  30.0772548  58.8913059  49.4681120  29.5247841  58.8516140  47.3049402
  29.7353792  59.3118477  46.4309072  28.6689281  57.6621914  47.1616220
  28.7429309  56.9846106  48.0122185  27.1775556  58.1393862  47.2880745
  26.5367913  57.2765589  47.1062708  26.8222594  58.4654808  48.2655859
  26.9154811  59.1222382  46.2889481  25.9852958  59.1681433  46.0560226
  28.8705802  56.8095160  45.8527088  29.7064257  57.1669674  45.0302839
  28.3842087  55.5792713  45.8081436  27.7414203  55.3949785  46.5650892
  28.5207534  54.5838642  44.7517538  29.3539882  54.8401117  44.0974140
  28.8739300  53.2127047  45.4113722  28.0453444  52.8462648  46.0173988
  28.9003277  52.5076103  44.5805597  30.1641512  53.1531525  46.2653303
  29.9140525  53.5722542  47.2399664  30.5608511  51.6626024  46.4526176
  29.8521066  51.1574221  47.1087980  30.5752182  51.1570835  45.4870319
  31.5346003  51.5595436  46.9314671  31.4480615  53.8744497  45.7160902
  31.1961532  54.9347878  45.6981182  32.3816562  53.6985111  46.2504578
  31.6904426  53.5867453  44.6930695  27.2396493  54.4739771  43.9809036
  26.1715674  54.3979836  44.5869207  27.2646832  54.5062780  42.6760435
  28.1731200  54.6147823  42.2481823  26.0487223  54.3772030  41.8801832
  25.1718664  54.1713285  42.4940586  25.7707071  55.6449842  41.1011648
  26.6850567  55.9627867  40.6000996  24.9513340  55.5372000  40.3904486
  25.1979327  57.0046520  42.1409130  26.4084578  57.1893930  42.6751328
  26.1316514  53.2102871  40.9503126  27.2109318  52.7376938  40.6187963
  24.9707770  52.7894497  40.4374552  24.1543055  53.3567190  40.6154490
  24.8171854  51.9463205  39.2037773  25.3391051  50.9939718  39.2972279
  23.3537626  51.5742016  39.0409327  22.7399802  52.4607563  39.2002916
  23.0612254  50.9183884  39.8609495  23.0162168  50.8006716  37.4713039
  25.4597664  52.7614641  38.0590749  25.0226760  53.8731432  37.6694369
  26.3734889  52.1160698  37.2714090  26.6593289  51.1759615  37.5050688
  26.9819045  52.6487160  35.9973907  27.3629403  53.6428070  36.2312603
  28.1851244  51.6761494  35.6366706  28.7485909  51.4919901  36.5513778
  27.9447746  50.6837463  35.2552605  29.1944003  52.3336267  34.6300387
  28.6740708  52.5075626  33.6881709  29.4788408  53.3065176  35.0308800
  30.3917766  51.4233017  34.2949533  30.9836864  51.2904501  35.2005410
  29.8338747  50.5867290  33.8742590  31.3744569  52.1088696  33.2564688
  32.2478294  51.4576006  33.2223034  30.8469892  52.2023582  32.3071837
  32.0818090  53.3417797  33.6714506  31.4646411  54.1372585  33.5913634
  32.3882413  53.2284784  34.6271515  32.8683448  53.5638475  33.0780292
  25.9402514  52.9288244  34.9073648  26.0088205  53.9379168  34.2203689
  25.1198769  51.8837452  34.6779513  25.1057577  51.0211849  35.2032018
  24.1251373  51.9340706  33.5751414  24.7356939  51.9075155  32.6725817
  23.3405423  50.6018543  33.5824800  24.0586615  49.7905350  33.4634566
  22.8207421  50.4921818  34.5342565  22.3365903  50.4859304  32.3751521
  21.5024710  51.1507750  32.5994921  22.8501344  50.8720160  31.4946365
  21.9231606  49.0798569  31.9787884  22.6406670  48.3388233  31.3399458
  20.6372428  48.7269402  32.2175908  20.2064705  47.9216719  31.7862248
  20.1662087  49.3356371  32.8715920  23.2538748  53.1830978  33.3866858
  23.0882549  53.6252642  32.2355270  22.9516172  53.8604832  34.5232153
  23.0331755  53.3109808  35.3667164  22.0550632  54.9900484  34.6030021
  21.7998672  55.4143095  33.6319304  20.7203293  54.4825315  35.1232839
  20.4761100  53.7189388  34.3847799  20.0467300  55.3299522  34.9958253
  20.5583620  54.0295029  36.8641829  22.6264286  56.2160063  35.3294039
  22.5056314  57.3976135  34.8953724  23.1292009  55.9966946  36.5251303
  23.0256724  55.0284958  36.7934132  23.5617208  56.9998550  37.4816990
  24.1367984  56.3654470  38.1561708  24.6178317  57.9857445  36.9587922
  24.1252375  58.8170004  36.4543414  25.1015568  58.3893967  37.8482723
  25.8438849  57.2935534  36.2455559  26.0938096  56.3484812  36.7277145
  25.4745412  57.0231771  35.2563238  27.0088816  58.2698870  36.1949253
  27.0820045  59.3219090  36.8032622  27.9316878  58.0338383  35.3094292
  28.6992574  58.6851454  35.2273250  27.7924228  57.2034740  34.7515774
  22.4441600  57.6010227  38.3788657  22.7608728  58.4123945  39.2561150
  21.1713219  57.1432829  38.3204508  20.9538603  56.4038372  37.6677418
  20.0689340  57.6104546  39.2020988  20.1672316  58.6853123  39.3541360
  18.7274206  57.2234631  38.5834455  18.8462675  56.1541843  38.4084344
  17.8471768  57.3106480  39.2203689  18.4929729  57.9355001  37.2209120
  19.3133116  57.7218771  36.5357041  17.5372827  57.6203299  36.8020725
  18.4033549  59.4512367  37.3830819  17.5479329  59.8634624  38.2131815
  19.0929472  60.2176332  36.6399479  19.9903047  56.9553995  40.6381416
  19.2408538  57.4187708  41.4838362  20.6119823  55.7897997  40.7026482
  21.0646486  55.6348085  39.8131728  20.4852748  54.7859097  41.8050051
  19.5931268  54.9813318  42.3999691  20.3663468  53.2807636  41.3749981
  21.2642503  52.9575491  40.8483028  20.1756883  52.2173166  42.4039698
  21.0547018  51.9358110  42.9837990  19.4574153  52.5568581  43.1502247
  19.8051476  51.3222647  41.9042873  19.2115378  53.1203222  40.6033564
  19.3854988  52.5130320  39.8804879  21.6617107  54.8578882  42.7971888
  22.6655507  54.1347265  42.6266670  21.5835905  55.6313372  43.9220381
  20.8677506  56.3411999  43.9834976  22.6661825  55.7020903  44.9199390
  23.6083746  55.7411146  44.3732643  22.4683261  56.8938732  45.7606459
  22.3178244  57.8123903  45.1933861  21.7130136  56.8134451  46.5423965
  23.7237597  57.0692444  46.5730190  23.6130452  56.3554668  47.3893309
  24.6400476  56.8611813  46.0205460  23.8942480  58.5071850  47.0374727
  23.9090729  58.7263298  48.2475948  24.2164564  59.3414116  46.1955261
  22.6299238  54.4786453  45.8227968  21.7043948  54.1971397  46.6381693
  23.7118220  53.6753607  45.7556677  24.3820405  53.9093399  45.0372219
  23.9158630  52.3613358  46.4153576  22.9808640  51.8010950  46.4191341
  24.9148273  51.5737629  45.6114435  25.8493114  52.1298075  45.5361843
  25.3921318  50.3069210  46.3113976  25.7656717  50.4455042  47.3259735
  24.5012331  49.6879911  46.4178276  26.0726023  49.6664667  45.7502556
  24.3364501  51.3325787  44.1834068  23.3513856  50.8669519  44.1527891
  24.2988944  52.2793627  43.6446285  25.3069615  50.5635548  43.2970715
  26.2541103  51.1027813  43.3126640  25.3227878  49.5584822  43.7185955
  24.8588300  50.6901169  42.3115444  24.2513704  52.6172161  47.8586006
  23.6000228  52.0286751  48.6582613  25.2299857  53.4634256  48.1733227
  25.7020521  53.9908218  47.4528313  25.7935596  53.7785053  49.5087767
  25.0089002  54.1087627  50.1894665  26.3716364  52.4957609  50.1272964
  25.6451082  51.6995478  49.9651241  27.7171993  52.0261049  49.5728588
  27.5651097  51.2798977  48.7930202  28.3423328  52.8253508  49.1747093
  28.3072901  51.5975857  50.3829575  26.5161872  52.7923870  51.5118361
  26.6685700  51.9289541  51.9028091  26.8984962  54.8988819  49.4658566
  27.3648500  55.2334404  48.4389687  27.3774314  55.3628016  50.5918169
  27.0747876  54.8927927  51.4330101  28.5557032  56.2892103  50.7463026
  28.2642651  57.1661758  50.1682949  28.7301874  56.8293238  52.1354914
  27.8897905  57.5151682  52.2425032  28.5379505  55.8929443  53.3368254
  28.6466670  56.4336538  54.2769957  27.5687456  55.3943968  53.3227730
  29.2310905  55.0605297  53.2153797  30.0226712  57.4130821  52.2865391
  29.8942471  58.0277348  53.0126953  29.7976589  55.4919386  50.2751780
  29.7754741  54.3137932  50.5159950  30.8733940  56.1385918  49.7126722
  30.8068442  57.1284199  49.5231915  32.0405960  55.3571272  49.3778372
  31.7853260  54.5521688  48.6886501  33.1216764  56.1589193  48.5633135
  34.0316963  55.6003141  48.7822151  32.8928018  56.0159445  47.5072479
  33.3278012  57.6343966  48.8004971  34.2364526  57.9128456  48.2667208
  32.5116467  58.1843662  48.3319712  33.4836698  58.1016684  50.2388430
  32.5221276  58.0601931  50.7505226  34.2318058  57.4167013  50.6378555
  34.1203523  59.4521332  50.4392242  35.1887107  59.3014669  50.2842617
  33.7098336  60.0965261  49.6618366  33.7175083  60.0297022  51.7356348
  34.4522929  60.4670238  52.2731733  33.0699039  60.7753611  51.5242100
  33.3476734  59.3977404  52.4313068  32.5606489  54.7242975  50.6163120
  33.1040502  53.6639261  50.4447985  32.2952056  55.2337265  51.9057989
  31.6822910  56.0327435  51.9832802  32.8547072  54.6790648  53.1546879
  33.9257741  54.6263885  52.9593897  32.6330042  55.6747437  54.2856121
  31.5925026  55.9133720  54.5058775  33.0660248  55.2542067  55.1932144
  33.3276010  57.0664692  54.0325022  32.6916003  58.0805159  53.6991787
  34.5868731  57.0788574  54.0612841  34.9650979  57.9743671  53.7872171
  35.1498628  56.3001776  54.3724060  32.4666238  53.1903076  53.5036135
  33.2627034  52.5809288  54.1834545  31.3305330  52.6487303  53.0582571
  30.8282065  53.2393646  52.4110174  30.8686304  51.2641525  53.3354950
  31.2439656  51.1188221  54.3484640  29.3512940  51.1674690  53.4313917
  28.8001585  51.2356091  52.4934673  29.1106844  50.1491165  53.7366295
  28.7095475  52.1577740  54.4637632  28.6798549  53.0822372  53.8870668
  27.7032614  51.7501020  54.5601702  29.3863010  52.4634886  55.8132315
  30.2677608  51.7468691  56.3781786  28.9314222  53.4607220  56.4842463
  31.4882898  50.1078892  52.4681902  31.1904669  48.9600086  52.6565123
  32.5254202  50.4437923  51.6739511  32.7099943  51.4193583  51.4887238
  33.6410236  49.5717096  51.3104153  33.2300591  48.7388420  50.7398510
  34.5955896  50.4585314  50.4122353  34.8571897  51.3633394  50.9608603
  36.0044074  49.9296236  50.2072954  36.4712644  49.9375486  51.1922216
  35.7838511  48.8928461  49.9532127  36.6711211  50.4084826  49.4901609
  33.8598371  50.7279539  49.0891552  33.6874819  49.7319031  48.6813784
  32.9732060  51.3333941  49.2773724  34.6547651  51.6641283  48.2091761
  35.5513954  51.2065887  47.7910709  34.1023326  52.0930099  47.3731232
  34.8568344  52.5636673  48.7906456  34.2965698  48.9428663  52.5314093
  34.5628476  49.6517563  53.5552645  34.6306634  47.6210022  52.4874878
  34.4705606  47.1247149  51.6225147  34.9706697  46.7456913  53.6045361
  35.5628395  47.2788668  54.3482780  33.6471248  46.2181854  54.2250586
  32.9599857  47.0615005  54.2941046  33.2038927  45.3712082  53.7013483
  33.8727069  45.8090878  55.6385994  34.1970253  44.4545031  55.9067822
  34.2316365  43.6754942  55.1595497  34.5176005  44.1087151  57.2183275
  34.8052192  43.1287336  57.5694847  34.3160009  45.0358343  58.2537985
  34.5099807  44.7991514  59.2895365  33.9569640  46.3507795  57.9744101
  33.7350225  47.0254469  58.7880278  33.8185382  46.7379999  56.6711664
  33.4969544  47.7535582  56.4933062  35.8545566  45.5340481  53.1893873
  35.5044127  44.7529316  52.3123598  36.9643807  45.3053999  53.8735437
  37.1292114  46.0026598  54.5854139  37.9615188  44.2795467  53.6045837
  37.8534389  43.9613056  52.5676966  39.3239903  44.7669220  53.7321377
  39.4279432  45.7060337  53.1886625  39.5885277  44.8836851  54.7830820
  40.2034187  43.7962484  53.2051945  39.9770808  42.8990173  53.4608316
  37.6245999  43.0364418  54.4035196  38.3069444  42.7197313  55.3255510
  36.5688968  42.2929144  54.0549374  36.0579753  42.7072096  53.2885027
  36.0864878  41.0840750  54.7354984  35.8843231  41.3663816  55.7687140
  34.7733021  40.6219578  54.1583633  33.9806914  41.3669538  54.2279768
  34.8922825  40.2992487  53.1240463  34.3179202  39.3319273  54.8122692
  35.1294923  38.6056352  54.7681236  34.1834974  39.5169663  56.3098240
  33.7989044  38.5836029  56.7209482  35.1555943  39.6798897  56.7752075
  33.5466933  40.3552771  56.5923452  32.9901600  38.8591266  54.2373705
  32.6748013  37.9778481  54.7959423  32.3012424  39.7037745  54.2290401
  33.1658316  38.4532070  53.2411432  37.1794438  39.9853826  54.6453857
  37.4979520  39.5260525  55.7195139  37.7946782  39.7878146  53.5097551
  37.4844670  40.2676153  52.6768923  39.0828848  39.1360474  53.5073137
  39.0397811  38.1756520  54.0210104  39.4614887  38.6094451  52.0706320
  38.7088966  37.9020977  51.7222595  39.5016956  39.5158315  51.4665222
  40.7342863  38.0258560  52.0633507  40.8459044  37.4481130  51.3048267
  40.1543665  40.0060415  54.0441942  40.1914978  41.2393761  53.7400293
  41.1186743  39.4755054  54.8372078  41.0971642  38.5077167  55.1253510
  42.4417591  40.0467491  55.0986862  42.2311783  40.8411026  55.8147621
  43.4201622  39.0278912  55.7425976  42.8864050  38.6819458  56.6277695
  43.5296679  38.2197332  55.0194168  44.8303556  39.6577883  56.0462809
  44.7415447  40.7373905  56.1674023  45.1965523  39.1627145  56.9456720
  45.7650089  39.3002462  54.9376297  46.0313654  38.2484269  55.0416851
  45.3377771  39.5164490  53.9584303  46.9641781  40.0604725  55.0948429
  47.0418596  40.5554342  55.9718227  48.0758715  39.7287798  54.4618607
  49.2354631  40.1380968  54.8562431  49.2918968  40.8700609  55.5498886
  50.0857973  39.8574686  54.3890429  48.0363750  39.0960097  53.3784056
  47.1927166  38.6498165  53.0478764  48.8775635  38.9464426  52.8397655
  43.0569172  40.7157516  53.8800287  43.6399126  41.8315840  54.0103197
  42.8690577  40.1837540  52.6779604  42.3389101  39.3274903  52.6014757
  43.5748625  40.5905962  51.4256191  44.6318388  40.5284548  51.6845274
  43.2834673  39.5601535  50.3200817  42.2236919  39.3282819  50.2141809
  43.7304735  40.0829935  49.4745541  43.9615154  38.1933594  50.4586172
  43.3044100  37.5669122  51.0618353  43.9972210  37.6800156  49.4977283
  45.3515959  38.2360053  51.0225868  46.2140942  38.7770462  50.2646351
  45.6981707  37.6877642  52.1145296  43.3170462  42.0134544  50.9302378
  44.1149139  42.5030947  50.0916243  42.0872593  42.4840498  51.0188913
  41.4568138  42.1079540  51.7125702  41.5354967  43.6826992  50.2961254
  41.6769552  44.5268774  50.9709978  42.0673037  43.9598131  49.3859100
  39.9899626  43.6639977  50.0616455  39.4421935  42.5476599  49.8850727
  39.3543029  44.9042988  49.8768091  39.8625851  46.2480497  50.2337217
  40.4008913  46.7509222  49.4303274  40.5868673  46.1523247  51.0426474
  38.6120272  47.0967960  50.5948973  38.7906599  48.1422710  50.3435564
  38.3964372  47.0600796  51.6627359  37.5290513  46.4798880  49.7511864
  37.3817444  46.9594097  48.7834787  36.5454960  46.6901493  50.1713133
  37.8952241  44.9706221  49.6727180  37.2659564  44.5512247  50.4577208
  37.3718977  44.2192984  48.4259796  36.2503767  43.6839819  48.4493732
  38.1863213  44.1397524  47.3650742  39.0914750  44.5878506  47.3670578
  37.6948762  43.6385965  46.0658360  36.7425227  43.1500292  46.2718105
  37.5999570  44.9084806  45.1685619  36.8935585  45.5891323  45.6437635
  38.5615945  45.4082394  45.0519753  37.0903397  44.4748688  43.8326693
  37.9813170  44.1154623  43.3178043  36.3461351  43.6784935  43.8263416
  36.3143086  45.8117437  42.8708649  37.7289081  46.9645929  42.4952412
  38.4670949  46.4048815  41.9208670  37.3583150  47.7687979  41.8596172
  38.2705331  47.2324610  43.4024286  38.4748316  42.4259138  45.5534554
  39.6241307  42.2022057  45.9503984  37.9273438  41.6565752  44.6455526
  36.9737339  41.8402052  44.3680429  38.5631180  40.4592991  44.0643215
  39.5518374  40.8291245  43.7927341  38.7382722  39.3666959  45.1564264
  38.9175439  38.4250689  44.6374846  39.4776535  39.5888305  45.9258890
  37.8241801  39.2946935  45.7457924  37.7979994  40.0168610  42.8122902
  36.5267920  40.1074028  42.7156496  38.5709310  39.3924117  41.9368744
  39.5489717  39.6409917  41.9786596  38.0601907  38.5741329  40.8609390
  37.2384977  39.1001320  40.3748894  39.1971231  38.2681990  39.8552752
  38.7759471  37.6637983  39.0518999  39.5423818  39.1543007  39.3226171
  40.0508785  37.7588367  40.3022146  37.6097536  37.2207808  41.3881063
  38.3080888  36.6090369  42.2319746  36.4583492  36.6344881  40.9264088
  35.9536505  37.1380162  40.2109814  35.9846997  35.3348398  41.1949205
  36.8222260  34.6838903  41.4457464  35.0045490  35.4218698  42.3668194
  34.1215777  36.0149193  42.1285868  34.6209288  34.4159198  42.5371265
  35.5536580  35.9369469  43.6808014  35.8981609  35.0529528  44.6904945
  35.9573436  34.0000439  44.4574928  36.2203312  35.4388666  46.0100317
  36.4612818  34.7081065  46.7678833  36.0322571  36.8110991  46.3031530
  36.2597871  37.2391844  47.5577784  36.6418886  36.5757489  48.1369591
  35.6906509  37.7211118  45.2905750  35.6447721  38.7597656  45.5829763
  35.4036736  37.2976327  43.9585543  35.1187086  37.9079056  43.1142998
  35.3263545  34.6469903  39.9489212  34.9985385  35.4149580  39.0162325
  35.0208449  33.3115745  39.9536300  35.4394507  32.8047872  40.7204676
  34.6794462  32.6513886  38.6540079  34.5426798  33.3368587  37.8176308
  35.9342647  31.8565679  38.2236624  36.6711545  32.6545310  38.1322432
  36.5559578  30.8822584  39.2284727  36.8170094  31.4492559  40.1220417
  35.8534002  30.0977063  39.5095325  37.4721146  30.5429387  38.7451315
  35.8005333  31.1072588  36.9317174  35.1038551  30.2771521  37.0485878
  35.3767347  31.8569422  36.2635303  36.7857003  30.8017945  36.5792418
  33.4622407  31.8027806  38.7773609  33.4681487  30.7675290  39.4411635
  32.4773645  32.2017145  37.9424715  32.7602696  32.9113960  37.2818470
  31.2580299  31.3677549  37.5455189  30.6276727  31.2708855  38.4294701
  30.4825401  32.3059440  36.5565753  30.0725389  33.2475162  36.9218755
  31.1966062  32.6480746  35.8074689  29.3568921  31.5929437  35.8307171
  29.6318436  30.6021738  35.1652265  28.1113458  31.8794608  36.0391521
  27.3500848  31.2695909  35.7771540  27.8647113  32.7091455  36.5596294
  31.6442537  29.9898887  36.9982028  32.6650691  29.8899627  36.3148046
  30.9032559  28.8799977  37.2346210  29.6098185  28.9164233  38.0125690
  28.9923477  29.7541833  37.6885486  29.6479273  28.9457154  39.1015100
  28.9316797  27.6002836  37.6385975  28.3321095  27.7763534  36.7455053
  28.4136415  27.2456670  38.5296512  30.1232171  26.6769695  37.5300407
  29.7909665  25.7800770  37.0072627  30.4299784  26.4867711  38.5585451
  31.2521505  27.4644756  36.8686223  32.1375704  27.1031833  37.3916936
  31.2135577  27.1241307  35.4226327  31.8692613  26.1872530  34.9692798
  30.4660892  27.8495932  34.5713305  29.9632120  28.6183238  34.9911809
  30.6015491  27.8049231  33.1134129  30.4530787  26.7806268  32.7715397
  29.4588208  28.6423635  32.5102639  29.3924713  29.6606421  32.8934145
  29.5816565  28.5555863  31.4306879  28.1301212  28.0743575  32.7639532
  27.3704147  27.9178882  33.9479399  26.2089682  27.4630523  33.5605073
  25.3484440  27.2326517  34.1710901  26.1647868  27.2281241  32.2278047
  25.4403067  26.8255353  31.6506100  27.3381853  27.6547313  31.7662644
  27.7368569  27.5953460  30.7642984  31.9949150  28.2361460  32.7140141
  32.4197364  28.1437659  31.5610838  32.7026772  28.8597846  33.6530852
  32.3677635  28.9637971  34.6002460  34.0438771  29.4716191  33.3572698
  34.6847200  29.5324373  34.2368841  34.5746946  28.9296055  32.5746107
  33.8157392  30.9435081  32.8407121  34.0435624  31.1671543  31.6726637
  33.4598541  31.8879795  33.6919117  33.3808923  31.5771747  34.6496534
  33.3609486  33.3716559  33.3701897  33.9953828  33.5390949  32.4998116
  32.0241833  33.8249660  32.8798008  31.2144923  33.7479305  33.6054492
  32.1728158  34.8819542  32.6589274  31.5318394  33.1891084  31.6265893
  30.6304288  32.1300936  31.7702723  30.3946805  31.7553806  32.7553678
  30.0493336  31.5404081  30.6132483  29.3043947  30.7722068  30.7592964
  30.4202175  31.9354081  29.3270397  29.7879720  31.4712524  28.2545447
  30.3230858  31.5436101  27.4608088  31.3486099  32.9969716  29.2025900
  31.7381144  33.3564925  28.2616162  31.7695808  33.6893272  30.3567767
  32.4615479  34.5022750  30.1933837  33.8261437  34.2033029  34.6023059
  33.2084060  34.0796089  35.6440425  34.8465061  35.0338006  34.4029999
  35.3556418  34.9164581  33.5386395  35.4454231  35.7436657  35.5043817
  35.2481914  35.1365972  36.3879371  37.0473337  35.7509112  35.3692961
  37.3947573  36.3177991  34.5055604  37.6900387  36.3950801  36.6749072
  37.4302649  35.9049559  37.6132011  38.7793326  36.3647366  36.6500163
  37.4338961  37.4544644  36.6609120  37.7571940  34.3785501  35.2850842
  37.3828268  33.7801313  34.4545126  38.8160729  34.5662475  35.1071882
  37.6943946  33.7834549  36.1961365  34.8486519  37.1338820  35.7482839
  34.7967219  38.0082393  34.8852348  34.2445564  37.2887135  36.9203186
  34.2497587  36.4729786  37.5158429  33.5682178  38.5381746  37.5110102
  33.3330965  39.1910505  36.6704297  32.2987318  38.0828738  38.2003212
  32.4971604  37.2016168  38.8103318  31.9832253  38.9427257  38.7912703
  31.2468338  37.7644587  37.2495651  30.2809262  38.6320472  36.6899276
  29.5215654  37.8564310  35.8113074  28.8095450  38.2547235  35.1036406
  30.0191522  36.6107821  35.8098626  29.6192026  35.8987665  35.2155733
  30.9901643  36.4944196  36.7422009  31.6365385  35.6384373  36.8683028
  34.4480515  39.1867971  38.5366607  35.3034592  38.5275030  39.1625428
  34.3728638  40.4898691  38.6757326  33.8440132  41.0461664  38.0192637
  35.1615047  41.2777376  39.6323204  35.6644344  40.5921888  40.3143644
  36.1383820  42.1113348  38.7870789  36.7210603  41.4211226  38.1770015
  35.5646753  42.7636385  38.1287003  37.0731854  42.8770781  39.7875071
  36.4846301  43.5327339  40.4292393  37.6551008  42.1855545  40.3968239
  38.1321740  43.8119030  39.1132641  38.9651966  44.3979931  39.8553443
  38.1418920  44.0311146  37.8828979  34.2954540  42.1037102  40.6014442
  33.4895110  42.9278135  40.1193857  34.4256425  41.9221067  41.9185829
  35.2017260  41.2971640  42.0836496  33.4841442  42.0888615  43.0626869
  32.5669122  42.5377655  42.6815414  33.0919862  40.6871176  43.5971498
  33.9849329  40.3476191  44.1220140  32.0553780  40.7636738  44.7316313
  31.0971999  40.7757807  44.2121506  32.1522212  39.9166250  45.4107714
  32.1292043  41.6366196  45.3801823  32.9499602  39.6196795  42.5107050
  33.7711811  39.5866060  41.7947388  32.7577639  38.7305403  43.1112003
  31.7063332  39.8676491  41.6719484  31.4651084  38.9646268  41.1111832
  30.8060384  40.1766300  42.2030830  31.8880630  40.6407547  40.9253693
  33.9541602  43.0063963  44.1939402  34.7835803  42.5766945  44.9830103
  33.4705853  44.2608261  44.2704296  32.9546499  44.6302462  43.4846592
  33.5667968  45.0666332  45.5008698  34.5985484  45.0923347  45.8514833
  33.2051301  46.5823698  45.2979374  33.5328054  46.9149637  44.3129921
  32.1264362  46.4774513  45.1816988  33.5744524  47.6892042  46.2433195
  33.2813144  47.4657631  47.2691154  35.0613451  47.9988527  46.2734604
  35.6298423  47.1054840  46.5319204  35.4493070  48.3168840  45.3057623
  35.3169656  48.8522291  46.9015598  32.8779340  48.9834929  45.7713652
  31.8026567  48.9621973  45.9486437  33.2248735  49.7765446  46.4337921
  32.9546118  49.2951584  44.7296906  32.7397394  44.4853497  46.6815424
  31.5148830  44.3379211  46.5813684  33.3611822  44.1791058  47.8492594
  34.3684626  44.1148090  47.8860474  32.7436447  43.8961887  49.1566992
  31.8713403  43.2643080  48.9896202  33.7394834  43.0948925  50.0551033
  34.4793153  43.8201952  50.3937483  32.8091311  42.4566031  51.1441135
  32.4313736  43.3050919  51.7146206  32.1552968  41.7516518  50.6306505
  33.3177733  41.7574072  51.8078184  34.2436790  41.9697285  49.3227959
  34.8913407  42.2984791  48.6950541  32.2950435  45.2247810  49.8058319
  33.1153369  46.1344719  50.0717449  30.9707069  45.2942753  50.0346184
  30.4054189  44.4660997  49.9134731  30.3503799  46.4699554  50.5929518
  31.1663842  47.0822954  50.9767294  29.5752525  47.3406458  49.6338892
  28.7641573  46.7421198  49.2191696  28.9181209  48.5797548  50.2005243
  29.6651101  49.3729830  50.1705980  28.1052589  48.7461472  49.4936514
  28.4508228  48.3772659  51.1642313  30.5207348  47.7773094  48.4593487
  31.3497376  48.3561563  48.8665199  30.7984543  46.8588495  47.9422331
  30.0523329  48.4642506  47.7545023  29.4913292  46.1552477  51.8356895
  28.7097383  45.2169943  51.7634678  29.8569012  46.6366148  52.9980183
  30.4129696  47.4789000  52.9598761  29.1731596  46.2561941  54.2797756
  29.4350290  45.2079916  54.4239950  29.7136617  47.0056677  55.4802608
  30.7660842  47.2519779  55.3394032  29.2599893  47.9818487  55.6515932
  29.7226810  46.1679268  56.7830706  28.8232446  46.5418434  57.8795052
  28.1920791  47.4174643  57.9157972  28.8908911  45.8261871  59.0631104
  28.1986046  46.1245108  59.8365068  29.7383451  44.6982288  59.1788530
  29.9068141  44.1063499  60.3594065  30.7739162  43.7193918  60.5008268
  30.6325197  44.3595314  58.1539965  31.4520669  43.6698103  58.2919502
  30.5648112  45.0470209  56.9408131  31.3661480  44.8404884  56.2468386
  27.6237345  46.4378786  54.2954254  26.9007134  45.5074263  54.6013737
  27.1511388  47.6176596  53.8590479  27.8352523  48.3517408  53.7440825
  25.6764913  48.0497837  53.8269949  25.1105499  47.1541262  53.5708475
  25.2024651  48.3053493  55.2537394  24.1336608  48.5189629  55.2650833
  25.1978874  47.3909569  55.8470011  26.0402179  49.4830418  55.8593893
  27.0611334  49.1850042  56.0981512  26.0497093  50.2994967  55.1373053
  25.3913355  50.0325155  57.1843863  24.3529868  50.3177261  57.0152998
  25.5157399  49.1596270  57.8252316  26.2080574  51.0994053  57.8356266
  27.1817136  50.6424761  58.0125666  26.3095641  51.9357300  57.1439886
  25.6697202  51.5710258  59.1411686  26.3074350  52.2818518  59.4700289
  24.8197126  52.1069527  59.0393591  25.5946255  50.8642197  59.8587275
  25.3996658  49.0185547  52.6286602  26.2666702  49.8174429  52.1811247
  24.1789603  48.8767672  52.1178150  23.6746216  48.0617380  52.4363661
  23.7463999  49.4779539  50.8953381  24.2396712  50.4434586  50.7831621
  24.3051958  48.5757399  49.8379850  25.3355813  48.2973099  50.0590944
  23.7384725  47.6731300  49.6094704  24.3378735  49.1514063  48.9129782
  22.2006297  49.5964336  50.8105040  21.4835596  49.1710329  51.7430830
  21.6447210  50.0938845  49.6925020  22.2934127  50.5689812  49.0812922
  20.2531886  50.4280996  49.4570541  19.5587969  49.7722721  49.9822283
  20.0864387  51.8161917  49.9683046  20.4720378  51.9854355  50.9736776
  20.5936861  52.4826241  49.2706871  18.3973145  52.4160480  49.8736000
  18.3521605  52.8328943  48.6050987  19.9750400  50.4316521  47.9325485
  20.8509302  50.5663204  47.1125698  18.7131870  50.1779890  47.5586796
  18.2067382  49.7777462  48.3354807  18.2469809  50.1541901  46.1622381
  17.1824872  49.9224186  46.1270571  18.4093857  51.5708447  45.5474758
  19.4771099  51.6020393  45.3304672  17.8183770  51.6026545  44.6321630
  17.8793824  52.6589727  46.4596224  16.7337251  52.5104809  46.9342566
  18.5759830  53.6995888  46.6873598  18.1964099  54.5130301  47.1503305
  19.5024538  53.8103819  46.3007307  18.8041675  48.9457655  45.3695965
  18.8781524  49.0960646  44.1477299  19.2126954  47.8669882  46.0120344
  19.0287507  47.7595949  46.9993210  19.7680736  46.7079973  45.3701544
  20.0896955  46.9672060  44.3614578  21.0630655  46.1943531  45.9975815
  20.8464384  45.7007170  46.9449472  21.4251089  45.4498100  45.2885866
  22.1668744  47.1879148  46.1305666  21.8315601  48.0828953  46.6546631
  23.3962750  46.6292238  46.9897509  24.2207527  47.3362827  47.0814514
  22.9098439  46.4429760  47.9472446  23.6304927  45.6548119  46.5610790
  22.7774096  47.6545954  44.8527145  22.1400476  48.3725595  44.3365812
  23.7903357  48.0466413  44.9442816  22.9182220  46.7832851  44.2131090
  18.6576355  45.5221939  45.3208256  18.6115301  44.7007465  46.2505102
  17.6655626  45.7918644  44.4696379  17.8424883  46.3249254  43.6302090
  16.4245725  44.9693108  44.4251347  15.9336615  45.0555038  45.3945065
  15.4312265  45.4615879  43.3319902  15.8941567  45.4245758  42.3458719
  14.5992935  44.7578001  43.3060265  14.7622001  46.8451452  43.6057043
  15.0964868  47.6031494  44.5249033  13.9613056  47.3398876  42.6238632
  13.6160815  48.2870197  42.6860857  13.6669803  46.7673922  41.8455839
  16.8392932  43.5310745  44.1666317  17.7248096  43.2836962  43.3725214
  16.1944127  42.5593042  44.8197699  15.3947508  42.8062963  45.3851366
  16.4921486  41.1323500  44.6668530  17.5117338  41.0781622  44.2852592
  16.3175988  40.2972937  46.0220671  15.2626610  40.3471470  46.2917328
  16.6567731  39.3030262  45.7313919  17.1377087  40.8796072  47.2093248
  16.6193652  41.7899990  47.5103378  17.2758186  39.8047829  48.3324480
  16.3578475  39.2193317  48.3841801  18.1861651  39.2384768  48.1357908
  17.4210167  40.3477955  49.2663431  18.6666358  41.1303091  46.8496513
  19.1017878  40.2980757  46.2963533  18.6807466  41.8921137  46.0701895
  19.2996740  41.4095402  47.6919079  15.6710756  40.4972792  43.5616541
  14.6314347  41.0162497  43.2245255  16.1297619  39.4900203  42.9197931
  17.1035814  39.2476964  43.0340528  15.4253209  38.6586428  41.9439030
  14.3981659  38.5864758  42.3014593  15.4349589  39.3419409  40.5125570
  15.0295591  40.3185463  40.7771206  16.9066393  39.6159887  40.0287199
  17.5930893  38.7886286  40.2085876  16.8698049  39.9314475  38.9860177
  17.3823774  40.4115963  40.6021070  14.4549942  38.6174035  39.5497108
  14.4609666  39.3837667  38.7746310  14.7757685  37.6887679  39.0776467
  12.9825544  38.5552859  39.9460435  12.8374183  38.1860018  40.9612560
  12.5025916  39.5333123  39.9806690  12.5315738  37.9329896  39.1730809
  15.9277856  37.2734189  41.9312334  17.1348798  37.0465803  41.8370724
  14.9728525  36.3527107  41.9583797  14.0343666  36.7121768  42.0590258
  15.1808238  34.8858571  42.0035744  14.3389201  34.4137502  41.4972019
  16.0966372  34.6487379  41.4621353  15.3167629  34.2977929  43.3931255
  15.8967340  34.9811816  44.2246246  15.0159013  33.0056906  43.5759115
  14.8308253  32.4374008  42.7617264  15.2233291  32.2901940  44.8440123
  14.6735883  32.7823615  45.6462955  14.6852636  30.9002376  44.5944977
  13.6237454  30.8887601  44.3472099  15.3142655  30.5015206  43.7985802
  14.7445214  29.7827220  45.6371498  15.7451451  29.7078300  46.0628796
  14.0780687  30.0532341  46.4561558  14.3520486  28.4131455  45.0190115
  13.2854879  28.3039999  44.8224497  14.9379098  28.2594156  44.1127920
  14.7555363  27.2804809  45.8809853  15.6629586  26.9159126  45.6284475
  13.8851380  26.7696095  46.7875195  14.2993748  25.7483649  47.5033283
  15.1852190  25.2864122  47.3550653  13.6468267  25.3741646  48.1773138
  12.6581228  27.2278047  47.0617867  12.3632777  27.9710293  46.4447069
  12.0347428  26.7920613  47.7263355  16.6957510  32.2613192  45.3115034
  17.5165761  32.2299933  44.3734264  17.0394957  32.2126126  46.5764236
  16.1997366  32.4744391  47.6881647  15.3256571  31.8240857  47.6546288
  16.0503876  33.5540318  47.7048826  16.9472325  32.0852017  48.8906479
  16.9425750  31.0021424  49.0133858  16.4703214  32.5450706  49.7562027
  18.3310783  32.6744437  48.5020351  19.1477454  32.1829462  49.0307951
  18.2422221  33.7601805  48.5391569  18.4341025  32.2391367  47.0622540
  19.0618384  32.9642415  46.5442944  19.1413021  30.9585571  46.8371344
  18.4332430  29.9119663  46.8672705  20.4742169  30.9276819  46.6727066
  21.0685539  31.7355442  46.7919588  21.1458755  29.6192861  46.5239143
  20.6685472  28.7735295  47.0188427  21.1182594  29.3176866  45.0040483
  20.0979185  29.3585801  44.6228266  21.5823150  30.1285696  44.4425964
  21.7894340  28.1060648  44.6295643  21.3285112  27.7453756  43.8686085
  22.5620866  29.5441556  47.0413113  23.1467462  30.6676745  47.1810007
  23.2358694  28.4278941  47.2643089  22.7247477  27.5595236  47.1951246
  24.6515417  28.3392906  47.6404858  24.9115515  29.3580675  47.9278755
  24.7720909  27.2859287  48.9077759  25.8498764  27.1828270  49.0336752
  24.1318488  27.8635526  50.1698923  23.0469966  27.8724742  50.0644827
  24.5519114  27.3489332  51.0340786  24.5658708  28.8538170  50.3081036
  24.0530658  26.1508465  48.6126328  24.7256851  25.5436087  48.2956982
  25.6213832  27.7939200  46.5016508  26.7933345  27.5327802  46.8296432
  25.1089382  27.5952458  45.2586460  24.1400766  27.7763057  45.0381279
  25.7203174  26.7551589  44.2383337  26.0482144  25.8059287  44.6620703
  24.7171831  26.4526272  43.1736803  24.2498398  27.3854947  42.8583288
  25.2976489  26.0365033  42.3502731  23.5872912  25.5272770  43.5251617
  22.7189827  25.9939599  43.9903021  23.2514095  25.1740551  42.5502157
  24.0618253  24.2792296  44.3246222  23.4821701  23.9590812  45.3600454
  25.0486350  23.6657429  43.7698174  27.0677114  27.5026011  43.8026810
  26.9905472  28.6021709  43.1850958  28.2377553  26.9290519  44.0092611
  28.2562542  26.0829496  44.5605040  29.5353508  27.4903107  43.5793400
  30.3649688  26.9114351  43.9852333  29.6731210  27.4681687  42.0325804
  29.0549564  26.6578197  41.6461754  29.3182611  28.4126019  41.6200018
  31.0750246  27.3692036  41.4954138  31.5870762  26.1950374  40.9663010
  32.6806712  26.6273332  40.3309059  33.3757782  25.9498763  39.8573232
  32.8400135  27.9750919  40.3769588  33.5523129  28.4644270  39.8541951
  31.8118286  28.4755731  41.1262274  31.4499140  29.4887447  41.2205744
  29.8254204  28.8392830  44.3082237  30.4881048  29.7608209  43.7540627
  29.5169926  28.9631724  45.6208515  29.1919518  28.1175685  46.0674000
  29.4906831  30.2107215  46.3934851  29.0272689  30.9579515  45.7492876
  28.5069132  30.1067567  47.5916338  27.5753450  29.5912981  47.3579979
  28.9259219  29.4005990  48.3084869  28.3144069  31.3746667  48.1495667
  27.6800752  31.2889504  48.8650227  30.8306170  30.7120585  46.7500877
  31.5062237  30.0359464  47.4920273  31.3543534  31.8045354  46.1774111
  30.7253885  32.2972131  45.5595350  32.6779509  32.2697449  46.2423563
  33.3873343  31.5053177  45.9252977  32.8001857  33.4294772  45.1941919
  32.2137904  34.2473030  45.6129980  33.8299203  33.7795639  45.2662182
  32.5069284  33.1180477  43.7696314  32.6267076  31.9853806  43.0774355
  33.0656028  31.0736918  43.4550571  32.2860789  32.2587657  41.7523956
  32.0618296  31.5590239  41.0594511  31.8714929  33.5840845  41.6341257
  31.3856578  34.2962813  40.5001402  31.1889887  33.8444972  39.5390940
  30.9836602  35.6481266  40.6443787  30.6834006  36.2586594  39.8056316
  31.0452890  36.1670184  41.9070911  30.7828736  37.2121620  41.9792700
  31.6063333  35.4840755  42.9841185  31.7624521  36.0021996  43.9187765
  32.0300198  34.1323924  42.8683615  33.1709456  32.6576447  47.6551914
  34.3447924  32.8634095  47.8408623  32.2332215  32.8235388  48.5878229
  31.3322091  32.4144459  48.3855343  32.3988605  33.1914616  50.0146484
  33.4273458  33.4384561  50.2779293  31.5861320  34.4643259  50.2914524
  30.6489563  34.5412374  49.7401905  31.3610125  34.5419431  51.3551283
  32.2893906  35.6948757  49.7820139  32.9402065  36.5708327  50.6365871
  32.9865742  36.2842607  51.6768408  33.5019255  37.8305864  50.2301025
  33.9836597  38.4511423  50.9712076  33.5585594  38.0410123  48.8240576
  34.1202211  38.8949943  48.4752703  32.9043174  37.1666312  47.9082203
  33.1396317  37.3061705  46.8634415  32.2309303  35.9881639  48.3757019
  31.7635512  35.3158545  47.6714611  31.9350863  32.0410156  50.8655119
  30.8194995  31.6456032  50.5433798  32.7100492  31.3634634  51.6698217
  34.0285420  31.6844773  52.0875692  33.9494634  32.4967456  52.8101110
  34.7237968  31.9124961  51.2796497  34.5926547  30.5137706  52.8454971
  34.5206881  30.6772780  53.9207602  35.6562090  30.3008771  52.7376509
  33.6591387  29.3615198  52.5091124  33.5393620  28.5626578  53.2409430
  33.9831519  28.8787079  51.5871525  32.3080039  30.0699329  52.2070360
  31.7505383  29.4969130  51.4661074  31.3827014  30.2338958  53.4492254
  31.7195654  30.9831882  54.3867064  30.2411199  29.5310450  53.4511757
  30.0854707  28.9170194  52.6645088  29.2033458  29.6033645  54.3833876
  28.6274076  28.6920929  54.5445681  29.6994138  29.7186971  55.3470945
  28.1499934  30.6676865  54.0846491  27.4001217  31.0332274  55.0377035
  28.0391073  31.1037803  52.8942776  28.6982083  30.8052373  52.1896029
  27.1763396  32.1883392  52.3984671  26.4736676  32.4999356  53.1712914
  28.0909252  33.3638787  52.0047903  28.9110899  33.1273723  51.3269281
  27.4649978  34.0954375  51.4937735  28.5998654  34.1155434  53.2055998
  29.8806190  33.8082385  53.7367201  30.5791378  33.1826639  53.2008791
  30.3505564  34.5265317  54.8600721  31.3061810  34.4020653  55.3476048
  29.4588113  35.3725338  55.5471325  29.8994660  35.9982109  56.6552162
  29.1138315  36.3491607  57.0809174  28.1388044  35.5091882  55.2240562
  27.4868894  36.1807251  55.7629967  27.7150059  34.9364376  53.9805746
  26.6935134  35.1405096  53.6954308  26.2901568  31.7108369  51.3117790
  26.6917109  31.0418534  50.4109287  24.9895978  32.1594620  51.2532377
  24.6724129  32.7606511  52.0002794  24.1099644  31.9505000  50.1675987
  24.5226359  31.1616540  49.5386887  22.7724910  31.4945698  50.7820559
  22.9659534  30.5612683  51.3108492  22.3322082  32.2920918  51.3805723
  21.9713616  31.2611961  50.0807524  23.9523339  33.2459927  49.3561935
  23.7754917  34.3295455  49.9660635  24.2735147  33.2659125  48.0625820
  24.1819715  32.3674321  47.6104164  24.1691041  34.4457245  47.1966314
  24.4661593  35.3138757  47.7850008  25.1345348  34.3469143  46.0092068
  24.8437977  35.0831151  45.2598238  26.1085153  34.6547174  46.3896227
  25.1076937  32.9653358  45.3464699  26.0216093  32.0127892  45.6419325
  26.8669415  32.1173286  46.3059282  25.7889819  30.9199786  44.8001862
  26.3545203  30.1081347  44.5972729  24.7593999  31.1157632  43.9845705
  24.2299366  30.2872157  42.9678726  24.7696042  29.3711042  42.7784109
  23.2285261  30.8199954  42.1725607  22.7385378  30.1992822  41.4370155
  22.5826645  32.0308185  42.5511169  21.7838740  32.4411750  41.9511604
  23.0359840  32.7812910  43.6457348  22.4873185  33.6421227  43.9983511
  24.2340279  32.3962808  44.2731285  22.7151418  34.7214985  46.6852140
  21.8560433  33.8313174  46.7650890  22.4009252  35.9647727  46.4062500
  23.0162096  36.6697860  46.7863607  21.0618687  36.4225674  45.9078312
  20.6440687  35.5517697  45.4026079  19.9769795  36.6494393  46.9890928
  20.1629639  37.6391959  47.4060965  18.6168313  36.5960193  46.3821268
  18.4414184  37.4358058  45.7097530  18.3992720  35.6748962  45.8414841
  17.9318488  36.7461395  47.2166204  20.0313973  35.6978106  48.0281448
  20.6598926  35.0656343  47.6718473  21.2210894  37.5154686  44.9013042
  21.5313601  38.6445212  45.3425360  20.9613085  37.3009419  43.5906267
  20.6056166  36.3961244  43.3169556  21.0390735  38.3273911  42.4890947
  22.0672464  38.5910511  42.2412157  20.4551077  37.8261590  41.1939621
  19.4233358  37.5641108  41.4282179  20.4665422  38.8580608  40.0852823
  21.4717293  39.2405200  39.9080181  19.9648380  38.4287167  39.2180681
  19.8729110  39.7039819  40.4318714  21.2627077  36.7000890  40.6729078
  20.6804729  36.2369347  39.8762989  22.2114968  37.1224785  40.3420258
  21.4690709  35.9799242  41.4646626  20.3839755  39.6096611  42.8881121
  19.1951191  39.7101736  43.2456017  21.2502503  40.5717134  42.9109526
  22.1003866  40.2779055  42.4515533  20.9331608  41.9326830  43.2469606
  19.9674058  42.0831490  43.7294292  22.0167160  42.2746229  44.3087244
  21.7431140  43.0257607  45.0496912  22.2095275  41.3757515  44.8943472
  22.9129839  42.6252699  43.7970114  21.0538697  42.9118204  42.0802307
  22.0700145  42.9493093  41.3303614  20.0414586  43.6872196  41.8965340
  19.3346334  43.6734390  42.6178646  19.7954464  44.5305490  40.7154083
  20.7364726  44.6078300  40.1707983  18.8343322  43.9085293  39.6470594
  18.9965963  44.4605541  38.7212968  19.1889143  42.8910398  39.4824648
  17.3857784  43.7650919  40.1328707  17.3673296  43.1249237  41.0148811
  16.9384062  44.7149086  40.4258013  16.4326143  43.1744957  39.1090488
  15.2669644  42.8320599  39.4647527  16.8651891  42.8844976  37.9387093
  16.2879312  42.3159409  37.3357034  17.7922356  43.0648947  37.5807405
  19.3676841  45.9966469  41.0411882  18.8985085  46.2024021  42.0823050
  19.5226908  46.9092751  40.0426865  19.9005818  46.6456032  39.1439199
  19.1104519  48.3286190  40.1434565  19.4579363  48.7272692  41.0965729
  19.7897267  49.0398693  38.9146519  19.5188832  48.5256195  37.9925394
  20.8588862  48.8736773  39.0464759  19.3865061  50.8044767  38.7769103
  17.6156020  48.5864258  40.1578522  16.8498719  47.8712416  39.4574261
  17.1691489  49.5403385  40.9364796  17.8199923  50.0265551  41.5365648
  15.7196224  49.8727179  40.8740997  15.1770473  48.9365196  41.0054445
  15.3683817  50.7081699  42.1104813  14.2872214  50.7600594  42.2389317
  15.6729448  50.1275969  42.9812717  15.9305930  52.1452236  42.1230888
  17.0191491  52.1224880  42.0717621  15.3462780  52.5914860  41.3183975
  15.5840039  52.8661776  43.4750223  15.6965804  52.1990108  44.3296051
  16.2774432  53.7045002  43.5418320  14.1939032  53.6523342  43.4021235
  14.3707788  54.4203806  42.6491833  13.4753048  52.9294682  43.0158854
  13.8527191  54.2275715  44.6852732  14.5379770  54.9014616  44.9957514
  12.9338360  54.6450472  44.6469736  13.8203728  53.4529924  45.3326368
  15.2559757  50.5400133  39.5924211  14.0777802  50.3492308  39.2426729
  16.0982525  51.3569641  38.9631009  17.0835125  51.2745333  39.1694260
  15.7625735  52.2574711  37.7750516  14.6896005  52.4488068  37.7898431
  16.7052615  53.5388660  37.8440118  17.7647340  53.2919979  37.9124284
  16.4236867  54.4822741  36.6294575  16.6805303  54.1229773  35.6329417
  15.3805745  54.7676134  36.4930749  16.9416404  55.4212666  36.8246984
  16.5453339  54.2670202  39.1708255  16.8464351  53.6360312  40.0070620
  17.2793329  55.0685740  39.2536616  15.1214170  54.8145485  39.4915366
  14.3801987  54.0488291  39.7203779  15.1455760  55.4071712  40.4060411
  14.6989012  55.4757166  38.7349415  15.9914958  51.5873671  36.4293289
  15.1131177  51.5757179  35.6039166  17.1956885  51.1442423  36.0952663
  17.9410386  51.1281061  36.7766571  17.5053489  50.6521320  34.7450662
  16.7805934  51.0285187  34.0231490  18.8902879  51.3024759  34.2940283
  18.9430630  52.3485851  34.5956421  18.8925469  51.3154364  33.2041073
  20.2776265  50.3716564  35.0037217  17.3798621  49.1630220  34.6280885
  16.9519854  48.6480522  33.6142993  17.5060332  48.5272551  35.7775784
  17.7036762  49.0521479  36.6175342  17.3984087  47.1075821  36.0808706
  17.2218382  46.9814348  37.1490526  16.1505306  46.3621712  35.3621006
  16.2193823  46.4655638  34.2792010  16.2239623  45.2987957  35.5900049
  15.2260172  46.8239403  35.7087207  18.7142801  46.3359213  35.8271837
  18.7476742  45.0943947  36.0102510  19.8323703  47.0240831  35.5785966
  19.7527623  47.9407167  35.1620126  21.1587381  46.4391470  35.5910754
  21.2609220  45.8513737  34.6788359  22.1222329  47.6009655  35.4233527
  21.6064310  48.1153536  34.6125150  22.1688986  48.3605909  36.2036681
  23.3572626  47.0275831  35.1180148  24.0323114  47.6530170  35.3914142
  21.3930869  45.5428171  36.7903709  21.0176420  45.8933163  37.9120851
  21.9470978  44.3636322  36.5349841  22.0489240  44.0963411  35.5663323
  22.3991179  43.3997631  37.5132418  21.7358565  43.3187437  38.3744168
  22.6631141  42.0150185  36.9289565  23.2548213  42.1082783  36.0183048
  23.2821584  41.4819145  37.6505423  21.4233398  41.2224674  36.5410423
  21.3507581  39.8276687  36.5700579  20.0747728  39.5282888  36.3983345
  19.6992660  38.5450268  36.6403937  19.2839658  40.6013107  36.2940073
  18.2884979  40.4635286  36.1932158  20.1104736  41.7126703  36.4127517
  19.7037697  42.7122974  36.4544058  23.7224102  43.9986515  38.0168462
  24.7198009  44.0644789  37.3598361  23.5974240  44.5209265  39.2744493
  22.7262592  44.4739294  39.7833323  24.7448635  45.1704407  39.9435472
  25.4287624  45.7236528  39.2998528  24.2025733  46.1307812  41.0538626
  23.7328410  45.5372620  41.8382025  25.4029751  46.8271255  41.8015480
  26.1559033  47.2285938  41.1232996  25.1313710  47.6034212  42.5168800
  25.8770919  46.0641670  42.4189758  23.3081055  47.3010015  40.5568504
  23.9888430  48.0668592  40.1851559  22.7717829  46.9988012  39.6573305
  22.5072289  47.9737091  41.6639709  21.8864417  47.2083282  42.1297169
  23.1461763  48.6387634  42.2449589  21.7534590  48.6316967  41.2315512
  25.6264448  44.1078568  40.5861330  26.8418574  44.2433023  40.7028580
  25.0678635  43.0135775  41.1334038  24.0895653  42.8091908  40.9875917
  25.8240771  41.9922066  41.8858290  26.4374280  41.4193916  41.1902857
  26.5158749  42.3994350  42.6231813  24.9589753  41.0225248  42.7097797
  24.0685916  40.3837252  42.1443748  25.2753758  40.7188654  44.0077162
  26.0664678  41.2378883  44.3611050  24.5680761  39.7865486  44.8839760
  23.5498142  39.7161007  44.5015097  25.1205301  38.3981872  44.8676920
  26.1138749  38.4474492  45.3137159  24.4827271  37.9074550  45.6028748
  25.2053070  37.6424217  43.5936260  24.4027996  36.6163731  43.2098341
  23.5960007  36.2403011  43.8214254  24.7241712  36.2061524  41.9325542
  24.2859387  35.4183364  41.4771366  25.8368158  36.8582129  41.4683294
  26.6592431  36.8556452  40.2594090  26.4549732  36.1391425  39.4775534
  27.7252030  37.7516031  40.0730324  28.2801509  37.7979136  39.1476679
  27.9609203  38.6308455  41.1074209  28.7076068  39.3946981  40.9480476
  27.2504473  38.6759400  42.3130322  27.5379634  39.4044590  43.0566692
  26.1471415  37.7664471  42.5382280  24.4883513  40.3059292  46.3183260
  25.4774570  40.8356190  46.8149519  23.3361983  40.1454449  46.9342899
  22.4903011  39.9102020  46.4350700  23.2458305  39.9253488  48.3845234
  23.7043118  40.8364105  48.7690496  21.7658424  39.9240923  48.9259958
  21.3791561  40.9320068  48.7753773  21.3086438  39.0503120  48.4616804
  21.6134977  39.7298026  50.4308176  21.9361496  38.7175155  50.6742716
  22.2055125  40.5313540  50.8725548  20.1250696  39.9093318  50.7812929
  19.8422396  40.9211445  50.4908705  19.5966280  39.1326261  50.2285051
  20.0288415  39.6450949  52.3328495  20.5639744  38.7447309  52.6346397
  20.5527925  40.4850483  52.7889967  18.6128867  39.7356200  52.6945400
  18.2570887  40.5682325  52.2470474  18.1107545  38.8876987  52.4731970
  18.4323919  39.9155378  53.6718607  24.0834379  38.6109495  48.7848377
  24.0630388  37.5889945  48.0881405  24.7555542  38.6106730  49.9260283
  24.7367239  39.4844794  50.4322004  25.2349043  37.3692608  50.5481434
  24.8576808  36.5333056  49.9590921  26.7564654  37.2638988  50.5192852
  27.1861649  38.2256722  50.7993841  27.0422626  36.4405870  51.1739445
  27.4211121  36.9645452  49.1849995  27.7878332  37.9730248  48.2963943
  27.5539112  38.9821339  48.6019802  28.3162141  37.6150656  47.0918894
  28.5454059  38.4260702  46.4165068  28.4430909  36.3009071  46.6613531
  28.7458754  36.0412216  45.6577206  28.1192040  35.3012800  47.5895357
  28.1674290  34.3002725  47.1869659  27.5943232  35.5888867  48.8604593
  27.2999811  34.6997619  49.3982553  24.7685242  37.3144031  51.9963789
  24.7757888  38.3060861  52.7133703  24.3897510  36.0142183  52.4261904
  24.2884350  35.2068615  51.8278503  23.8158822  35.8652830  53.7560558
  24.0878248  36.6426992  54.4700384  22.2221160  35.8142900  53.6536503
  21.9869876  34.9804068  52.9922485  21.4032435  35.6261063  54.9387598
  21.6268611  34.6833420  55.4380512  21.6577482  36.4289927  55.6306410
  20.3459930  35.7067466  54.6861315  21.7092276  36.9599938  53.1558752
  21.9793844  37.0222855  52.2367764  24.2935872  34.5316195  54.3152332
  24.2841816  33.5418272  53.5720015  24.7056031  34.5164251  55.5489111
  24.4721627  35.3455472  56.0763168  25.2138948  33.3198309  56.2557507
  26.1483550  33.0060458  55.7905388  25.5548120  33.7290454  57.7263594
  26.2942672  33.0552483  58.1591463  26.0814118  34.6834016  57.7250338
  24.6036983  33.6698961  58.2554960  24.1977310  32.1594143  56.1281109
  22.9719353  32.3562336  56.3981342  24.6700144  30.9873128  55.9263325
  25.5926418  30.8584023  55.5361557  23.9734578  29.7386765  56.1979771
  22.8947043  29.8309040  56.0719490  24.4522285  28.5865808  55.2613544
  23.7754774  27.7350211  55.3317261  24.7969794  29.0222383  53.8292408
  23.9724326  29.6360731  53.4667063  25.7723570  29.4999313  53.7367773
  24.9694324  28.1079507  53.2614040  25.6484890  28.1592464  55.6686306
  25.5187178  27.3197913  56.1159277  24.0472507  29.2318559  57.6162672
  23.6850595  28.0886602  57.9664516  24.5119476  29.9801373  58.6021566
  24.8933268  30.8711267  58.3179235  24.4844937  29.7508097  60.0460529
  23.7643671  28.9509988  60.2187300  25.8981848  29.2001534  60.4955578
  26.0291219  28.2681680  59.9456835  26.6170979  29.9636698  60.1983976
  26.1268735  28.9741349  62.0297098  25.9698439  29.9239540  62.5408697
  25.4574561  28.1590533  62.3047161  27.5240612  28.6029458  62.3733807
  27.8538823  27.7246213  61.8185234  28.2174802  29.3828273  62.0586538
  27.7197528  28.1976438  63.8603592  27.5244689  29.1545630  64.3443775
  27.0983005  27.3730063  64.2094517  29.1865969  27.8178334  64.1511583
  29.3071270  28.0380869  65.1294518  29.2762232  26.8430829  63.9022923
  29.7989774  28.4252787  63.6257029  24.1085291  30.9896302  60.8065796
  24.7605276  32.0698047  60.7512712  23.1303549  30.8223104  61.6920376
  22.7010894  29.9126196  61.7831373  22.6638412  31.9561076  62.5670958
  22.4096465  32.7659798  61.8832874  21.5056229  31.4344072  63.4319925
  21.7970181  30.5622506  64.0172529  21.2969995  32.2391248  64.1369772
  20.2495837  31.1073017  62.5872135  19.9285114  31.9701076  62.0036173
  20.3606510  30.2283216  61.9522667  19.0680873  30.7649875  63.5317469
  19.2408133  29.9010348  64.1735029  18.7849069  31.5695071  64.2104673
  17.7885735  30.5453157  62.6554871  17.3951614  31.4967370  62.2975397
  18.1975877  30.1425076  61.7289066  16.7572796  29.6775484  63.2990265
  15.8473408  29.6793818  62.8607273  17.1510565  28.7499213  63.3664751
  16.5682113  30.0447726  64.2207098  23.7505865  32.5836468  63.5353565
  23.7761378  33.7698483  63.6506319  24.6448851  31.7309594  64.0229321
  24.6093869  30.7832146  63.6756277  25.7268858  32.1191502  64.9173594
  25.5551767  33.1115985  65.3340816  25.8452487  31.1393523  66.0889101
  26.0060096  30.1375794  65.6905317  26.7511296  31.5097928  66.5687609
  24.6371007  31.0223532  67.0110083  24.1051364  32.0447326  67.4603605
  24.1368723  29.8456693  67.2059917  26.9983244  32.3294616  64.1031122
  27.8476906  31.4180827  64.0638971  27.1111631  33.4270501  63.3906746
  26.3680267  34.1094875  63.4368420  28.2157373  33.7629080  62.4885607
  29.1933751  33.6353445  62.9533768  28.0510712  32.8398609  61.1938334
  27.7922010  31.8050790  61.4181328  27.1026039  33.1080794  60.7284594
  29.1297531  32.8809214  60.1038456  29.0030909  33.8742208  59.6732473
  30.1281381  32.7431273  60.5189848  28.7200713  31.6361976  58.7869167
  30.3584123  31.5377378  57.9940796  31.1591101  31.6257334  58.7284088
  30.4358101  30.6525326  57.3627949  30.4816604  32.2651172  57.1916866
  28.2728148  35.2252030  61.9497871  27.2220778  35.6878352  61.4323759
  29.4040036  35.9205866  62.0061111  30.3078604  35.5369043  62.2426033
  29.4926047  37.3601413  61.6961098  28.5852647  37.7800179  61.2618971
  29.7223473  38.0644989  63.0168867  29.1226077  37.6150680  63.8083601
  30.7791853  37.9769063  63.2689285  29.5105147  39.4360471  62.9542303
  29.5150995  39.7345495  63.8666344  30.5283237  37.7385092  60.6329775
  31.5636063  37.0253706  60.5424738  30.3062534  38.7473392  59.7637892
  31.2082291  38.9092994  58.6590767  31.3945580  37.9184222  58.2448959
  32.1003318  39.3197227  59.1321516  30.5046606  39.9210119  57.6696682
  30.0848436  39.4375658  56.7875481  31.2358809  40.6883240  57.4154139
  29.3946409  40.5872583  58.4223938  28.5386515  40.9239531  57.8375673
  29.8519611  41.4097118  58.9724207  28.9567780  39.4186091  59.4110727
  28.4801602  39.8808026  60.2755451  27.9321814  38.4911919  58.9065933
  28.2048512  37.5256276  58.1220007  26.7046237  38.6107397  59.4558334
  26.4946628  39.4075680  60.0398540  25.6212044  37.7734613  59.0799618
  25.9427953  36.7397261  59.2067385  24.3991995  37.9950857  59.9781561
  24.6111298  38.1591558  61.0346889  24.0676045  38.9996886  59.7156286
  23.1150293  37.0122719  59.8808670  22.6067400  37.3281527  60.7918882
  22.5494027  37.2923756  58.9922142  23.3194065  35.5004287  60.0676918
  22.4844027  34.7151375  59.5779610  24.3694806  35.0601292  60.7434511
  24.4210291  34.0598845  60.8736658  25.2150393  35.6125021  60.7470846
  25.1868558  37.9170585  57.6298666  24.5664239  36.9759417  57.1148348
  25.3957820  39.0954137  56.9842577  25.7886243  39.8603129  57.5140762
  24.9741626  39.5013261  55.6291914  25.3304791  38.6637044  55.0295782
  23.4695649  39.6136045  55.4817057  23.1716847  39.9316049  54.4825840
  23.0445600  38.6154342  55.5872011  22.7142072  40.4495859  56.5291262
  22.9409266  40.1751041  57.5593519  23.0445170  41.4858198  56.4569235
  21.1850667  40.4594946  56.2927532  20.9664440  40.9373188  55.3377676
  20.8364511  39.4270992  56.2655067  20.5692959  41.1531925  57.4483824
  20.9080672  40.6832600  58.3716917  20.7804418  42.2203350  57.3797131
  19.1003060  41.0318804  57.4601316  18.8018680  40.1344776  57.8146744
  18.6362088  41.7585230  57.9861593  18.8024843  41.0926008  56.4969492
  25.8062291  40.6839561  55.1240587  26.2590098  41.5019369  55.8657980
  25.9901881  40.6879330  53.8218355  25.7773185  39.9277091  53.1918812
  26.7487931  41.7633677  53.1558323  26.4297891  42.7260351  53.5553408
  28.2387233  41.4907360  53.3819914  28.7879133  42.3485279  52.9938173
  28.4367561  41.3472652  54.4442081  28.8195562  40.3222132  52.7175999
  28.7304235  39.0904593  53.3998108  28.2675052  39.0519428  54.3748093
  29.2660356  37.9174399  52.7706480  29.3390441  37.0372367  53.3921862
  29.9129224  37.9968762  51.5358353  30.3609824  37.0843577  51.1712122
  30.1147413  39.2490244  50.9436321  30.7508969  39.1479230  50.0767469
  29.5140576  40.4073095  51.5097046  29.7464061  41.3327122  51.0036993
  26.4475608  41.6687346  51.6913605  25.5802226  40.8988476  51.2228680
  27.1975112  42.5197315  50.8992720  27.9107499  43.1095505  51.3036251
  27.0284629  42.7758169  49.4423056  26.4443898  41.9821501  48.9764214
  26.4328980  44.1766024  49.1733122  27.2300506  44.8419476  49.5049191
  26.2686968  44.3656158  48.1124544  25.1255322  44.5481157  49.8928452
  25.0284481  45.1643896  51.1000967  25.8353615  45.4524183  51.7576170
  23.7113237  45.2152205  51.4405727  23.3939624  45.7578611  52.2310925
  22.8459263  44.7217655  50.5031776  21.3927102  44.8381138  50.3195333
  20.7334805  45.3272295  51.0213804  20.8622837  44.1136217  49.2861891
  19.8124397  44.1741467  49.0400696  21.7348194  43.5588169  48.2726908
  21.3350987  43.0820990  47.3898745  23.1323671  43.6714125  48.3908653
  23.6917210  43.2608986  47.5632143  23.7274623  44.2091656  49.5146990
  28.4097362  42.5363207  48.6793232  29.3893552  43.1483269  49.0707541
  28.3890748  41.9097137  47.5173569  27.4658704  41.6221094  47.2256804
  29.4501162  41.7905807  46.5306997  30.2968931  42.4375248  46.7598963
  29.8187971  40.7648325  46.5259790  28.9047956  42.1403217  45.1162004
  27.9901433  41.4518356  44.5418024  29.4742680  43.2097149  44.6203709
  30.2576637  43.6213541  45.1071548  28.9867306  44.1127920  43.5772800
  28.2066774  43.6048317  43.0101871  28.2966805  45.3716278  44.1837549
  29.0885496  46.0013628  44.5893097  27.6569128  45.8516741  43.4432459
  27.2535610  45.0720549  45.3116894  27.8043365  44.6393919  46.1468792
  26.6224241  46.3498831  45.8509016  27.2995567  47.2037268  45.8743238
  25.7103252  46.6130877  45.3152704  26.2314892  46.1561918  46.8497753
  26.1335111  44.2006588  44.9686575  25.6183386  43.9666462  45.9002876
  25.4990864  44.7243547  44.2535734  26.4040804  43.3820820  44.3017101
  30.0372672  44.4596291  42.5193357  31.1500382  44.8085928  42.7962303
  29.6503592  44.2066669  41.2543678  28.6681604  44.1284847  41.0324049
  30.5417562  44.1106462  40.0802612  31.3485742  43.4497643  40.3970957
  29.8801255  43.2646513  38.9569592  30.6497979  43.2154083  38.1867146
  29.5559788  41.7921257  39.2452192  28.9228344  41.3742256  38.4625387
  30.5267668  41.3056803  39.3403196  29.0276575  41.7117643  40.1952314
  28.7539124  43.7422657  38.3182526  28.0002093  43.4170628  38.8160229
  31.1104703  45.4266262  39.5690250  30.3281951  46.3172770  39.1747904
  32.3969388  45.6385422  39.6490502  32.9649162  44.8733234  39.9836278
  33.1517220  46.8550920  39.2973542  32.9246211  47.6904202  39.9597359
  34.6742678  46.6347170  39.3484306  34.8907256  46.3049889  40.3645611
  35.0184727  45.9654903  38.5599184  35.4521871  47.9584742  39.2940807
  35.1139736  48.5807657  38.4655499  35.3575563  48.5877657  40.1790333
  36.9585562  47.7016783  39.0192723  37.4098253  48.6398268  38.6962628
  37.3422122  47.2570562  39.9375439  37.2331262  46.7154837  37.9696846
  37.3674846  45.7690001  38.2955956  37.1457052  46.8862581  36.6762781
  36.9554567  48.0592918  36.0858870  36.8316507  48.9282322  36.5856075
  36.7380333  48.0804443  35.0997949  37.2796369  45.8145046  35.8392334
  37.5881672  44.9302340  36.2173510  36.9265318  45.9327221  34.9003816
  32.7254915  47.5074816  37.9426265  32.4906158  48.7051201  37.9207182
  32.7336001  46.7821836  36.8381357  32.9852319  45.8093500  36.9399667
  32.3438263  47.1880388  35.4475546  32.8715253  48.1291962  35.2930784
  32.7472425  46.2027740  34.3174171  32.1238971  45.3089523  34.3424439
  32.5308347  46.7419910  33.3951831  34.1124868  45.8632755  34.1988492
  34.4894695  46.4372826  33.5280299  30.8376837  47.5022316  35.3618550
  30.4812551  48.2276344  34.4776678  30.0028419  47.1201992  36.3510203
  30.3960133  46.5397787  37.0780873  28.5312557  47.5424004  36.5048790
  28.1559706  47.8563261  35.5308604  27.7339649  46.2622786  36.9546175
  28.0496454  46.1007786  37.9853272  26.6722107  46.4722729  36.8254423
  27.8965902  45.4140949  36.2896061  28.4142470  48.6671925  37.5305533
  27.3578930  49.2226315  37.7070975  29.4999003  49.1925955  38.1206012
  30.3828120  48.7591934  37.8909683  29.6026444  50.2843285  39.1394567
  28.6224389  50.6094646  39.4881511  30.3473067  49.8108912  40.4803562
  31.2094665  49.2756033  40.0825548  30.7812786  50.6853247  40.9652662
  29.5423722  49.0366316  41.4805746  29.1102147  48.1749058  40.9718800
  30.4787731  48.5792780  42.6868677  29.9137616  48.2418108  43.5557652
  30.9131169  47.6249409  42.3890781  31.1934209  49.3415022  42.9973412
  28.5909128  50.0235081  42.1132708  27.6273322  50.0763750  41.6064930
  28.4561849  49.9133348  43.1892872  28.9931369  51.0328293  42.0261717
  30.2239466  51.5828896  38.7511945  31.1057281  51.5157032  37.8711128
  29.7730899  52.7554417  39.3162584  28.9153481  52.7014685  39.8467898
  30.5077624  54.0317440  39.3136120  31.5645981  53.7840414  39.2143917
  30.0804377  54.9115467  38.0510712  30.3499532  54.2790365  37.2052598
  28.5772371  55.3009510  38.0341816  28.1491971  54.4703770  38.5954571
  28.5364819  56.1190128  38.7533545  28.1631660  55.6231594  37.0787644
  31.0029435  56.1699486  37.9156828  30.6943512  56.7300701  38.7983680
  32.0750380  55.9740257  37.8973603  30.7161212  56.9168425  36.5663743
  31.5394258  57.5819874  36.3058901  30.7250571  56.2290335  35.7208323
  29.8794341  57.6148987  36.5941715  30.4573607  54.8556757  40.6407309
  29.3737388  55.1934385  41.0650063  31.5293455  55.2419615  41.3079071
  32.9553747  54.9418211  40.9977150  33.2371426  55.0758505  39.9533296
  33.0713749  53.8725185  41.1744595  33.8405943  55.8349848  41.8796635
  34.2696643  56.6453743  41.2903690  34.6676588  55.2441263  42.2733021
  32.9093099  56.2118149  42.9831886  33.1950951  57.1057653  43.5375214
  33.0699420  55.3477097  43.6278725  31.5051937  56.1987591  42.4348497
  30.7847929  55.8905363  43.1925583  31.1985874  57.6070833  41.9691753
  31.6808748  57.9679489  40.8400726  30.4750896  58.4411478  42.7294254
  30.0228429  58.1155586  43.5717821  29.9129844  59.7741890  42.3086071
  30.3165936  60.0678062  41.3395929  28.3678818  59.7082853  42.0898724
  27.9516363  60.7125950  42.0111370  27.8246999  58.9220858  40.8443785
  28.3002782  59.3869972  39.9807906  28.2329273  57.9136944  40.7765055
  26.7364097  58.9719677  40.8795357  27.7689695  58.9562082  43.0728436
  28.2143760  59.1566420  43.8993073  30.2494359  60.9091902  43.2989311
  30.0148225  60.6426811  44.5077038  30.6170344  62.0698166  42.9194260
  20.7836366  51.5469360  36.8974090  27.7434373  32.2991920  40.6024599
  26.8857765  33.0208182  41.7058754  27.6682878  33.7065721  42.7833986
  28.6500931  32.7738595  43.3954191  29.2833900  31.9269013  42.5400734
  29.0083432  31.6076875  41.2475109  25.2548766  30.5714560  38.2950997
  25.7093525  29.5311546  39.0042019  26.7202878  30.0559402  40.0634527
  26.9214797  31.4484930  39.6422720  25.9208536  31.8570399  38.7418151
  23.8028216  29.1197348  37.0469999  24.3296742  27.9856968  37.8458428
  25.3062558  28.2320404  38.8514161  24.2475057  30.4225421  37.3397517
  25.5929446  32.9997683  38.4189892  25.7101059  27.1887136  39.6758413
  29.7346997  30.8555651  40.6355906  29.0063953  32.8317809  44.6087790
  28.1108618  33.1931067  40.0834942  30.0165248  31.3720059  42.9652500
  23.0136132  28.9611602  36.3180280  23.9917088  26.9703865  37.6605844
  23.9004397  31.3033819  36.8077111  27.6112175  29.4163275  40.0870562
  26.3059711  29.9867272  41.0768414  26.1887383  27.4404359  40.5312300
  25.4128599  26.2426782  39.4738436  26.1978054  32.2909427  42.1501589
  26.1985183  33.7342620  41.2346172  26.9298649  34.0851808  43.5008907
  28.1842780  34.5653963  42.3366499  64.6645308  45.8243275  28.0859566
  61.7278290  49.8256779  27.7485657  34.7336006  51.1786747  55.1363087
  40.5093336  41.7405415  15.0506091  32.2505426  62.9527617  41.3752651
  27.6472616  18.8293242  38.5077977  46.9482708  18.6364913  53.7304068
  64.3552828  48.1676865  31.0798645  66.2123207  59.0594127  16.4372599
  66.6138200  58.2963778  16.8529570  65.2803496  58.9803388  16.6407454
  39.4183683   8.4856045  59.4306898  38.6263514   9.0214479  59.4733095
  39.4784951   8.2196021  58.5131645   2.3030476   4.2017487   6.7876780
   1.4965872   4.4601515   6.3414871   2.8223828   5.0048045   6.8279040
  78.2931975  63.0216290  38.6915838  78.7241010  62.7992846  39.5168841
  78.5952071  63.9084103  38.4950220  54.3280128  52.6199176  29.0632117
  53.7911204  53.2654037  29.5229113  54.9340919  52.2947528  29.7289240
  38.2032732  13.0084637  39.4922507  37.7909330  12.1965912  39.7873270
  39.0189509  13.0577496  39.9907267  39.9447111  29.9794796  16.2207567
  39.9673895  29.4059876  15.4547083  39.1839317  29.6823767  16.7199290
  74.8525027  72.6525571   7.1151316  75.1749066  71.8287112   6.7496645
  75.1890305  72.6650550   8.0111372   2.2719578   6.0415629   4.2221939
   1.3858847   5.9682825   3.8675987   2.2522859   6.8376091   4.7533810
  78.0512980  73.3916308  28.4005606  78.6002425  72.7817585  28.8934672
  78.1829957  74.2354514  28.8328326  77.9297809  60.0162150  15.0713789
  77.3903159  60.6632115  14.6168434  77.3482350  59.6418788  15.7331335
   5.8314184  16.9105748   2.8018248   6.3778452  17.6034859   2.4309838
   5.0657038  17.3688534   3.1480753  13.6680579  57.9167439  32.0048582
  13.6707759  56.9623591  31.9315588  12.7721238  58.1713631  31.7841780
  56.6741876  71.7536451  28.5761511  57.0285658  71.4445021  27.7424395
  56.4527277  70.9540631  29.0534937  37.1055655   6.2043408  15.7458269
  36.2760977   6.0725954  16.2050211  37.1621374   5.4675845  15.1373732
  12.1276406   2.2512940   0.7749426  11.6968302   1.4356783   1.0306895
  11.6393737   2.5496820   0.0076163  18.7658743   3.9517382  34.3757498
  18.9600090   4.6069077  33.7054503  17.9830793   4.2836073  34.8154413
  10.9629703  57.2658684  26.9939196  11.8285537  56.9823684  26.6995966
  11.0842204  57.4858000  27.9175913  10.8700065  15.8175591  20.8761656
  11.6113738  15.3022269  21.1940348  10.2722959  15.1710013  20.5007517
  28.3887152  14.4547060  23.7152159  29.2283157  14.0937355  23.9998209
  27.9844479  14.7828177  24.5184195  38.2187561  25.9671381   0.0544131
  38.8792757  25.2891615   0.1968825  38.2950834  26.5399960   0.8174574
  56.3727478   6.0393599  10.0043547  56.9601349   5.9284476  10.7519543
  56.9409947   5.9550122   9.2387068  60.4095654  -0.0681780  36.8807459
  60.2144722   0.7507278  36.4251518  59.6537832  -0.2112435  37.4504495
   0.8619479   2.5077799  35.2731001   0.9076981   2.3065046  34.3384230
   0.6926850   3.4492710  35.3073561  54.5004181  29.2016295  12.9369128
  55.3381828  29.3645314  12.5034916  54.7388176  28.8454464  13.7927925
  13.0609135  16.2465552  55.2249872  12.9292754  15.4486874  54.7128260
  12.1761779  16.5655783  55.4030287  53.7184433  13.2017353  15.4550516
  53.8394455  12.2522477  15.4475271  54.5437626  13.5510424  15.1188004
  16.9231800   9.6197537   8.9845955  17.0006613  10.1041153   9.8065579
  16.1852030  10.0298670   8.5335696  23.0792908   0.1428107  22.5804388
  22.1697001   0.2241472  22.2936213  23.5621075  -0.0815484  21.7849600
  27.0949463  15.5872754  31.4794791  26.9831518  15.0937775  30.6669581
  27.9562000  15.3234986  31.8033564  45.8859539  27.3380113  46.5064812
  46.3906288  26.7209506  47.0363569  45.3384542  26.7840028  45.9501076
  57.0752195  32.6051738   7.1846306  57.7121929  31.8975582   7.0857394
  56.2682370  32.2555514   6.8067801  19.8610707  67.1858107  59.0458202
  20.1346704  66.3052712  58.7888670  19.8781272  67.1722238  60.0027704
   4.6635100  34.9028420  54.9734735   3.7742373  35.0208759  55.3073931
   5.1579329  35.6332016  55.3454304  54.8420715  16.6899204  57.8330469
  55.1026678  16.2560833  58.6455154  55.2566195  16.1733019  57.1420431
  61.7983273  16.6317036  23.8385165  61.5680460  15.7808806  24.2117464
  62.7097682  16.5336277  23.5630381  48.6937904  36.8886328  48.1565332
  47.9200602  36.5223837  47.7282429  48.9774370  36.2052512  48.7637949
  37.2396159  45.6997396  11.9157660  36.3792682  45.3059669  12.0606386
  37.4090362  46.2044491  12.7112496  66.1598376  70.7224109   5.8599913
  66.4627389  70.1866843   6.5931237  66.8761662  71.3369181   5.7003653
  16.0409550   4.8864630  20.9661543  15.7739929   4.8544482  20.0474989
  16.4123587   5.7616452  21.0772860  62.1813345  46.6719842  10.0177300
  62.0110369  45.9823347   9.3761551  62.6682377  46.2344766  10.7161152
  16.1140064   2.9917649   9.6681273  15.2079538   3.1281403   9.3911707
  16.3185600   3.7580469  10.2040398   5.4838797   8.5444874  47.8616285
   5.1205202   8.4096891  46.9863939   4.7281881   8.7758487  48.4016609
  68.8172654  61.0368826   9.8585284  69.2152432  61.9073703   9.8685419
  68.2646874  61.0171582  10.6398737  41.9199276  23.4153914  52.0530701
  42.4783564  24.0668201  52.4773645  42.1006727  23.5171533  51.1186123
  76.8244437  50.0374832  28.9215910  77.3974542  50.4088010  29.5924246
  75.9737185  50.4466142  29.0800535  63.6180524   2.9101922  11.4580977
  63.4003738   3.6355402  12.0435202  64.3197540   3.2519342  10.9039700
  64.5950460  31.5460968  58.7274837  64.7897577  32.0055032  59.5443439
  65.1546669  31.9685221  58.0758572  12.1932578  58.8287475  44.1896593
  12.8619838  59.4668772  44.4383108  11.4912391  58.9565422  44.8276770
  59.9004984  27.8408408  29.6693230  59.6219540  26.9275475  29.6019554
  60.7677698  27.8572130  29.2646027   1.8065906  51.2270262  23.4376204
   0.8503747  51.2382259  23.4796297   2.0137143  51.6203596  22.5898993
  10.2143884  46.4880015  10.2817499  10.4561019  46.4526196  11.2072527
  10.7025361  45.7698055   9.8790896  36.8401337  24.2830729  54.2678165
  36.6872787  24.8521566  55.0221443  37.6550746  24.6072912  53.8844299
  62.5617409  61.4853716  58.8022089  63.2677507  62.0630407  59.0921640
  61.7942286  62.0546055  58.7462759  26.6129136  43.2357474   7.7509272
  25.7019448  43.4499170   7.9521763  26.9433475  44.0056993   7.2880900
  65.6161976  15.9296620  49.9401045  66.1032391  15.1190984  49.7917461
  65.7406473  16.4343894  49.1363668  66.4417628  66.7688395  32.9157412
  67.2490577  66.8961956  32.4174559  66.4662341  67.4485900  33.5892260
  63.1041697  47.8062775  48.4209883  63.1960992  48.6837210  48.0496657
  63.6867885  47.8053429  49.1804468   2.9319052   0.1509479  17.9879153
   2.4845223   0.5070356  17.2202646   2.3155598   0.2849105  18.7079108
  55.8872841   9.4101218   0.7191717  55.3767578   8.7478474   1.1849940
  56.7196022   9.4462231   1.1905300  60.3625822  18.6828196  51.4180470
  60.2271128  19.6018457  51.1872387  60.8518171  18.3200240  50.6796312
   4.2821833  50.2295923  62.7272892   4.6030947  51.0608339  62.3775911
   3.3346316  50.3476429  62.7939367  72.7076415  35.6741698  51.1418307
  73.1826524  36.0199581  50.3861677  72.0994119  36.3729517  51.3826430
  39.8127627  39.3172673  14.2879641  40.1111293  38.4300158  14.4879544
  39.0504623  39.4465122  14.8522627   1.7404700  14.5022848  17.3648035
   1.3550139  14.3173293  16.5083945   2.3494101  15.2228335  17.2028124
  18.2137704  46.9977112   9.8686802  17.6160646  46.6545852   9.2044222
  17.6465011  47.2320862  10.6031906  41.3966409  71.4540650   8.3102190
  42.2233180  71.5007379   8.7904894  40.8795253  72.1834161   8.6520827
  11.8476132  32.2847155  13.1819021  11.4932183  32.9315785  12.5718176
  12.4183587  32.7894572  13.7613165   1.0077453  70.2709414  54.1266215
   1.3630271  69.8151018  53.3635866   0.4300428  69.6300127  54.5409834
   2.4336927  59.3796681  50.9033060   1.5992276  59.0916835  50.5332184
   2.7489297  60.0464188  50.2931404  73.8864068  25.3322091  35.7840407
  73.2501677  25.2915778  36.4980280  73.6827830  24.5726635  35.2382719
   6.8878321  19.1642073   1.9044697   7.5561146  18.9133862   1.2667286
   6.3741116  19.8387888   1.4603293  56.4473180  57.8137757   0.2649462
  55.9012846  57.3028805   0.8624947  56.4645366  58.6911776   0.6471789
  41.5239477  14.8407078  47.7820063  41.6424227  14.6106112  48.7035561
  41.6781712  15.7848299  47.7491379  69.0719155  41.2550180   5.9224617
  69.5587090  41.4384880   5.1189720  68.6035947  40.4408099   5.7381451
  41.0201911  43.1096919   6.5898287  40.5965368  43.7413754   6.0086882
  40.4692451  43.0972739   7.3724758  53.0972862  33.0437922  53.9812994
  53.4075832  32.1793222  54.2508173  52.2217512  33.1133795  54.3618631
   1.5451857   1.9691673  56.3726521   1.9128843   2.5678673  57.0227242
   2.1057554   1.1945111  56.4163589  51.5319061  29.0247536  63.6735201
  50.7453537  29.3187213  63.2140112  52.2397566  29.5453811  63.2938766
  37.6103282  58.2633569   4.6417820  37.0943332  58.9211227   4.1756022
  37.6186252  57.5062611   4.0561449  11.5291163  38.7195683  61.8837357
  11.3480898  39.0222049  62.7736092  10.6643912  38.5922098  61.4935160
  25.8622841  18.4963539  41.9468081  25.6737236  18.9762381  41.1403429
  25.5161385  19.0537909  42.6437151  48.7314749  28.9245701  61.3845921
  48.6728191  29.8741889  61.4895296  49.0578985  28.8018155  60.4931831
   3.5436750  34.4715067  29.4500124   3.1458116  33.7326239  28.9895880
   2.9279304  34.6745430  30.1541960  21.6602016  60.5257441   0.4907191
  21.5289521  60.3919293  -0.4479492  21.1606956  61.3170840   0.6919920
  58.1410912  66.9346811   5.8388531  58.8590459  67.1033599   6.4490378
  58.5109118  67.1222546   4.9761355  40.3057245   2.6546744  31.8207228
  39.3821434   2.4132255  31.8909132  40.5992321   2.2449234  31.0069716
   7.7148271  62.6524617   8.5705626   7.4903560  61.9630768   7.9455864
   8.1579423  63.3179166   8.0442059  73.1851796  67.7803471   9.5586169
  73.2211617  66.8964364   9.9241841  73.7724952  68.2932403  10.1138031
  73.2773570  48.4629585   5.1036322  73.7492017  48.8030352   5.8638584
  73.4201411  49.1179909   4.4204199  39.4876460  37.7117990   1.6777718
  40.1955823  37.3930501   1.1178982  39.7725169  37.5016530   2.5671112
  78.7167815  67.6218106  20.9095824  79.5761422  67.2187044  21.0330355
  78.8587693  68.5500600  21.0951102   7.7333236  64.7227027  38.9457667
   8.3999753  64.5167853  38.2904780   7.0839238  64.0254929  38.8540613
  42.1137309  44.7060831  14.4610226  41.8096423  45.5211290  14.0616953
  41.3884997  44.4283803  15.0206148   1.5256238  26.4553132  26.1443197
   2.0807576  25.8285739  25.6803667   1.9127250  26.5175738  27.0175326
  52.2535467  15.3452611  63.9312363  52.7539682  14.5314407  63.9904404
  51.3383627  15.0664163  63.9614391  13.2437587  54.7712113  51.3200533
  12.6899362  55.4856314  51.0052264  13.4101462  54.2370405  50.5433905
  46.7668867  13.2376873  53.3333588  46.6397715  12.6587701  52.5817394
  45.9142065  13.6529231  53.4627628  11.5685582  58.3637788   6.3951170
  11.2328553  57.8399064   5.6677258  12.4641442  58.0507852   6.5223944
  55.7396507  40.3032684  58.9547777  55.4083014  41.2004185  58.9152861
  55.4064846  39.8896217  58.1584597  51.3204698  40.3094463   5.8051598
  51.9364647  39.7137891   6.2317431  51.8633751  41.0350426   5.4969465
  59.0811205   4.3943292  60.6897688  58.7111473   4.2328581  59.8218489
  58.8395071   5.2989358  60.8886147  58.8419250  56.1346962  20.1990759
  59.5027856  55.6726028  19.6833670  58.8200740  57.0159342  19.8260176
   5.0767275  20.3324676  39.2650437   4.5659014  20.7928443  38.5992074
   5.4876848  21.0296869  39.7761583  15.8214430  11.5167549   3.7742388
  16.6067509  11.8988064   4.1661083  15.9309105  10.5729130   3.8900196
   1.0957953  36.5748858  50.2062082   0.2810379  37.0686078  50.2991533
   1.6622301  36.9148827  50.8988762  71.0865811  65.2756359  39.8859083
  70.5870847  65.9884073  39.4875395  71.2583522  64.6709301  39.1640627
  78.5740308  36.7271703  11.2102997  77.6872329  36.8918680  11.5307581
  78.6748246  37.3227123  10.4677355  27.3647074  32.3750046  25.9180796
  28.0027298  31.7670706  26.2916720  27.6900057  32.5509575  25.0352061
  62.6347589   8.5684842  64.2781115  62.5169945   7.7932942  64.8271465
  62.0302629   8.4385353  63.5474062   5.4054495  40.4541016  49.2702198
   5.8380076  40.5092907  50.1223183   5.9658190  39.8744488  48.7542486
  47.0122103  38.2608393   0.7529461  46.6874865  39.1610249   0.7316696
  46.9334606  37.9994352   1.6703856   1.8018270  35.2407785  31.7008745
   1.3747430  34.4496231  32.0293581   1.6839242  35.8843081  32.3995936
  21.3854575  52.5091090  12.1388447  20.6025148  51.9684448  12.0343840
  21.7435193  52.2505536  12.9880678   7.2917911  68.4659998  59.6402311
   7.2490164  68.7989538  58.7438250   7.3202654  67.5143670  59.5411634
  27.1410585  50.9453132   7.7281868  27.9153895  51.1832835   7.2182762
  26.4077449  51.3160588   7.2372401  36.9695354  65.6270005  33.0401671
  36.9436813  64.7694184  32.6157629  36.2974048  66.1378481  32.5890505
  30.6896738  16.7692784   8.2753861  31.1232189  16.9256905   9.1143191
  30.5009846  15.8308581   8.2745802  39.1423611  14.5023659  20.1903593
  39.9869541  14.9055174  19.9894583  39.2873530  13.5651806  20.0604021
  64.1891483  44.7163941   7.2435200  63.4814910  44.6696879   7.8863823
  63.7422637  44.7612806   6.3982308  40.6975174   8.4079850  26.5086961
  40.3607273   8.5569286  25.6251693  40.2755547   9.0812004  27.0425129
   5.8603215  64.7648765  30.0236284   5.6525493  65.6928589  30.1327669
   5.8987975  64.6379306  29.0756666   9.3205813  10.9070328  31.4064848
  10.0570396  10.3205851  31.5795100   9.1496877  11.3314274  32.2472632
  39.2308001  58.6885931  16.2401640  39.2507962  57.7364089  16.3359606
  39.8637108  58.8728287  15.5461085  16.2277389  50.1414134  21.6916525
  16.3083577  50.9285631  22.2302878  15.3309560  50.1701810  21.3582098
  65.8636379  49.1453362  55.0289059  66.0059547  49.2312145  55.9715652
  65.7644796  50.0454235  54.7186708   6.3960958  68.3448436  17.5614512
   5.5844474  67.8504397  17.4473345   6.9451213  67.7813723  18.1067049
  57.9607105   1.8244617  60.7991695  58.5957766   2.5326234  60.9060812
  58.4733438   1.0929249  60.4552317  65.3784418   7.9059625  63.5543203
  64.4642782   7.8943259  63.8378763  65.8381748   7.3769307  64.2062426
  13.0456285  18.4488085  28.9822542  12.5284676  17.7510002  29.3845427
  13.5695533  18.0047015  28.3155405  38.1233501  12.7694094   1.9627975
  37.7335453  11.9107008   2.1268211  39.0262651  12.6850390   2.2691573
  70.9713820  68.2028033  29.3440497  70.7454900  68.9803674  28.8335573
  71.8729667  68.3556129  29.6269476   4.0015081  18.7173870  32.6328242
   3.3414511  18.8906840  33.3040392   3.6216263  19.0679196  31.8271887
  57.1527624  33.5903335  53.9049435  56.6726685  33.4790611  53.0843592
  57.6469946  34.4012785  53.7852049  48.4336094  50.6141283  10.2936280
  48.4001783  49.6884622  10.0522578  48.5457496  50.6098797  11.2442267
  26.6237072   4.2026213  26.2718832  26.8979696   3.2885340  26.1979925
  26.1960653   4.2560366  27.1265757  75.7604150  61.3494708  20.2392637
  76.4602593  60.7967235  19.8915159  75.9367207  62.2167994  19.8747217
  59.6198606  24.4664574  43.5572624  58.9907551  23.7481165  43.6239338
  59.8450613  24.6725845  44.4644690  10.1208063  16.6804147  47.8500128
  10.7907053  16.4255762  47.2155619   9.4425722  17.1049881  47.3246956
  17.3831010  57.9639413  25.4839003  16.7384076  58.6506106  25.3133452
  18.1927276  58.2932832  25.0936854  50.2238444  67.7403905  52.4565756
  50.4342679  68.0606796  51.5794432  49.2971162  67.9502084  52.5722468
  42.0644093  10.1724660  60.8644819  41.6995716   9.6787179  61.5988779
  41.8138313  11.0798657  61.0378838  32.9359249   9.5253876  53.2698405
  33.7163929   9.0655592  53.5791266  33.0529980  10.4260186  53.5721552
  22.0909742  12.9885414  17.0661986  22.4864582  13.1636217  16.2122881
  22.7731041  13.2173613  17.6975214  36.6139197  13.2344735  52.8928947
  36.3647056  13.0299997  51.9916105  37.5307155  13.5030091  52.8328371
  17.8805900  71.0744883  26.5931570  17.5468326  71.2426736  27.4743807
  18.8325143  71.0746481  26.6935026  21.6315389  49.7229864   3.3835947
  20.8464408  50.1760616   3.0760634  22.1768737  50.4153873   3.7569916
  24.0646482  67.0897176  22.3317015  24.8975349  66.7720582  22.6804507
  24.0460849  66.7717578  21.4290488   8.1182428  64.7440243  45.5823708
   7.6260611  65.5556107  45.7061481   8.7589594  64.7416401  46.2934971
  20.6781030  22.2402455  20.5402815  19.7509456  22.0827987  20.3619158
  20.8350015  21.8164672  21.3841021  13.5912518   7.9698113  36.8756926
  13.3295945   7.0600727  37.0175898  13.3834867   8.1382206  35.9566176
  13.2545209  56.3949217  36.5743887  13.2333255  55.4386939  36.5368235
  12.5146985  56.6290559  37.1348154  76.2054662  72.2307875  14.1279423
  76.3275985  73.1572916  14.3350804  75.9650210  72.2221686  13.2014715
  47.4706368  28.9029721   6.7922508  48.3583979  29.0314415   7.1263277
  47.5867800  28.3820084   5.9976876   7.4895235  65.4017878  64.4384670
   8.0583998  64.7574902  64.0171766   7.8878733  65.5483580  65.2964115
  54.7370911  70.3341103  64.1620302  55.4165983  69.6604061  64.1870832
  54.6827126  70.6530571  65.0628948  35.6544376  73.0135562  35.4120028
  35.0211692  73.4847524  35.9534609  36.3540721  72.7705075  36.0183584
   0.7482362  58.6301424   0.8652889   0.9109330  59.5397307   1.1151135
   1.6163802  58.2272889   0.8489907  26.2805609  10.2160433   2.5692761
  26.7700962   9.3935755   2.5809967  26.9126038  10.8750800   2.8563654
  65.1243019  44.1908216  44.0799141  64.9596596  43.3098221  43.7438202
  65.1477385  44.0839005  45.0308371  18.5810876  72.7442362  18.3359682
  19.5193839  72.5624587  18.3887923  18.3084083  72.3563005  17.5044691
  22.1763846  15.1828051  63.9467001  21.6559740  15.8707404  64.3616199
  21.6994997  14.3747008  64.1358805  20.9805063   5.8037308  18.5652029
  21.7430309   6.0842160  19.0712797  21.0480789   4.8492649  18.5393774
  52.5100871  71.5903796  59.4832325  52.6386281  72.2875984  58.8401222
  53.1489869  71.7780279  60.1708555  65.3629637  49.6908474  63.6466599
  64.7440243  48.9800692  63.8138199  65.9303474  49.3560171  62.9522562
  49.7417406  15.2225140  17.0374548  48.9934925  14.6622351  16.8314326
  49.4971232  16.0833147  16.6977274  78.6263354   7.7072981  26.4241946
  79.2654713   7.4303606  27.0807326  79.1410954   8.1900671  25.7775175
  54.5720104   0.7775930  12.5101864  54.5098213   1.2741164  13.3261692
  54.7031311   1.4427594  11.8344652  18.7948585  57.3613717   0.4327833
  18.0474067  56.8365409   0.1462567  18.4046197  58.1596853   0.7886517
  29.6293549  30.2193716   0.0336754  30.2446512  30.7159165   0.5731976
  29.0716890  29.7636202   0.6641829  24.4012550  19.6333054  30.2702963
  24.6987681  18.7236765  30.2531016  23.4844736  19.5906285  29.9984133
  21.3536811  12.2417164  61.3740635  21.2180662  13.1228435  61.0255623
  20.5227017  11.7924857  61.2194777  62.4300388  25.2688673  38.7225592
  61.5429977  24.9450758  38.8792479  62.9912762  24.5056561  38.8594687
  64.6670866  46.2865114  60.7795095  63.8835049  46.1267471  60.2534819
  64.6115065  45.6493378  61.4916563  58.1046899  56.9171958   2.4315094
  57.6442082  56.9988685   1.5963387  59.0171702  57.1169763   2.2224545
  33.3131290  58.2354571  25.7828295  33.8811660  57.8044345  25.1442587
  33.0503631  57.5355174  26.3805544  30.0033546  70.0824286  38.6594164
  30.8989787  69.7554399  38.7440741  29.9375796  70.7739188  39.3180144
  10.2262930  24.8117665  20.8229220   9.4401506  24.3463543  20.5372584
  10.5804209  24.2722824  21.5298712  26.7998004  64.6128084   8.4941590
  27.6901507  64.2970325   8.3399021  26.4944148  64.8983957   7.6331055
  65.7590870  41.0108312  21.1658156  65.0049881  41.5649478  21.3671171
  66.4005736  41.2238868  21.8435633  43.1864933  17.3362473  18.6416876
  43.4139542  17.2190979  17.7193129  42.6442961  18.1249407  18.6563647
  16.5866733  47.1826792  60.9411573  16.3578260  47.7219963  60.1841879
  15.7442975  46.9019175  61.2986565  74.4069747  55.5737879  15.0539267
  73.4729079  55.3829469  15.1395714  74.8430804  54.8112847  15.4342329
  33.8651562  11.6437852  56.9316196  33.2720494  10.8931160  56.9007587
  34.2924833  11.6467726  56.0751057  70.5959634  43.0218186  20.8554613
  70.3079442  42.1177115  20.9814226  71.2467030  43.1638684  21.5429175
  39.5361972  38.0180693  63.1608438  39.9756193  37.6007962  63.9018059
  40.1199865  38.7332463  62.9079723  14.5253301  58.5897281   1.7140400
  13.9951301  58.9374616   0.9969628  14.4559360  59.2488338   2.4046862
  54.7221470  38.3351636  43.7515545  54.2071056  37.5421333  43.9001131
  54.0737629  39.0042591  43.5321522  57.8840494  38.8888001  63.6876869
  57.4705839  39.7196865  63.9220142  58.0948925  38.9798641  62.7584457
  13.4286285  58.8764455  37.7227843  13.4436154  57.9617431  37.4411356
  13.9369369  59.3402864  37.0574248  15.7698921  11.0600165  26.3506281
  16.3503985  10.8790663  25.6113684  15.4869322  10.1960019  26.6500437
  61.5121889  53.3977079  57.7498484  60.7127714  53.7617683  57.3695517
  62.0605993  54.1611052  57.9306936  25.8290458  71.1574723  33.8027918
  26.3421226  70.3558804  33.9049494  26.3225389  71.8208243  34.2851317
  24.0784506   5.4093769  28.7620032  24.7046999   5.8958987  28.2259619
  24.4883827   4.5543030  28.8925326  25.3569750  24.6663121  26.2918055
  25.7769255  25.0120905  27.0794070  24.9176983  23.8681343  26.5853750
  70.2899174  11.6501549  10.3121626  69.7112755  11.5351799   9.5583832
  69.7002796  11.6698769  11.0659373  49.7606063  60.9850695   3.5386908
  49.8754478  61.8355538   3.9626229  48.8608146  60.7333400   3.7466585
  22.0023465  73.9808585  14.6035349  21.2801433  73.4121539  14.3366492
  21.8031669  74.8259904  14.2006504  31.1945176  25.6595421  46.4029408
  30.2508879  25.5058527  46.3562870  31.5274000  24.9432516  46.9436359
  12.7049235   5.7759264  24.7335779  12.1625165   5.9159020  23.9574110
  13.5625438   6.1262778  24.4928038  17.8711486  68.7651064   4.2332852
  17.5133920  69.5060636   4.7223961  18.6243367  69.1273572   3.7666905
  12.2836804  63.3679892  19.8161089  12.6009965  62.4649193  19.8188460
  11.4109540  63.3140232  19.4266665  61.4478139  72.9825928   1.1613428
  62.0096115  73.6371281   1.5763104  61.9784430  72.6296975   0.4471123
   0.9904122  70.5816295  18.2140410   0.6034064  71.4075448  17.9236662
   1.6059756  70.3481891  17.5191939  11.1087060  58.2099797  29.5623457
  10.6073213  58.6434533  30.2529490  11.8375611  58.8049104  29.3861067
  56.9759035  22.1639085  18.2788289  57.7017736  21.6663289  17.9023242
  57.0864820  23.0489206  17.9313254  27.6148486  41.1204382  16.9065344
  27.3506618  40.8840300  16.0174143  28.4114242  41.6382490  16.7900145
  16.3466621  57.4999072  10.5451596  16.7527890  58.3484175  10.7221377
  15.4086471  57.6866843  10.5067980  72.3983315  56.8751718  39.9999106
  72.8413848  56.0669913  40.2583277  72.6559476  57.5129296  40.6655943
  38.6189798   5.9343413  45.9271109  38.8911108   5.9080914  46.8444407
  37.9845194   6.6498783  45.8858835  13.1061582   4.4868925  12.1523821
  12.5884871   4.8285797  12.8814184  12.4993447   3.9250639  11.6703474
  30.2250628  10.2520016  17.3295557  29.5165400  10.7116774  16.8790877
  30.9581522  10.2807120  16.7147505  42.5875926  44.3821277  17.4650252
  41.7191959  44.1753449  17.1195471  43.1935763  44.0638472  16.7959177
  59.0382195  54.4687033  56.4857101  58.5928679  54.5114613  55.6395054
  58.4093332  54.0396833  57.0659399  27.8991703  14.1805008   1.6363966
  28.1357626  13.6957434   0.8456623  27.1138529  14.6698597   1.3913595
  29.4930510   0.5482796  21.9229281  29.5614246  -0.3108093  21.5063727
  29.3920282   1.1605075  21.1940920  57.8546433  19.8591641   5.4054510
  57.8931526  20.3140000   6.2468064  58.0698494  20.5319050   4.7594321
  55.6832222   1.7581728  18.4745085  54.7857384   2.0388511  18.6533224
  55.7358555   0.8757594  18.8416731  77.7770785  26.6938366  13.3776915
  77.1538619  26.5331199  14.0862095  77.3724059  26.2945547  12.6075947
  21.8555808  61.4895727  29.7614729  21.5625405  61.0816004  30.5762827
  21.2004256  61.2290766  29.1140520  64.8348240   8.0870560  24.2052233
  64.3336872   7.3242930  24.4938051  64.4132809   8.3557442  23.3889258
  48.0273727  22.3228720  14.2782414  48.6399750  23.0010250  13.9935457
  47.9004816  22.4913910  15.2119076  68.9350128  40.3090763  58.9231968
  68.2691717  40.1102781  59.5814991  69.1975880  39.4540453  58.5823011
  43.3935642  34.7877145  49.9915695  43.7029743  34.2447519  50.7166147
  43.6858511  34.3266034  49.2053270   7.8862266  14.9367121   6.5562260
   8.5225729  14.2229250   6.5986979   7.8970222  15.2129963   5.6398308
  64.7261000  37.3784494  61.5232420  64.1634035  36.7059779  61.1393261
  64.5722008  37.3102045  62.4655199  52.9183578  19.6461880   9.7704530
  53.1384802  18.7839067  10.1229405  52.6446438  20.1543403  10.5340588
  75.8603934  74.1846873   2.3879349  75.3540496  73.7350442   3.0644476
  75.7711677  75.1138617   2.5998413  70.7858086  50.4868364  49.1414356
  71.0079432  50.9516239  48.3346796  70.3274059  49.7001266  48.8461590
  41.2433982  64.5995881  19.7744620  42.1253848  64.2320635  19.8314726
  41.2289691  65.2913620  20.4358732  55.2556233  23.2415655   9.7399723
  56.2083439  23.2409790   9.8323977  55.0848869  23.8526896   9.0233099
  15.4021362   6.6036490   0.6051886  15.2974419   5.6622246   0.4673683
  16.2663273   6.8037251   0.2455008  17.0533204  37.3419592  36.2392866
  16.6323447  38.2013710  36.2598097  16.9514823  37.0469198  35.3344023
  15.0921989  66.2004306   0.2129042  15.9653926  66.3785316   0.5622542
  14.5089507  66.2957599   0.9658730  19.1029096  49.2474272  15.1677620
  18.2887292  49.0651454  14.6985972  19.5439601  49.9084927  14.6341860
  71.9069985  65.0448276  37.1174586  72.4367074  65.3961398  36.4017641
  72.5400905  64.6269681  37.7012503   0.2511072  10.8147124  35.7739222
   1.1879778  10.6876830  35.9234774   0.2066279  11.4471701  35.0568068
   6.5518355  71.0074999   3.7602103   6.6187453  70.1103475   3.4333002
   6.8173337  70.9484269   4.6779549  73.5408954  65.0019242   9.6633780
  73.9994267  64.4548990  10.3011477  73.4875707  64.4591810   8.8767254
  50.7211161  55.8449984  62.4657631  51.1594296  56.0696554  61.6450071
  51.0174656  54.9557829  62.6599550  13.7863680  38.2338357  48.1545830
  13.1579062  38.6847997  47.5907516  14.4162031  37.8446531  47.5478888
  10.6725478  67.1881201   9.8924458   9.9751687  67.8136422  10.0889551
  11.3035846  67.3018672  10.6031382  28.7488222  23.1745747  14.3564236
  28.6630488  23.8767746  15.0012409  29.6051645  22.7868822  14.5369875
  25.8794836  14.6005467   3.7413847  26.5649990  13.9730528   3.5121405
  25.1446394  14.0583351   4.0281832  77.2385410   8.3543518   7.1874153
  76.6981510   8.5889843   7.9418432  77.9817108   7.8820542   7.5627434
  63.6567978   4.6042374  13.8559067  62.9689793   5.2688387  13.8178169
  63.3788303   4.0116385  14.5543301  77.9612164  25.9593848  26.5396654
  77.6154999  25.3809098  25.8598959  78.8836960  26.0731820  26.3109267
  42.3223642  10.9776190   6.3846075  41.7839340  11.5426043   6.9387877
  41.7235235  10.6673983   5.7053530  25.1833320  63.6265160  16.0438120
  24.2428327  63.5285618  15.8951819  25.3991532  62.9389073  16.6737711
   7.8731009  20.4175544  48.2196379   6.9384237  20.4596281  48.4217548
   7.9793116  20.9873986  47.4579096  37.4333405  14.1573894  45.2370310
  37.8491759  14.7960722  45.8161688  37.8792691  13.3327711  45.4303837
  56.4794159  25.2098060  57.1639013  57.3017597  25.4768085  57.5746250
  55.8933592  25.0265980  57.8982019  68.4810332  49.5229628   2.8019774
  69.2250422  49.0718986   3.2010090  67.9434136  49.8005928   3.5436785
  62.6087717  18.3184113  11.4168036  62.9930262  18.3055915  10.5402100
  62.5213150  19.2482771  11.6264021   0.9525895  42.2636281   0.4978430
   0.3965974  41.7788880  -0.1121795   0.3793883  42.4622597   1.2382614
  63.3909675  63.4499823  62.2990417  63.7625094  63.5312604  63.1774426
  63.1699821  62.5222288  62.2173595  31.1922598   4.5373738  45.1890182
  31.6357517   5.3824937  45.2619553  31.0918903   4.2407075  46.0935354
  63.8522772  23.1601824  24.2072260  64.4952325  23.5978975  23.6493361
  63.0372647  23.1953432  23.7064707  10.2431250   9.3299115  62.6220560
  10.2835166   8.5012114  62.1447086  11.1441863   9.4883615  62.9035044
  11.9154143  70.1524951  18.3435309  11.0140014  70.0853898  18.6584532
  12.4255109  69.6329452  18.9649069  71.9295768  47.3182847  17.1080076
  72.0409707  46.3774623  16.9713461  71.1195830  47.5332453  16.6454756
  17.4973273  60.2283766   9.2042362  17.1219897  60.0925495  10.0742352
  17.9331374  59.4010832   8.9995730  72.6366357  39.3435295  11.8383419
  72.4259261  40.2153714  11.5040886  72.2026853  38.7432476  11.2320578
  27.7795863  61.1161138  11.2836897  28.4985328  60.6199004  11.6749966
  27.7250266  60.7905604  10.3852093  43.2370710   5.3030825  27.9131246
  42.4251413   5.7564598  28.1399608  43.4559155   4.7976404  28.6959839
   1.6569638  52.5255026  21.2017977   1.7506051  53.2798185  21.7835867
   2.3944020  52.5974252  20.5957949  63.9707279  23.6443830  62.7353954
  64.3207169  23.2466006  61.9382095  63.1365919  23.1975937  62.8797150
  59.1090012  27.2103000  42.7462196  59.3620443  26.2871647  42.7412891
  58.6783743  27.3360968  43.5917759   6.5736270  38.2881232   0.8672583
   6.4561296  37.9544935  -0.0221861   5.9764648  39.0340445   0.9241068
  12.1178222   3.1052114  20.5363810  12.1720243   2.3490741  19.9519598
  12.8872132   3.0275394  21.1005080  55.4605818  36.5891290  52.4296141
  55.3720570  37.3604298  51.8697119  54.5747089  36.2309146  52.4856806
  69.7713157  71.0472031  51.1607170  69.7237750  71.2810727  52.0876884
  69.7013732  71.8827628  50.6990004  52.2656747  69.4049107  26.8261099
  51.3138553  69.4348906  26.7293143  52.4057361  69.1327606  27.7330542
  76.9380311  49.9626567  11.9491541  76.6677693  50.8182527  12.2825444
  77.2351722  50.1365783  11.0560190  30.3646775  66.0066061  64.7144365
  31.1157008  66.4369945  64.3058252  29.6052333  66.4892332  64.3880129
  63.9673785  49.7489621  12.9856455  64.7721652  49.9527325  13.4621203
  64.2516951  49.1876342  12.2643196  57.4920944  18.6900595  25.1113665
  57.2380737  19.1309384  24.3006098  56.7985825  18.0477742  25.2621615
  38.6159563  22.2472596  55.7024670  38.0846477  21.5500236  56.0869217
  38.0347013  22.6706576  55.0707197  70.3218412  31.2900114  57.0364189
  70.4375267  30.3713560  56.7936850  71.2126160  31.6334724  57.1055794
   2.7409311  19.4213688  34.9361801   2.7658697  18.7088680  35.5748916
   2.8748079  20.2138591  35.4560542  62.6716586  68.0473314  62.1811724
  63.3047744  68.6428057  61.7801619  62.9612609  67.9663907  63.0899096
  29.4632200   3.8057354   1.7120564  29.3731121   3.6405114   0.7735407
  29.6829228   2.9522112   2.0855009  12.7815414  27.8060504   5.1147330
  12.3576856  28.0680968   4.2974770  13.0833602  26.9123437   4.9521649
  34.9691177  63.6604287   3.1265652  35.2275634  64.3844249   3.6968863
  34.4690967  64.0757586   2.4239266  40.5489961  41.0051339   4.8181450
  40.2632646  40.3172915   5.4193651  40.7108060  41.7626895   5.3804266
  65.6297541  33.2456923  47.8394032  65.1474810  33.1989980  48.6649132
  65.1690340  32.6404810  47.2582912   2.2531585   4.7337464  14.0333998
   3.0927519   5.0323752  13.6839211   1.7806343   5.5394486  14.2426789
  34.1980127   6.4643649  20.3236735  33.8025288   5.6795243  19.9443972
  34.5777277   6.9263199  19.5762408  76.8665838   5.5852979  48.4902954
  77.7231836   5.8495837  48.8258886  76.2424374   5.9295487  49.1291761
  74.6444968  48.9711823   2.7365982  75.1469544  48.6350145   1.9944680
  73.8521365  48.4343888   2.7522099  34.0317317  69.5647089  50.3025866
  34.2981931  68.7348537  50.6982756  33.1861039  69.3755482  49.8959303
  67.5111485  19.7998917  32.3676395  67.3296547  18.9145660  32.0522213
  66.6993427  20.0730348  32.7949476  22.0833993  54.7860314  10.3364813
  21.9546247  53.8917055  10.0205195  22.3295999  54.6822037  11.2556326
  62.9970455  63.6316538  56.1105633  63.3326149  63.4065866  56.9782972
  62.0548201  63.7408781  56.2390661  12.1889158  20.3663802  55.4909420
  12.7400442  20.8521342  56.1045647  12.3637625  19.4462860  55.6886435
  67.0259047   0.0247078  46.5483904  67.5467443   0.7758222  46.2641573
  66.1519623   0.3836444  46.7020702  52.6373148   1.8401718  53.6857462
  52.2725725   1.5894832  54.5344782  51.9567680   1.6070215  53.0542946
   5.5106493  11.0206521  35.0905728   5.6064078  11.9321990  34.8146343
   4.7809645  10.6876612  34.5681691  64.3106433  69.9950738  61.1123562
  64.3172141  69.9063392  60.1593018  64.2548533  70.9384255  61.2646914
  32.5935125   5.5634415  35.8147097  31.6452336   5.6702828  35.7399726
  32.8947353   5.4597604  34.9120760  18.2944715   9.6787024  46.5621614
  17.8212285   9.7649980  47.3897028  18.0555606   8.8099211  46.2390947
  46.4309931   7.7835518  41.0501289  46.8125820   7.1531749  41.6610718
  47.1281576   8.4214705  40.8976412  20.9452554  71.4395549  17.4299872
  20.3173562  70.7491301  17.2171867  21.7918416  71.0857229  17.1573544
  25.6166983  24.0938759  47.3610497  26.2172580  23.3816171  47.5807047
  25.0813961  23.7446570  46.6484976  47.1203089  14.1367400  34.5382953
  46.9019032  14.7600567  35.2311230  46.3727045  14.1703510  33.9414763
  51.1171246   1.2831604  55.7948065  51.4065695   1.7880756  56.5547514
  51.2866163   0.3719539  56.0339880  20.4709574  14.6265388  11.0615194
  20.7802149  15.5302382  11.1241293  20.1128431  14.5567095  10.1765859
  30.3991167  68.2842442  51.3176239  30.5455534  68.9326402  52.0063687
  29.4795267  68.0364606  51.4135409  70.3326654  13.1405210  24.8697186
  71.1478662  13.5197592  24.5413017  70.5935144  12.2986531  25.2431440
  43.6737557  68.4379189  60.7208157  43.5965034  69.1183035  60.0519800
  44.2391225  68.8232194  61.3902426  31.8654132  47.9313423  11.8895447
  31.0870433  48.4505906  12.0914232  32.0518851  47.4548318  12.6984942
  46.5679840  40.0932291  10.0334990  47.2216991  39.6802357  10.5977022
  46.1453871  40.7444361  10.5934727  59.4903708  52.4404478  59.6525908
  60.0786400  52.3152971  58.9079332  59.2218399  51.5548372  59.8971653
  42.4241829  21.9480991  54.4155931  42.2900391  22.2698259  55.3070688
  42.2984409  22.7184200  53.8614988   6.5273023  24.8898520   0.2496159
   5.8706260  25.5386378   0.5027687   6.2118173  24.0693571   0.6284153
  28.4420876   7.5557831  41.8779909  29.2747978   7.0925358  41.7872584
  28.2301954   7.4874524  42.8089392  70.2679829   0.7801727   4.1678202
  69.5899681   1.4256814   3.9682019  71.0739140   1.2922433   4.2348206
   0.8901831  20.4593468  63.0855465   0.1111981  20.9651446  62.8540611
   0.5650040  19.5703864  63.2278156  14.7894045  45.9385204  38.5917163
  15.3727575  46.6467476  38.8643837  14.1330954  46.3669538  38.0422258
   2.1775174  27.1119632  18.7174380   1.2292361  27.1262636  18.8470423
   2.2886729  27.0464708  17.7689802  17.4228338  22.1061257  16.6072619
  17.6613812  22.2805241  17.5177061  17.1222929  21.1973313  16.6082728
   0.3454014   9.8927134  52.7065802  -0.1199249   9.1099703  52.4115992
   0.3101345  10.4885721  51.9582891  52.5186733   5.9241560  13.0547631
  52.0681719   5.7035521  13.8699972  52.3311333   5.1891163  12.4709999
  13.0788159  29.1393395   2.6630223  13.0110288  29.9624350   3.1469166
  13.0053496  29.3952741   1.7436039  53.9758082  68.4935008  48.1569719
  54.8922225  68.7572430  48.0742502  53.7473269  68.1475167  47.2942257
  29.6240541  64.5284377  22.7038574  29.5804187  65.4668300  22.5201488
  30.1695367  64.4629429  23.4876871  69.1669921  29.5509769  25.6625807
  68.4872655  29.0234645  26.0820257  68.6925010  30.1021500  25.0402415
  24.1226502  63.4382175  36.7906380  24.5611211  62.9590725  37.4937725
  24.5431062  63.1257890  35.9894896  68.6708812  57.8374769  12.2487652
  68.9063148  58.7415220  12.0401823  69.4047574  57.3172762  11.9215786
  78.3687496  33.2139111  55.2426624  77.9328442  32.9510832  54.4320202
  79.2886591  33.3148432  54.9980927  40.0339317  20.0642443  54.3687773
  40.8992434  20.2815604  54.0220261  39.7876620  20.8263326  54.8929977
   4.4747186  70.0828196  19.8019564   4.4331479  69.1714503  20.0916254
   5.3974938  70.3208377  19.8917925  16.9623800  37.6317549  52.5717068
  16.5611883  37.4489617  51.7220831  16.2213465  37.7609587  53.1636620
  26.5099549  46.1672892  16.7672217  26.1857677  46.6398158  17.5339377
  27.4290252  46.4255466  16.6976511   6.3511348  34.6468239   0.2181113
   6.8851447  35.1956763  -0.3561914   6.7339683  34.7661062   1.0872757
   2.1522069  59.5446445  36.3610422   1.7362714  60.4048826  36.4177954
   2.9847598  59.7098829  35.9185660   2.3977801   5.3317136  44.0160131
   2.2725054   5.0981939  43.0962276   1.5621992   5.1208133  44.4326210
  71.0621786  27.9569173  12.5308979  70.3485298  27.6828790  13.1069493
  71.8519926  27.6117492  12.9471803  65.2090959  27.1078565  36.3676417
  65.5369643  27.4231561  37.2098505  65.8704046  27.3858632  35.7339060
  30.2902766  67.5836001  41.6668463  29.5036622  68.0776905  41.4358807
  31.0144015  68.1699716  41.4476538  22.7997065   9.2238885  52.1424913
  22.1750546   9.4611013  52.8278875  22.6722503   8.2835090  52.0172977
  66.7746735   8.1796193  29.7772121  66.3490486   9.0244961  29.9230194
  66.1243296   7.5332314  30.0519252  56.0044861   2.6583776  31.5963531
  55.4372025   3.4032804  31.3975048  55.8603859   2.4894147  32.5274396
  66.2922478  27.1307421  49.6907425  66.6606426  26.8443608  48.8549757
  66.5635204  26.4579034  50.3151846  38.9608359  64.2830970  18.2888281
  39.5750880  64.3649604  19.0183604  39.5044398  64.0192558  17.5464594
  35.6828853  67.5970517  25.6092906  35.7966968  66.6696607  25.4013872
  36.2712832  67.7507590  26.3484788  14.1852975  28.8908197  10.4002583
  14.1130471  29.2079367  11.3005078  14.9470544  28.3112969  10.4108727
  61.0270766  55.0026895   2.3262560  60.3167466  55.2869632   1.7510569
  61.8186859  55.3599348   1.9238102  63.3385853  27.5528880  15.1941168
  63.4537319  28.3781566  15.6651842  63.7665967  27.6970961  14.3501723
   5.2547999  73.0977644  40.9056139   5.4518720  73.1316917  41.8416929
   4.4656321  73.6305173  40.8075333  65.7715198  72.3823232  61.2900877
  65.3721686  73.1347863  60.8535719  66.7089149  72.5760058  61.2915754
  15.8330413  43.9471839  52.7518511  15.8980056  44.8961924  52.6451015
  15.0349542  43.7072729  52.2809649  71.9172430   2.5839126  64.1254854
  71.4874268   1.8450058  63.6947823  72.2698259   3.1082135  63.4064388
  75.9264183   8.8048410  42.0345306  75.3957176   9.1374230  42.7583981
  75.8858633   9.4939816  41.3714552  52.3501659  33.3354883  16.0422003
  51.5904021  33.3885338  16.6220057  52.4406505  32.4020021  15.8507597
   2.0641180  16.3675427  44.5982933   2.3286482  15.7136869  45.2453852
   2.8140875  16.4369857  44.0075779  32.5466844  72.9515742  34.0979600
  32.8201314  73.1293340  33.1980371  33.3170959  72.5599472  34.5094514
  78.1553773  64.6152498   1.7958510  77.5664834  65.1914145   1.3085377
  78.8702277  64.4322969   1.1861336  66.4552402  19.7281992  54.9132824
  65.6581831  19.7932863  55.4393005  66.1737394  19.3023181  54.1035843
  45.0809383  32.3275256  59.2286110  45.3781414  31.4538479  59.4827509
  45.8243036  32.7063251  58.7594080  56.7966080   3.7157705  16.7512691
  56.0356998   4.2723033  16.5853882  56.4501524   2.9810631  17.2576320
   3.3004519  14.0192771  28.5369968   3.1170221  13.0800772  28.5149050
   4.2099043  14.0925658  28.2475901  67.7241615   4.7359255  14.5393526
  67.8449825   4.4284323  15.4377329  68.5134987   5.2438954  14.3518698
   1.0826636   3.9804581  20.8439314   0.9884978   3.7469176  21.7674124
   0.2410364   3.7487009  20.4512560  27.1615267   1.2617226  26.5040731
  28.0485511   1.5651309  26.6973758  27.2659087   0.6812735  25.7501411
  39.6803927  19.7007334  64.0973377  39.7592449  20.6541729  64.0662527
  40.4336214  19.4148338  64.6141911  10.5160193   9.6689394   4.0853798
   9.7960810  10.0235251   3.5636580  11.2941698   9.8081377   3.5456192
  54.2686752   1.3642124   6.1260569  55.0702671   1.4912680   5.6185734
  54.5663075   1.3090518   7.0341313  66.4139223  59.0980339  62.9087830
  66.3874149  58.3209181  63.4670162  65.9070396  58.8540268  62.1343374
  72.1428756  57.9771830  19.1548311  72.0017127  58.7223865  18.5709059
  72.9532651  57.5765254  18.8402235  77.2051239  45.2844906  11.1651945
  76.2995958  45.4635620  11.4185476  77.6116514  46.1487961  11.1023903
  29.4489265  68.2399942   6.0352719  29.7340083  69.1073205   5.7476914
  29.9299598  67.6315619   5.4743349  38.5697846  10.3048781   5.3696120
  38.0804972   9.5033911   5.5552113  38.8664965  10.6084565   6.2275421
  14.0517402  38.1660899  10.3008044  13.5537648  37.9998735   9.5004141
  14.9325585  38.3817914   9.9944317  18.5506865   3.4027785  47.9460287
  18.9446207   3.1247914  47.1191263  17.7694269   2.8568682  48.0346107
  69.6440268  60.7129622  58.2640505  70.4072809  61.2799644  58.3744335
  69.9253702  59.8636627  58.6042881  21.8364433  35.6385258   5.9571516
  21.3741449  34.8085764   6.0742056  22.5475935  35.6088951   6.5971625
  68.5847616  44.9668360  59.0488815  69.3490410  44.7802877  58.5036182
  68.0721331  44.1587687  59.0272617  52.5923061  31.2332106  62.5968027
  52.4349785  32.1599579  62.7774048  53.1199217  31.2310386  61.7981434
   4.7078729  62.5996091  12.7789223   4.6106315  63.2424333  12.0763886
   4.5006490  63.0846002  13.5777151  67.3288012   2.3645446  48.7008476
  67.5996590   1.4871049  48.9709711  67.4930763   2.3863064  47.7580976
  17.2658511  73.6039627  41.5787554  17.3254748  73.8018500  40.6441307
  17.0728942  74.4464449  41.9901228  36.6186404  62.6225902  39.8176253
  37.3012710  62.6032569  40.4883539  36.9080138  63.2948043  39.2006743
  12.6664472  50.4840531  34.2065108  12.7530408  50.6750085  33.2725584
  13.5428119  50.6294860  34.5629751  14.9130675  36.2577343  60.9142160
  15.6570002  36.2570286  60.3118944  15.2178236  35.7583451  61.6718245
   9.9617525  15.4371226  57.9991341   9.3346926  14.8038375  58.3483934
  10.5248018  14.9226511  57.4207497  68.9529514  52.9108286  61.4035702
  68.2254934  52.2887039  61.4034796  69.3612242  52.8020668  60.5446625
  58.4400558  47.3336315  50.4126835  58.7122822  47.2450686  51.3260746
  58.1902981  46.4476490  50.1502180  26.9124341  72.9517104  22.9047644
  26.4256358  73.7067868  23.2350981  27.7165103  72.9393436  23.4239352
  71.4463615  25.7244468  57.0899057  71.0269451  24.9998617  57.5539112
  71.8852758  26.2265110  57.7765751  56.2658024  32.9724288  64.2893648
  56.1875343  33.6891079  64.9190331  56.3368130  33.4070063  63.4394646
  48.6138872  10.1828745   7.2607338  48.2285790  11.0127953   6.9796622
  47.9996542   9.5168618   6.9519007  17.4207922  20.4379368  58.2449198
  16.6575476  20.6440663  58.7845469  17.2428938  20.8631802  57.4060202
  64.6734858  49.0540028  50.3184986  63.9352226  49.6632576  50.3202295
  64.9607515  49.0232134  51.2310600  42.5539470  74.0013577   6.7980301
  42.4270606  73.0542256   6.8534767  43.2324004  74.1135456   6.1321890
  12.2117182  26.3981628  41.6288567  12.2100016  25.4890370  41.9283867
  12.2582670  26.3359261  40.6748199  27.1041703  47.9328432   0.8177626
  27.7655101  48.2360794   1.4397776  27.5497604  47.2594835   0.3036892
  56.4911556  39.7794080  53.3844328  56.7803478  39.8948121  54.2895746
  57.2024059  39.2946124  52.9657078  60.1144171  66.9956446  34.9512982
  59.6155357  67.6836491  34.5108461  60.9730291  67.3873711  35.1111937
   4.8290869  47.1459246  50.6226921   5.2604338  47.2523880  51.4705372
   5.5212828  47.3028183  49.9804354  19.7410969   1.0964206  18.6462652
  18.8743118   1.4238432  18.8864958  19.6078352   0.1625470  18.4839308
  68.5585503   1.3591913  10.2329504  68.8389687   1.2800291  11.1447251
  67.7195839   1.8176893  10.2793419  72.6986603  13.6173943   1.6981375
  73.1794838  14.4321183   1.8439686  72.5755505  13.5784129   0.7496893
  61.6757397   2.0027736  19.6452296  61.8338303   1.5132097  20.4524195
  62.5017551   2.4549988  19.4737017  14.6846080  40.0182011  55.0572455
  14.1297793  40.3128676  55.7794440  14.1844583  40.2301129  54.2691004
  77.3116112  34.1092563  40.3934956  76.6466665  34.6263933  39.9389100
  77.0484257  34.1361547  41.3134050  70.8307791  44.8449039  57.4020386
  70.8708239  44.3896532  56.5609837  71.3010740  44.2716026  58.0073357
  72.6034641   4.5471007  56.0572720  72.7313232   4.6760592  56.9970894
  71.6533327   4.5079353  55.9479666  28.2325701  11.7413929   3.9568674
  28.9015440  11.4670494   4.5841133  28.6193708  12.4928406   3.5074913
  64.7402763   0.1305728  37.8129101  65.4340315   0.7900678  37.8135443
  64.6234989  -0.0951033  38.7357688   7.9057670  48.0762782   6.7922652
   7.3659158  48.4128060   7.5074827   8.8042140  48.1545414   7.1130430
  47.7666712  51.1236858  56.9556379  47.8152370  51.6209555  57.7720881
  47.9051733  50.2143335  57.2204494  58.5490131  53.9361382  36.1199403
  57.6869631  53.5223961  36.0760641  58.9385653  53.5933161  36.9242740
   5.9871718  39.5988345  43.0100203   6.2729689  40.4195452  42.6087856
   6.7978331  39.1748691  43.2916403  23.9695688  15.2316320  61.5213156
  23.3814951  15.1760113  62.2745132  24.6682879  15.8206975  61.8059683
  60.6958322  64.5965101  11.5381586  59.9750999  65.1142480  11.8969404
  61.2747959  64.4423463  12.2846615  59.6000385  49.8184443  49.4958067
  59.8666668  50.3871202  50.2181292  58.8238239  49.3637609  49.8228979
  19.2300153  55.9124412  13.2914984  18.7635732  56.5223875  13.8630116
  18.9399457  55.0463809  13.5779059  13.6703277  62.6690556  29.7886240
  13.0370164  63.1867291  30.2857840  14.5189834  62.9040958  30.1638186
  54.5282749   5.2713278  16.5085470  54.2911629   5.7258252  17.3169005
  53.8139252   4.6507243  16.3643324  46.9264273  37.6589516   3.3360970
  47.5136093  36.9042424   3.2929528  47.2175554  38.1451300   4.1075289
  31.9155554   2.6865438   5.9410059  32.4126200   2.8353241   5.1366293
  32.4198822   3.1340388   6.6204417   9.9762893  67.1391990  24.8087370
  10.7753968  67.6398613  24.6444285  10.2761531  66.3516404  25.2626765
  42.7472448   3.5392570  44.1383266  43.4564114   3.2628095  44.7187519
  42.9066610   4.4717890  43.9927149  30.1403022  33.4302102   7.2408688
  29.7341609  33.8939812   6.5086090  29.4029784  33.1227409   7.7681696
  35.2856322  53.1272982  56.5798569  35.2948352  53.3634995  57.5074100
  35.2403613  53.9654206  56.1197090   6.6816279  11.4723885  57.9165936
   7.3370405  10.7764769  57.9653120   5.8993670  11.0931385  58.3171892
  66.1737537  34.1651011  51.5753889  66.1348152  34.6801424  52.3812723
  66.5250969  34.7695303  50.9215879  36.0042521  11.9879127   7.3665905
  36.8559691  12.3910034   7.5349301  35.6972643  11.7077088   8.2288408
  54.1864347  39.9827623  56.6969013  53.6972380  39.1793346  56.5196562
  53.5236835  40.6060123  56.9944763  22.9360414  69.0986158   3.7865555
  23.4280849  69.8396613   4.1400778  22.4192453  69.4727876   3.0730116
   3.0876490  24.5154786  50.9843493   3.1473108  23.6603355  51.4102602
   3.7581202  25.0452065  51.4157248  23.5574917  43.7033203  11.2041962
  23.9612869  43.1756428  11.8932068  22.8400425  44.1609791  11.6424191
  57.8870296  64.3604040  44.8881340  58.3340406  64.7585678  45.6350422
  57.3711157  63.6496735  45.2688265  77.4655914  43.9216328  23.5382342
  76.7754698  43.3997107  23.1288910  77.1306849  44.8181438  23.5198593
  16.2709089  14.7428358  59.7102308  15.7893320  15.5071640  60.0266552
  17.1880671  15.0165856  59.7202921  50.1407146  23.3429146  60.6212044
  50.0529337  22.4248028  60.3650856  50.4644918  23.7811971  59.8342419
   6.0639235  34.5223427  46.1879635   5.2311178  34.0915132  45.9955072
   5.9807345  35.3910136  45.7946205  27.1489473  14.9445009  28.8550425
  28.0221506  14.8088741  28.4871483  26.9324537  15.8495128  28.6307287
  51.1997847   7.9991558  10.4536783  51.4638809   8.8660744  10.1455557
  50.2668337   7.9452685  10.2464735  24.6853308   0.4867247   7.3875487
  24.2085985   0.7000426   8.1897032  24.4732479  -0.4315039   7.2198832
  72.6787642  50.2715887  39.5966398  72.7970485  51.1694838  39.9065172
  71.8967275  50.3093209  39.0459788  63.2327080  16.4854181  40.2546453
  63.2779074  15.5391502  40.1176596  63.9078474  16.8433940  39.6782160
  35.1680616   0.6820014   7.0127260  34.8714546  -0.2194234   6.8874657
  34.7912411   1.1627320   6.2757456  23.2111315   2.4040917  29.1215956
  24.1589026   2.2702363  29.1280806  22.8701071   1.6769699  28.6007941
  55.8547401  17.7419686  45.3988266  56.6994619  17.3004198  45.4866219
  55.5752945  17.5486505  44.5039654  29.7660232  38.3628913   2.9280483
  29.5442844  38.3714611   1.9969237  29.5161033  37.4881600   3.2257330
  53.2127241  22.6755551   1.0878575  53.4554581  21.9016150   1.5961230
  52.2555451  22.6697281   1.0850394  32.4828772   1.8560437  30.7556975
  32.7613215   2.7450589  30.9755862  33.2948641   1.3970044  30.5407679
  16.9085165  59.4364595  49.5234728  17.6307722  59.7392225  48.9730883
  16.1946818  60.0469303  49.3390989  60.2387528   7.1730259   2.5466215
  59.2823319   7.1969870   2.5770724  60.5087856   8.0539826   2.8059065
  41.9810081  64.5388224   4.3546831  42.8944755  64.2744328   4.2455876
  41.6439223  63.9593722   5.0379431   4.8164698  13.5601473  22.5167227
   4.6449991  13.3701861  21.5943646   3.9479967  13.6676526  22.9045868
  48.5687069  13.8215760  39.8311674  48.1650452  13.6607817  38.9782679
  49.2310528  14.4911459  39.6602595  30.7019278   3.3399183  62.3007393
  29.8967310   2.8506359  62.4695539  30.5864187   4.1626170  62.7761936
  27.9837748  56.2080526  60.6119108  28.8852736  56.3144684  60.3082561
  27.9721972  56.6187382  61.4764595   9.8060084  19.8553351  13.3265984
   9.9172354  20.5056551  14.0200960   8.9637518  19.4427756  13.5179722
  68.4392548  43.2900286  55.6288433  68.8566351  44.0702057  55.2636814
  67.5589752  43.5794210  55.8688164  60.4925255  17.8485230  26.0555708
  59.5679382  18.0592612  25.9253371  60.7718472  17.4707535  25.2216017
  75.3412294  17.8556168  55.1080942  75.7380342  17.9132605  54.2389250
  75.8647346  17.1988881  55.5673075  72.9557896  70.7680321  47.2539139
  72.0037079  70.6738186  47.2837687  73.2681847  69.9336481  46.9039917
   8.6481694  13.3601073  34.0863001   8.6975459  12.5600842  34.6095145
   7.8236560  13.7684277  34.3502867  41.0246062  70.0078918  20.4735434
  41.1490035  70.3630163  21.3536894  40.4005504  69.2915441  20.5903017
  46.6279654  14.5014027   7.4883902  46.7221216  13.5545090   7.5921118
  46.6900639  14.6462801   6.5442574  76.9267181  11.9292239  10.4877627
  77.0348267  11.7077521  11.4126932  77.3018745  12.8060368  10.4059994
   0.1320791  22.4692944  32.9864657   0.4889536  21.6638974  32.6120245
   0.1194430  22.3096016  33.9301741  15.0832697   1.9018744  16.9566584
  15.9115740   1.5546337  16.6256571  14.7767874   2.4894270  16.2659478
  72.5988913  46.5085602  60.4429626  73.0146837  47.2858477  60.8160257
  72.2996712  46.7888165  59.5780039  25.4326101  41.1811924  59.4756699
  25.8822485  41.6384411  60.1862860  24.8342177  41.8336964  59.1118145
  26.3971686  54.1034343  28.1391108  27.1782088  53.6005749  28.3700621
  25.9911084  54.3147578  28.9797556  43.5885624  10.8904913   3.2610714
  44.0833859  10.0721053   3.3013260  42.6762108  10.6146601   3.1729710
  18.2353541  17.2438180  51.7424679  17.9885431  17.2435892  52.6672983
  18.5446688  18.1344867  51.5773439   7.9289194  36.6682601  58.9772415
   8.6428591  36.3634372  59.5372486   7.3469111  35.9124255  58.8984156
  67.0870113   3.9703023  17.3883414  67.8318930   4.1669479  17.9564226
  66.5357065   4.7512612  17.4373174   2.5225234  45.8466508  10.5349648
   3.1240010  45.9259238  11.2753498   1.6776776  45.6385644  10.9339297
   8.7477347  26.4169645  49.5552349   8.3665892  26.9816685  50.2275991
   8.0381247  25.8227587  49.3110704  19.4748946  64.0221642  15.8838630
  18.7032958  63.8156103  15.3564095  19.3619510  64.9419652  16.1235344
  58.9737940  21.7864799  47.2611141  59.9044704  21.8073058  47.0383120
  58.5254049  21.9592547  46.4332676  44.8833704  17.1678007  22.6790428
  44.0120220  16.7993081  22.8246570  45.2670956  17.2282898  23.5538745
  43.3167652   5.4680231  17.5052225  43.4071020   4.7189215  18.0942213
  42.6984457   5.1736620  16.8364393  70.6714487   3.2855842  60.7469034
  69.7826290   3.1220999  61.0623455  71.1426783   3.6081874  61.5150881
  18.0206057  27.6020527  44.9999952  18.5481115  26.8562651  45.2859640
  18.2663866  28.3111286  45.5941677  17.4502321  41.7037296  31.9717145
  18.2135912  41.1444235  31.8278766  17.5735804  42.4370003  31.3689446
  45.1641437  74.5097671  38.2577658  45.7081767  73.7345539  38.1188226
  45.0530740  74.5573708  39.2073059   5.2123209  25.8545089  51.6401672
   5.4611727  26.7170262  51.3079500   5.7568689  25.7310486  52.4176311
  56.7552757  52.8485870  58.0086946  56.1742926  53.5773659  57.7905893
  56.5179300  52.6132298  58.9056396   1.6437765  44.7828817  40.8951139
   2.2026392  45.5563498  40.8199883   0.7974239  45.0642490  40.5476236
  69.7730712  63.4368660  10.3479492  70.2954940  63.8591053  11.0298741
  70.0094775  63.8996412   9.5440972  29.0287280  60.4383757   3.8883793
  29.5021510  61.2672307   3.8169586  28.1393790  60.6449844   3.6009705
  65.2360920  11.6701010   8.5781109  64.3771748  11.8603209   8.2008564
  65.1661591  10.7678917   8.8901341  44.3050262  73.0214785  53.3679628
  43.8692637  73.6096143  52.7511644  44.4252463  73.5489074  54.1576433
  64.0206818  60.7774474  12.7110350  63.5780839  61.1547043  11.9507611
  63.8487724  59.8380234  12.6465094  12.7524134  47.1048594  48.8435984
  13.6567351  47.3913622  48.7157249  12.7575346  46.6688251  49.6957016
  76.4149407  65.0139071  13.4870732  75.7378844  65.5893876  13.8429510
  77.0525435  65.6092956  13.0931103  21.0368773  17.1613371  20.1208091
  21.1370798  17.1473610  19.1689706  20.5819937  16.3444531  20.3257775
   5.3319403  24.5801020  25.0971556   4.4213911  24.6977592  24.8264360
   5.8270594  24.5783925  24.2779613  37.9801031   7.6946592  52.8795910
  37.9103895   8.6491233  52.8987980  37.2071310   7.4077833  52.3933411
  14.1963009  43.5939530  10.1207268  14.5351843  43.9575890  10.9387457
  14.9737076  43.2839325   9.6562254  27.3614124   5.9008816  32.1977007
  27.2837547   5.7430104  33.1385958  27.2631697   6.8484953  32.1049273
  34.8208141  49.1262770  60.9710932  34.3651628  48.5718536  61.6045189
  34.2052722  49.2142439  60.2433586  72.0138915   4.6447209  30.8947527
  72.9430492   4.7490862  31.0997069  71.7668720   5.4693154  30.4761183
   3.3540896   6.5694645   7.5097954   3.5473589   6.6004017   8.4467709
   3.4835319   7.4688128   7.2087204   4.2693833  55.9739903  46.1594546
   3.6109833  56.0981587  45.4758417   5.0101189  55.5694416  45.7079279
  27.2650675  16.7381934  20.5833781  28.0965571  16.6855553  21.0546362
  26.6011957  16.7726591  21.2720835  66.3970538  16.1766985  17.6421606
  66.4239486  15.4755047  18.2931959  65.9840377  15.7770947  16.8766749
  54.9176196  72.6227476  30.2966177  54.0932611  72.8979279  29.8954355
  55.5208949  72.5231888  29.5601523   1.1987142  20.7386759  31.0843050
   0.3329901  20.6317023  30.6902087   1.8055038  20.4041842  30.4238856
  24.8476291  64.2619038  41.1780596  25.4206634  63.6322737  40.7405281
  24.2888999  64.6028519  40.4796267  67.0376618   5.6000832   5.6775152
  66.5704985   6.3932589   5.9399378  66.4097257   5.1197365   5.1378929
  26.1540846  22.5003985  35.1337683  25.7772688  21.6362360  35.2994787
  26.4804749  22.4510792  34.2352831  77.0142420  18.3738354   3.9978134
  77.0468743  18.5622576   4.9357188  77.0518501  17.4188927   3.9439118
  58.4614457   6.7803887  18.8233149  58.8755335   5.9261492  18.9459383
  57.8857209   6.8785504  19.5816958  17.8049330   1.0534767  40.8272326
  17.3537258   0.2516559  41.0912955  17.8834728   0.9819249  39.8759520
  38.7663321  71.5678980  31.0183394  38.9514176  72.2446825  30.3672278
  37.8122369  71.4908721  31.0191691   4.6840719  15.8490399  10.6142294
   5.0778607  16.3903740   9.9300349   4.8093180  16.3517264  11.4191210
  38.8560843  67.5098419  55.7595778  38.5510254  66.6876125  55.3760290
  38.9150310  67.3291826  56.6977215   0.2814964  18.8130120  33.0221140
  -0.0772663  19.2350081  33.8027727   0.4358772  19.5327929  32.4103033
  12.6093988  34.0312651  56.2827551  11.6947416  33.9996174  56.0023463
  12.7968887  34.9645022  56.3834727  63.1304459  70.7691600  18.5989439
  63.3327393  71.2012221  19.4287836  63.2434110  71.4532067  17.9389822
  47.0929722   8.6579302  49.1906893  47.3242811   8.4927538  50.1047194
  47.1819309   7.8060225  48.7634051   3.5396461   2.3726395  28.9610064
   4.1707281   1.6678956  28.8150465   2.6997189   1.9248536  29.0622103
  61.5404347  59.0492536  17.6545775  60.6548623  59.3711044  17.4860346
  61.8819002  58.8233902  16.7893469  75.7565192  71.2909986  29.0609896
  76.5746001  71.3297798  29.5564329  75.2116851  71.9784810  29.4440710
  73.3826168  12.7607325  18.0298579  72.9676540  13.4239128  17.4782812
  74.3065675  13.0100087  18.0501044  55.0966376  31.3207987  23.4317934
  54.5456353  31.9123295  22.9192316  54.5301594  31.0219506  24.1431486
  12.5727749  55.6619406  57.9653978  11.6541624  55.7929707  57.7304220
  12.5521028  54.9909353  58.6477089   5.4456953  13.0510834   4.2395699
   4.8534516  12.2994498   4.2166722   5.2845553  13.4571198   5.0912773
  58.9223959   8.9245013  32.1107924  58.9151873   9.1838244  33.0321753
  59.4618578   9.5873097  31.6796458  48.2836632  70.3562571  33.8956988
  47.8773836  71.2221577  33.9329302  47.7877096  69.8876550  33.2243693
  26.2040424  12.5997925  60.9881258  26.5614319  13.1402791  60.2835846
  25.3977942  12.2341907  60.6240749  38.4194143   2.4104765   3.3987629
  38.2837732   1.4698866   3.2842219  38.0187543   2.8062514   2.6247704
  76.8502454  43.2318052  25.9590208  77.1580628  42.3549851  26.1885226
  77.5738696  43.6182060  25.4657709  19.8334658  31.7297959  32.1113014
  20.6473804  31.7192817  31.6076493  19.2336249  31.1786509  31.6086459
  26.3722563  54.2529440  59.4933987  26.1015224  54.4770098  58.6030436
  26.9681525  54.9577761  59.7470713   2.1774963   1.0729221  15.6770861
   1.6419653   1.3309053  14.9268353   3.0547217   0.9501341  15.3142798
  48.4211258  62.0207860   6.0779726  48.4232763  62.5113680   6.8998921
  48.2165936  62.6745274   5.4093754  53.5340146  59.7995688   0.1980984
  52.8976897  59.7410705   0.9107697  54.3848685  59.7226407   0.6297982
  52.1143750  49.6999039  13.9269173  52.2439341  49.0635135  14.6300900
  52.0308522  50.5405213  14.3770468  12.9112196  37.3727942  59.5591021
  13.5418928  36.8558764  60.0603819  12.7856970  38.1669164  60.0785732
  42.4020914  61.1723186  30.0256407  43.3485321  61.1790826  29.8826754
  42.2576848  61.8315341  30.7044756  40.9079544  68.2293608  10.3114617
  40.8568481  68.0805685   9.3672764  40.2447621  68.8974406  10.4848921
  34.6330504  18.8918332  14.3859923  34.7465900  19.7714690  14.0260184
  33.6995558  18.7084225  14.2802584  47.0298767  20.8484626  52.6668596
  46.4416552  20.7792568  51.9149017  46.8211889  21.6973257  53.0568695
  45.2358484  19.4354832  57.9898500  45.9337473  20.0704789  57.8287697
  45.6717587  18.5843956  57.9467010  70.3727920   4.4674376  26.6150439
  69.4914587   4.2438963  26.9142306  70.2486964   5.2349118  26.0566389
  23.8927269  52.0054626  53.3937836  23.3287048  51.2409019  53.5102320
  23.3810067  52.5991344  52.8443050  50.1918177  72.2768237   6.4756787
  50.2669648  71.4744141   5.9592259  50.6961612  72.9256608   5.9848892
  53.6807493  72.9633691  42.8236639  53.5252527  72.2743298  42.1776926
  53.4652189  73.7751510  42.3645460   3.5622430  65.4238727  43.2739126
   3.3061576  64.8162796  42.5800287   2.7634788  65.9133102  43.4705317
  35.6989241  69.6203423  47.6618004  35.3297782  69.0105104  48.3006048
  35.9889793  69.0636969  46.9391298  33.9867780  52.8963127  13.2846462
  34.3703685  52.1497204  12.8245461  33.0964754  52.9591288  12.9387438
  68.3631638  50.8754625  26.7451632  67.7979735  50.4828312  26.0798514
  68.1324557  51.8044116  26.7375242  17.1648363  16.8829373   1.1100733
  16.7647270  16.1054161   1.4994395  17.1254353  17.5441244   1.8010962
  43.2535458   7.5697494  58.7950087  42.8902340   7.4739963  59.6753883
  44.1955376   7.6675886  58.9339781  60.8373407  50.4893817  19.0147459
  61.6437963  49.9795391  18.9377939  60.9344057  50.9683539  19.8377859
  18.3126597   8.8580922  28.1087267  17.5663427   8.3920029  27.7319014
  18.5755829   8.3233479  28.8578284  26.0180068  69.9436953  25.7354700
  25.7380891  70.8218886  25.9936487  26.2974429  70.0393798  24.8249781
  76.5134982  69.8149802   8.9512884  76.4843205  70.7688476   9.0255749
  76.2275008  69.4991257   9.8084175  60.5792512  16.5338877  28.5202372
  61.4969720  16.4782980  28.7865603  60.6032391  16.9676426  27.6672899
  36.1404709   8.1110505  39.7850859  35.6216101   7.9907206  40.5804121
  36.8622784   7.4886397  39.8735583  71.7313270  73.4738781  28.7523043
  71.3759021  74.3127038  28.4585821  71.2220792  72.8180386  28.2760966
  75.9149321   7.1621779  17.2614538  76.4321764   7.2747353  16.4639437
  76.5545590   6.9132164  17.9286349   4.3487191  57.7807595  37.3073542
   4.5419335  58.7182095  37.3169100   5.1473546  57.3682477  37.6363718
  15.8117489  32.8340939  21.1842024  15.1352982  32.8306321  21.8614256
  16.3250450  33.6221341  21.3624060  75.6528234  68.2481337  59.4959450
  75.1825142  68.4313869  58.6826468  75.2238560  68.7996769  60.1501703
  33.3228946  58.0140593   9.3394482  32.7743697  57.2300662   9.3128979
  32.8704143  58.6421325   8.7763989  75.3706725  30.3655651  22.1693766
  75.7836540  29.5108631  22.0462477  76.0967477  30.9886721  22.1413100
   2.9513812  66.8895461  13.6384451   2.7201581  67.3839523  12.8521025
   2.3389697  67.2000958  14.3053353  77.2418435  16.2994746   1.2546170
  76.7430742  17.1099833   1.1519634  78.1022127  16.4993552   0.8857739
  66.7075872  29.8249602  62.4205875  67.0022106  29.2033553  63.0861998
  66.1273432  29.3142438  61.8560410  17.5999931  10.2063158  17.3775828
  17.9529194  11.0332707  17.0492232  18.2109407   9.9413565  18.0651629
  30.5525593   2.9176930  11.1127388  31.4220337   2.7235392  11.4628136
  30.5068449   3.8737372  11.1016238   5.8476138  61.2323358   1.4371836
   4.9027324  61.3609840   1.5201008   5.9797025  61.0151913   0.5143463
  27.2865125  60.1273944   0.5741417  27.3518152  59.5707633  -0.2018297
  26.7651372  60.8773210   0.2877676  65.8724316   6.1954668  13.3242666
  66.5481933   5.6469086  13.7225878  65.0759311   5.6667307  13.3718216
   3.0051466  44.1669178  22.0441270   3.7800165  43.9160204  22.5469780
   2.6297613  43.3362055  21.7521811  65.1283459  72.8224255  25.4352343
  64.3752340  73.4036948  25.5409395  65.4893664  72.7353169  26.3174498
  25.5509428   3.2209090  64.0994513  25.9820799   3.4395054  64.9256289
  25.2371124   2.3250655  64.2227518  38.4289098  62.1896362  64.6462727
  38.1252503  61.3362026  64.3369627  39.0524411  62.4779892  63.9797211
  40.2853727  40.5584145  62.5654936  39.9889660  41.4371729  62.8024721
  39.5093656  40.1346731  62.1987629  63.4771109  22.6962042  55.2672672
  63.2858372  21.7743635  55.0944662  63.2971811  23.1378102  54.4372988
  17.7202276  23.0204752   1.1124670  16.8278174  23.3295849   0.9566176
  17.7450136  22.8223399   2.0486080  24.3706059  22.5502443  30.2734447
  23.4362602  22.4092555  30.4262495  24.7903776  21.7581439  30.6090021
  46.4123344  58.7706327  64.2192030  45.6959915  58.2890129  63.8055277
  45.9866047  59.5159054  64.6429443  33.7812185  35.7000995  59.2037725
  34.5355082  36.2892747  59.2161036  33.3498096  35.8456635  60.0457525
  56.8796829  65.9528138  42.6063406  57.4390201  65.5411531  43.2650530
  57.2613243  65.6887128  41.7691767  55.4784203  21.0480833  44.8722982
  56.2564373  20.5257154  44.6772385  54.7787428  20.6332898  44.3676901
  34.7834078  72.4370052  12.4638378  34.0671168  72.4872829  13.0967915
  34.3562541  72.2183754  11.6356003  76.6164760  53.9945449  18.0066073
  77.1881989  53.3885540  18.4779227  76.5187625  54.7407331  18.5981142
  65.7284017  11.8107251  11.3720524  65.6939574  11.9115380  10.4208004
  65.1077171  12.4592713  11.7042696  78.4908104  21.4914465  51.1334419
  79.3509340  21.0838056  51.0322142  78.2697964  21.3586044  52.0552540
  65.3276853  60.1248624   9.9968350  65.8201555  60.4110290  10.7661307
  65.4440359  59.1749527   9.9776900   7.4646644  23.3650330  19.8169863
   7.0623020  23.0278424  19.0165865   7.9382805  22.6168612  20.1805174
  45.3837232  62.0650174  22.8592837  45.6458656  62.2175409  21.9513952
  45.7129935  62.8275873  23.3349859  37.9984478   0.9432677  31.8555891
  37.7420382   0.6082872  32.7148211  38.7153200   0.3719858  31.5799773
  19.8944000   9.8236540  42.2760355  19.1285233   9.3983677  42.6617777
  20.5685906   9.7624043  42.9527533  63.3826260  63.6008932  27.6674998
  63.1959251  63.9370372  28.5440695  64.0489439  62.9277875  27.8059923
  11.7901758   0.7327774  23.1782591  12.4648789   1.2857750  23.5722029
  11.4432005   0.2209929  23.9089548  36.4775662   4.1832283  26.6610873
  37.1777920   4.7629002  26.3612425  35.7861189   4.7756747  26.9562876
  49.1504383  59.0456343  54.8034477  48.8062143  59.4072914  53.9867783
  48.3805418  58.9415979  55.3626108  61.2678865  62.2768928  18.8155806
  61.1677841  61.4158036  19.2214644  61.5151218  62.0877411  17.9104197
  73.5712130   2.6074317  12.0718300  73.2269748   2.8712586  11.2185251
  74.5200475   2.7005127  11.9865048  13.0469636  18.5640696   9.3630898
  13.6402325  18.6320666   8.6150038  13.1785492  17.6752499   9.6931183
  23.3818106   6.6682127  19.8531496  23.8150314   6.1463717  19.1777003
  23.7322525   6.3312176  20.6776869  58.5552362  71.1580469  38.4653532
  59.1605810  71.0332395  39.1962492  58.4288529  72.1056940  38.4181750
   7.4661183  62.9185702  22.7983725   7.7256560  62.0371534  22.5300848
   6.6875768  62.7848865  23.3389532   2.1656695   8.2012862  56.9849157
   3.0056888   8.1284362  56.5318251   1.5267269   8.3349615  56.2848330
  14.1229538  19.7171477  31.4542448  13.5529665  19.8532465  30.6973994
  13.7391857  18.9689806  31.9116366  75.3239325  56.4657237  36.1360514
  75.0953654  55.5552747  36.3233244  74.6224479  56.9767000  36.5398466
  33.2625494  59.8405649   4.4143688  33.2348851  60.3558232   3.6081612
  32.6786486  60.3038885   5.0148880  21.4258389   3.5707978  14.3488991
  21.1079935   4.0860680  13.6074793  20.6574682   3.0863646  14.6508467
  69.5127244  33.7936858   4.1544020  70.1755865  33.7390784   3.4660256
  68.8477953  33.1547192   3.8978493  77.8939084  63.2429006  34.4150507
  77.2761849  63.1244924  33.6935103  78.3360700  64.0688397  34.2187083
  72.5978021  60.9768583   4.8494398  72.3305921  61.8723704   4.6423352
  73.5344485  60.9549882   4.6533787  28.8424639   8.2118443   4.9620068
  27.9943518   8.5729721   4.7040856  28.6877112   7.2706202   5.0418913
  70.2308778  72.0902039   8.3764517  70.4021768  71.3012292   7.8622448
  69.4266538  71.8931748   8.8566983  58.2584886  57.3268678   5.1843321
  58.2846478  57.0598628   4.2654955  59.1773967  57.4410130   5.4268372
   1.6794375  28.7990597  24.7544157   0.9611301  29.3354395  25.0899184
   1.8442802  28.1592015  25.4469740  20.3963665  21.8027237  15.5989039
  19.5212559  21.9487456  15.9582007  20.9652428  21.7519167  16.3670408
  16.3999868  49.8236145  17.0233214  17.0210528  49.3893434  17.6080572
  16.7672896  50.6974401  16.8900931  18.6221747  33.2534960   1.0382807
  18.7949804  32.5573376   1.6721070  19.4041733  33.8046578   1.0687315
   3.6839274  36.4631060   5.4088843   4.0462331  35.6929377   4.9709332
   3.9688782  37.2011927   4.8701250  56.2523501   6.9635895  15.0395119
  56.1610167   7.5894955  14.3210900  55.4658903   6.4206293  14.9855768
  28.0209541  43.8987207  62.3520422  28.8548446  44.1959810  61.9880438
  28.1433892  43.9450979  63.3002424  67.7801446  53.2591619  26.5007365
  68.1702451  53.8146927  27.1755945  68.3229856  53.4062125  25.7261812
  43.3222342  64.5683670  57.4099970  43.2588005  64.6656084  58.3601332
  42.8421164  63.7625885  57.2191191  76.8188055  16.4656332  46.5829432
  76.9185360  16.7675331  45.6800902  77.5665553  16.8435553  47.0458376
  69.4520358  44.9360122  12.5777590  69.7817258  44.0402390  12.5061476
  70.1540164  45.4151060  13.0181277  21.6058830   8.8190869   3.6404049
  21.7947678   8.8589219   4.5779383  20.6511120   8.8607100   3.5864603
  35.6125259  67.5183153  55.8223534  36.4660931  67.6628733  56.2307119
  35.4579544  66.5784073  55.9167576  54.4520882   7.5512865   2.2399294
  54.4960149   7.4408654   3.1897223  53.6140484   7.1608857   1.9919216
  50.7040862  66.6066195  10.4570591  50.9471849  66.1428525  11.2583458
  50.3828958  65.9209086   9.8715126  64.0869812  63.9601519  10.4631722
  64.9332241  64.1926720  10.8453285  63.9704470  64.5806934   9.7437441
  63.1370314  13.1419972   7.5123179  62.6819392  12.6205710   6.8510782
  63.0355831  14.0463999   7.2156775  51.6467790  68.6793305  20.4631293
  50.7162813  68.4585359  20.4223978  51.9251803  68.7132146  19.5479357
   6.5227151  73.2876899  35.1853430   7.3533845  72.8307511  35.0533163
   6.4285541  73.3434917  36.1362612  40.8082608  70.8022286  13.6990797
  40.7302371  71.2036397  14.5645344  40.8265702  69.8610236  13.8723719
  67.5944252  12.1548680   1.7856467  67.0554908  12.9273203   1.9562447
  68.4675439  12.3995140   2.0923149  61.7073373  70.8257415   3.1239617
  62.5593952  70.5158522   3.4308827  61.8625072  71.0957577   2.2188437
   2.4399785  24.5843867  24.0374052   2.8100971  23.7125090  24.1754877
   1.6284732  24.4264439  23.5549700  47.9634714   5.8370727  48.9421558
  48.4690714   5.1867348  48.4546518  47.6305771   5.3606647  49.7027111
  56.8975476  70.2654411   7.2065508  56.6587237  69.3921782   7.5173723
  56.1431555  70.8123114   7.4257624  56.7069153  50.5580666  36.3198149
  55.9589366  49.9781360  36.1768591  56.3680080  51.4349331  36.1395991
  15.8901441  22.6400828  54.0350628  16.3237643  21.8179488  53.8063717
  16.6073275  23.2412124  54.2363691  12.0762114  15.2924040  31.6287672
  11.1794070  15.1305083  31.3359034  12.5847558  15.3541354  30.8201849
  77.2185238   7.7098206  22.0897925  76.6803987   8.1118372  22.7717268
  77.9404338   7.2989682  22.5654852  47.9497341  18.8565615   9.6091950
  47.7609877  18.8627461  10.5475819  47.1254877  18.5918215   9.2008364
  39.7240023   1.5601805   9.1819632  38.7957768   1.4085463   9.0041077
  39.7967867   1.5087036  10.1350033  70.5796480  72.6707327  58.9054251
  70.4870927  73.6231399  58.9296293  71.3994598  72.4979214  59.3683243
  72.7714757  60.3683950  18.0398619  73.1118564  61.1424210  18.4884703
  73.1149129  60.4374625  17.1490729  44.9091585  19.3224886  10.7143748
  45.7896896  19.4103316  11.0793173  44.3256690  19.5339182  11.4431202
   5.8735351   4.9674157  16.1628783   6.6864924   5.3194645  15.8003962
   5.2254705   5.1004294  15.4711020  13.0693320  34.3546370  21.4319575
  13.2222251  35.2980641  21.4848864  13.4829907  34.0004233  22.2191393
  76.3859606  45.6543255  48.2672501  76.8157148  44.9960279  47.7211809
  75.5126286  45.2977419  48.4296465  30.7981114  16.7566946  15.8071196
  31.6134552  17.2483281  15.9058058  30.5795626  16.4745358  16.6952955
  60.5731801  59.1218116  32.6532614  61.4034227  59.0378811  32.1843493
  60.8264331  59.2562081  33.5665190  71.7238454  49.6102609  20.7701742
  71.8801669  49.2179813  21.6291964  71.5700511  48.8641800  20.1905691
  30.6205563  73.8467409   0.0432694  30.5395231  72.9124476   0.2349961
  31.1319507  74.1974093   0.7724774  54.6033315  61.3664724  12.6624548
  55.4054574  60.9867193  13.0210888  53.9218811  60.7272746  12.8705036
  32.8958893  50.5581808  56.3581133  32.8944397  50.4036713  57.3027611
  31.9785404  50.7244730  56.1412096  30.8654932   8.7328747  24.3074476
  31.3844637   8.3700112  23.5896456  30.0469593   9.0092543  23.8953173
  26.1925177  18.1959179  28.1808913  25.2618698  17.9729966  28.2016241
  26.2571291  18.8939932  27.5291598  26.1525440  54.4809198  56.7229748
  25.8428788  54.3232012  55.8310843  26.9602919  53.9716721  56.7896271
  34.9248219  24.6368766  64.0019608  34.9790406  25.5843067  63.8767719
  34.1014457  24.3866348  63.5828400   0.2991176  47.4812498  23.7608397
   0.2920842  47.0767041  22.8933584  -0.5847382  47.3378529  24.0991652
  10.7602608  35.9718513  42.0657110  10.6297970  35.0236416  42.0552635
  10.9063137  36.2036443  41.1485577  25.8212352  72.6559355  50.0445521
  26.0099530  73.5815622  50.1989138  26.0362363  72.5182702  49.1220248
  14.0999818  43.1244542  35.9254706  14.0480638  42.9359277  34.9884569
  14.8804402  43.6710383  36.0169279  73.3291272  51.5558972  17.5944197
  73.7663440  52.1552493  16.9895613  73.7312583  50.7047965  17.4207747
  77.1085910  62.8085997  16.6701376  76.6224412  62.4993779  15.9057581
  77.8402308  63.3053138  16.3037932  24.5644017  69.0798809  30.8532297
  23.7832946  69.6330358  30.8642637  24.2985272  68.2808997  31.3083899
  17.9148126  73.1551649  24.3074667  17.3993421  73.0114104  25.1011050
  18.6581397  73.6840870  24.5971930  56.4267639  44.7971924   9.8048556
  56.1365227  44.2880382  10.5616629  55.6204180  45.0062736   9.3333447
  49.4099621  42.7135124   0.6545126  49.9500231  42.1053987   0.1497710
  48.5968045  42.2348394   0.8153736  21.6459850  22.7750424   8.4446442
  22.0251135  22.9233483   9.3109572  22.3656611  22.4142817   7.9268086
   3.0543828  59.3646838   4.3492138   2.9915547  58.4142878   4.2541706
   3.6553741  59.4927861   5.0831282  71.3113145  57.7051975  35.9366858
  71.2680749  58.5875704  35.5682051  71.7497472  57.8189971  36.7799341
  51.8216228  56.3522673  60.0119400  52.7579641  56.4477348  60.1862526
  51.6148376  57.0706081  59.4140625  37.0749545  67.1408653  58.6594534
  37.2344398  66.2192678  58.8630486  36.1643934  67.2885132  58.9150095
  52.2335911  30.0074244  58.2960320  51.4185333  29.9303627  58.7919903
  52.5520754  29.1081882  58.2174444  32.7622485  55.1338448  30.5873167
  33.6036658  55.1371600  30.1309740  32.7809978  55.9221174  31.1299956
  68.1507444  33.5589862  39.4637632  67.4801779  33.9950371  38.9379954
  67.6577616  33.0063963  40.0702667  32.0244575  67.4977066  19.0891421
  31.6490626  66.6451861  19.3094027  32.7081943  67.3001720  18.4490454
  12.4297098  24.6159914  56.5742552  11.5684942  24.4766835  56.1803877
  13.0468706  24.4777325  55.8557665  56.1313868  14.1590440  57.3339987
  55.6212187  13.8595855  58.0865192  55.8564043  13.5888577  56.6160154
   8.8666296  42.0180893  62.5470257   9.5239300  41.5874577  63.0936003
   9.1316915  42.9377556  62.5333977   1.2913728  54.6325256  14.1343605
   0.6138110  55.1219835  13.6679137   1.8148732  55.3046634  14.5707142
  75.9639768  67.6858069  13.6706936  75.3153972  68.1975271  14.1541350
  76.7616109  67.7528550  14.1955912   6.5417317  57.6363495   1.0568106
   7.0696405  57.9762677   0.3343117   6.5832810  58.3195809   1.7259228
  52.5373510  23.2167891  22.2206366  52.3029474  24.0556744  22.6175749
  52.9164223  23.4503582  21.3732970  73.9817838  70.8418919   2.0044195
  74.9278287  70.8769037   2.1458590  73.8232783  69.9624350   1.6613972
  36.1913443  46.4990187  60.5785370  35.9848928  47.4116278  60.7804155
  36.5788007  46.5289640  59.7037697  58.4119081  58.2752037  59.5222807
  58.8132572  57.9161024  58.7309551  59.1410208  58.3824539  60.1331186
  33.6037067  12.1521595  26.3641035  34.3525032  11.6433266  26.6749441
  33.1842665  12.4731425  27.1623957  66.4463023  54.0452232  19.4042265
  66.0672525  54.6054937  20.0814688  66.0217027  54.3278434  18.5942423
  37.1148256  14.7013834  14.4504988  37.6259903  15.2038458  15.0849068
  36.4531378  15.3168181  14.1348374  34.6277833  39.0040112  60.9214973
  34.9335599  38.6241817  61.7451859  33.6742187  39.0180802  61.0036373
   3.3259654  42.9292967  30.0368464   2.9405427  42.6768776  29.1978228
   4.1732478  42.4843039  30.0547564  12.5406388  20.5776432  22.1441710
  11.9454602  19.8451212  22.3035490  13.3601646  20.1653221  21.8710291
  21.6775517   3.3071116   2.4145186  22.6133827   3.2015398   2.5857031
  21.6244845   3.4859541   1.4756739  33.1410126  34.2058590   4.5834601
  32.9031805  34.8183421   5.2795422  33.8231520  33.6569003   4.9701988
  32.1793437  34.1347194  57.6555395  32.7923441  34.7593784  58.0431795
  31.3719916  34.6346545  57.5352097  18.0611567  13.0856589   8.1215679
  18.5079722  13.9083603   8.3209240  17.1506790  13.2405165   8.3731377
  61.7266611  61.3773086  16.0282862  61.3314895  60.5278160  15.8322394
  62.5858191  61.3446166  15.6075537  63.0464891  58.8625671  31.2407648
  63.3582214  59.7545864  31.0879385  63.3907298  58.3588840  30.5031836
  63.8384179  70.8432962   0.5845225  64.5322803  71.2246324   1.1224520
  64.2587880  70.6634714  -0.2564180  14.9203781   6.6937950  58.8091624
  15.3683380   6.9932059  59.6003210  14.7418121   7.4952343  58.3171904
  66.7973137  61.6333866  56.1496067  67.6922846  61.4708424  55.8515549
  66.7277050  61.1504841  56.9731331  26.4522318   8.7450341  25.9827482
  26.2020353   9.3700436  26.6631853  26.6712860   7.9453019  26.4609492
  17.9924349  32.4469880  40.3986990  18.7286619  32.0168236  39.9637758
  18.0303387  33.3534268  40.0934756  50.7042217  40.9941530  47.9754543
  49.9921083  41.5431213  48.3037233  50.9362364  41.3820410  47.1316910
  16.7979340  19.0341738   2.9581749  16.6019825  18.6534193   3.8142502
  16.0342745  19.5747021   2.7559769   2.7553705  30.1245812  11.4480936
   3.2761315  29.4484166  11.8815005   3.3949927  30.7841185  11.1795294
  23.5669235   6.0532835  58.0375063  24.4218258   6.1240748  57.6128161
  23.5124878   5.1389101  58.3153403  60.0996113  35.9260917  59.3215370
  60.4521513  35.3794575  60.0237751  59.6605158  35.3095698  58.7355900
  39.7827601  62.9154301  59.9215984  38.8302612  63.0070782  59.8975182
  39.9375844  61.9831181  59.7697639  72.1509027  29.1059113  56.5403414
  72.2227907  28.6149621  55.7217884  71.4702177  28.6491585  57.0345879
  40.0716066  52.1028280  63.2259321  41.0278797  52.0859289  63.2645655
  39.8338509  52.9693699  63.5557938  55.6575918  44.0987253  63.6293650
  55.5102396  44.8554420  63.0619955  55.1769543  43.3862257  63.2079840
  52.0749144  61.3217904   6.2905752  52.9720072  61.5998485   6.4753449
  52.1687869  60.4509069   5.9045994  67.5461415  60.1374103  38.2571852
  66.7352847  60.5685236  38.5271513  67.3212174  59.6951773  37.4386084
  46.4174747  55.1549959  59.9714947  47.1158504  55.4301405  60.5654669
  46.7806959  54.4003391  59.5080376  69.9734862  32.7036837  22.3715365
  70.9028824  32.9321221  22.3550188  69.6143957  33.1037548  21.5795672
  57.4907398  27.2256136  63.8160372  58.4014416  27.2121763  64.1104317
  57.4444389  27.9686880  63.2144308  31.3130240   2.4655965  15.6057226
  30.5988506   3.1028441  15.5957949  32.0368437   2.9101494  15.1644861
  57.4282789  50.5451202  60.6319523  56.7926264  49.8405170  60.7573080
  57.9573774  50.2605963  59.8867512  27.3174930  44.0118273   0.7362234
  26.5084243  44.0606018   1.2453949  27.5897288  43.0968292   0.8061945
  47.5100899  59.8281384  61.5867853  47.9805183  60.5559683  61.9932270
  47.3425865  59.2195702  62.3063803  58.5323194  60.9218409   9.1808331
  58.3855108  60.9537484   8.2354939  59.2352728  61.5528514   9.3354809
  17.3696208  66.8202521  20.7155192  18.3090186  66.6806151  20.5961096
  17.2728372  67.7714230  20.7617914  36.1644033  73.1283285  20.9161627
  36.2454049  73.9458920  21.4073527  36.5057997  73.3365704  20.0464976
  53.9696077  64.0999987  13.3502495  54.0357784  63.3708670  12.7336275
  54.8697165  64.4088461  13.4534466  78.8719995  25.8607033  20.4133570
  78.7868460  26.4865044  21.1326277  79.6642454  25.3647927  20.6198752
  13.5492615   3.1932333   8.9279949  13.3399371   2.2628525   9.0105068
  13.2826714   3.4206274   8.0372345  50.2423862  66.9937612  26.1682665
  50.0892953  67.9298760  26.2966597  50.0805501  66.8502762  25.2358210
  61.1628532  31.4044499  60.9101152  60.8094645  32.2346830  61.2295866
  61.2364912  31.5240002  59.9632692   8.6394006  69.2368698  54.6116209
   9.1263622  70.0211239  54.3585587   9.2675948  68.7158728  55.1117897
  21.6489796  37.7935913  12.5945961  22.1439890  38.1397227  13.3371556
  20.7970623  37.5594595  12.9629004  47.4885654  44.7438288  63.7387419
  47.2494936  45.6621504  63.8642836  46.6770554  44.2613459  63.8965273
  19.3552403  11.5815285  35.4741823  19.8851923  11.3304881  36.2307322
  19.7132734  12.4260310  35.2005732  21.9909004  38.9226225  17.2761023
  21.2788490  38.3566264  16.9780028  22.2588305  38.5485438  18.1154501
  75.2456740   7.5578262  61.8433475  75.3143577   8.5090496  61.9252348
  74.6973208   7.4229385  61.0704660  23.3924774  27.8548458  16.6966021
  24.1889528  28.3722523  16.8155539  22.7698902  28.2264689  17.3215067
  61.9380760  55.5303860  64.4451952  61.5461636  55.9269571  63.6671400
  61.1945868  55.3394508  65.0170326  59.8644332  50.6479968   3.3075678
  60.6551103  50.4969611   3.8254988  59.6733335  51.5781750   3.4279120
  62.2462968  65.5728104   6.1259424  62.7103428  65.8311274   5.3295958
  61.8236808  66.3766720   6.4283192   4.3373656   1.4510442  54.6367264
   4.0409589   0.7231809  54.0902948   3.7829518   2.1868230  54.3769407
  61.7852354  42.7284813  55.9118652  62.0814896  43.1809139  55.1220751
  62.4985743  42.8488493  56.5386724  39.6150259  31.9201592  64.1565954
  39.9741844  31.3793639  63.4531843  40.1114468  31.6631392  64.9336016
  78.1438764  24.2956475   0.7969153  78.8391455  23.8423375   1.2737238
  78.5645826  24.6014145  -0.0066698  74.9876268   0.9672907  41.5537798
  74.9181350   1.5678266  40.8116495  74.7343762   1.4934781  42.3122179
  49.2102528  55.3597164  58.7804651  49.1318703  55.2899790  57.8290319
  49.9129534  55.9951782  58.9169645  45.0681595   8.9489249  35.5877840
  45.0239281   9.8859290  35.7783186  45.6387571   8.5927132  36.2687838
   1.5396456  26.7666891   7.9731762   1.7419604  26.2656954   7.1830427
   1.3152913  26.1037854   8.6262095   6.6026787   3.5237387  51.1722529
   6.1361865   2.9358557  50.5781138   6.5922765   3.0701521  52.0151007
  66.1173395  71.7110230  23.1977904  65.7082180  71.8999674  24.0422690
  66.3024644  72.5722553  22.8233015  29.4726233  10.0893858   1.2768805
  29.2640165   9.1857937   1.5140354  30.0759605  10.3829840   1.9595349
  74.1220267  28.0312327  24.4020140  75.0267942  28.2398871  24.6345865
  73.6534508  28.8607100  24.4949686  30.4036573  31.6355303  16.3274252
  30.8758549  31.4007643  15.5285895  30.9750704  32.2650889  16.7671644
   6.5580634  33.0512932  17.6711046   6.7347244  32.2416476  17.1920359
   5.8025650  32.8441504  18.2211363  32.0704985  58.5212612  60.5858326
  31.3097119  58.9444542  60.1879072  32.8210640  58.8936186  60.1229811
   2.4195150  17.4140957   9.3826496   2.4409203  17.5493792   8.4352982
   2.8096036  16.5493134   9.5099699  73.6663754  42.6857880   7.3583805
  73.6313160  42.2424534   6.5107596  73.8193090  41.9830731   7.9900706
  36.9746812  16.0244327   0.7334256  36.6921838  16.8165522   0.2762913
  36.4963325  15.3159111   0.3028321   8.5949878  58.6615494  28.4502375
   8.3572225  57.8627423  27.9794848   9.5406703  58.5905198  28.5801279
  52.6321316  23.5114574  56.8352842  52.9294014  22.6094961  56.9549847
  53.0416536  23.7919998  56.0168600  50.7504749  59.9629021  61.8225908
  51.6436720  60.3070307  61.8207502  50.7681370  59.2542839  62.4658489
  30.3608898  38.7035349  13.1593191  31.2427048  38.7236765  12.7875244
  30.2844194  39.5281914  13.6392462  77.3318751   3.0658987  14.5005333
  76.4462288   3.4290245  14.4999850  77.8708871   3.7497643  14.8980582
  13.0203462  40.6013107  57.5695944  12.7011716  39.7617197  57.2387743
  13.1504226  40.4556942  58.5066700  30.0403074   1.4874128   8.8144600
  29.1170601   1.7400530   8.8107025  30.4318194   2.0209697   9.5060265
  24.6769337  18.8519934  44.8311102  25.3839497  19.2300156  45.3540480
  24.1340689  18.3836010  45.4652560  57.6104832  61.0069895  59.2522049
  58.1221294  60.2275467  59.0355778  57.0440006  60.7292080  59.9720430
  55.2651099  64.1336848   8.9084732  54.3825702  64.4378974   8.6967909
  55.1362399  63.4926249   9.6075213  78.7257536  16.8274763  21.7216170
  79.0003403  16.3187388  22.4845183  79.4656094  17.4075154  21.5416205
  18.1843428  30.7021597  30.2905619  17.5278048  31.1520079  29.7587549
  18.0525784  29.7736481  30.0989115  56.8401839  42.0651224   1.9659149
  56.9651200  41.5432385   2.7585423  56.4047511  42.8615692   2.2697127
  51.3220119  52.4171972  54.2880201  51.5200901  51.4874983  54.1755104
  50.3783274  52.4436045  54.4461155   8.0430798  35.1952866  24.1365206
   8.5079149  35.8178738  24.6955740   8.6369018  34.4479683  24.0649378
  32.3761463  66.6585207  63.0238724  33.1450152  66.0962629  62.9293251
  32.6405811  67.4929953  62.6366329   8.2706527  12.8774193  17.3700583
   7.9946593  13.7667826  17.1484911   7.5537709  12.3212174  17.0651781
  10.2211289  14.2204216   3.5178721  10.3887991  13.7796048   4.3508160
   9.2782716  14.3854931   3.5197890  19.3923811   3.1168393  29.0562880
  19.9729399   2.9372719  28.3167326  19.9467806   3.0052927  29.8285734
  11.0638670   3.3260849  11.0892641  10.8190540   2.4163869  11.2588179
  10.7187633   3.5080603  10.2151835   3.1058574  47.2451067  62.1711540
   3.9699084  47.2954798  62.5799465   2.4908751  47.3318291  62.8995132
  77.5413282  12.1463850  37.7636873  77.9386433  11.9320897  36.9196188
  78.2753117  12.1574191  38.3779967  48.2910923  28.6816386  15.0846636
  48.2275442  29.3883255  15.7271445  48.9788870  28.1095580  15.4251063
  10.6442495  26.1074615  51.2259293  10.1699396  26.3053250  50.4183960
  10.2243277  25.3158832  51.5625238  74.2455435  64.3135643  61.6365862
  74.0592575  63.8115931  62.4300337  73.5970879  64.0081549  61.0021830
  37.8068686  47.3301411  58.6406898  38.2471228  46.5206385  58.3816338
  38.0172062  47.9509735  57.9431534  66.0849567  12.4419001  26.0973322
  65.4227515  12.8969172  26.6175997  66.9148655  12.8318623  26.3719427
  63.5315259   8.4212664   4.3916142  64.4700046   8.6093405   4.3807995
  63.4531458   7.6234702   4.9146950  23.4389424  74.0854814  19.0127909
  23.6420369  73.3912470  19.6396982  23.4545207  73.6504533  18.1602919
  34.9769358  13.4300545   3.4602129  35.5517153  14.1645745   3.6754811
  34.1062502  13.8208369   3.3865750  42.7945904   2.1026662   9.3053972
  42.4973063   2.5456241  10.1001560  41.9966845   1.9660810   8.7945950
  35.5186482  10.8503846  28.0096686  35.4864915  11.1391047  28.9217245
  35.3693970   9.9058417  28.0520499  47.2405867  27.2374276   4.4862854
  46.3322214  27.0617941   4.7317660  47.7590374  26.7068318   5.0911867
  75.1655515  29.2855147  16.9694102  74.6824105  29.8492936  17.5735247
  75.2724655  29.8163060  16.1800635  72.8196621  55.9683943  58.0971479
  73.2793856  55.5531073  58.8268185  71.9364738  55.6008101  58.1301880
  13.6209635  45.2676705  26.2586081  12.8009848  44.7768525  26.2042010
  13.5717587  45.8967522  25.5388415  18.9175037  29.0232256   9.9270260
  19.8287682  29.2011908  10.1597416  18.5058836  29.8867443   9.8933470
  36.4347959  37.9189730  58.6505890  36.3597083  37.1593022  59.2280817
  35.6563854  38.4424663  58.8410234   3.5269590  54.8771475  57.5083780
   2.9232999  54.4325279  56.9132805   3.4267946  55.8062457  57.3010731
  32.2434998  24.4255567  63.5240507  31.9971848  23.5178947  63.3459663
  31.4124942  24.9002838  63.5412216  78.6151341  49.5870675   4.3246042
  77.7735356  49.5089831   4.7738755  79.2589644  49.6454360   5.0305140
  64.0375546  18.0222084  58.4303904  64.6933631  17.5163413  57.9505539
  63.9494304  18.8343574  57.9315186  13.4835363  66.4015295   2.6074564
  14.0378070  67.0678164   3.0137503  13.9290977  65.5745794   2.7914679
   6.3526849  38.8681725  12.6480067   5.8454875  39.6343592  12.3797858
   5.9669594  38.1420401  12.1579277  55.8068943  57.7333212  50.8667850
  56.2231827  57.0280027  50.3713417  56.1271811  57.6188993  51.7615223
   8.0226970   6.6284419  61.9890594   7.1428323   6.6119911  62.3656273
   8.5801101   6.2444831  62.6658869  45.9471941  46.7513800  61.1100483
  45.9780121  46.3871002  61.9946861  45.0197744  46.9330454  60.9580040
  37.5232653  10.1313952   2.6326334  38.0195431   9.3129090   2.6280463
  37.0425228  10.1153687   3.4601938  55.4926865   4.0238598   6.9559872
  54.8412791   3.4532479   7.3637831  56.0670628   3.4270695   6.4762270
  67.1594457  71.5340068  52.9344618  66.6373805  71.8450405  53.6740172
  67.2800616  70.5994489  53.1026518  60.2885437  69.3493176  55.2841711
  60.7150793  68.4966230  55.3690958  60.6617117  69.8752975  55.9915018
   8.7002703  59.7685146  49.7229195   9.5988032  59.9405241  49.4413567
   8.1621977  60.0149727  48.9706087  69.1613225   2.9026414  53.2563257
  69.3154649   3.1186105  54.1760159  68.2134131   2.7854063  53.1934500
  76.8240364  38.2306841  24.3229067  77.3320802  39.0366104  24.4156897
  75.9244450  38.4904269  24.5216620  15.7627777   5.5464772  10.8272707
  16.2004522   6.1052445  11.4694941  15.1214508   5.0519923  11.3375818
  66.9540338  58.0977132  23.5176623  66.5049342  57.3890473  23.9784586
  66.5124492  58.1498982  22.6700175   0.5149154   6.3752774  22.5228846
   0.9991149   6.4340094  21.6992724   0.6969933   5.4926089  22.8453409
  15.3290800  59.7464112   5.2766049  14.7175316  60.0285653   4.5964348
  14.7863821  59.6414212   6.0580647  35.6985191   3.7985829  17.3044741
  35.6216768   3.7790135  16.3505709  36.6414360   3.8133601  17.4685538
  31.3739876  10.4667309   7.4191391  30.7314638  11.0012654   6.9525873
  31.1825947   9.5694760   7.1461260  74.9764899  35.8161498  64.4485283
  74.2281321  36.3176395  64.7721100  75.5896596  36.4789821  64.1308594
  18.3592991  48.4171131  22.1914923  17.9994349  47.7740219  22.8023684
  17.6152042  48.9751461  21.9653094  43.2534313  46.9883060  64.1297960
  42.5829649  47.5532103  64.5139790  43.7047005  47.5478888  63.4977770
  31.3191009  63.3845426  25.0521528  31.0561252  63.0017163  25.8891260
  31.2364459  62.6669814  24.4240534  42.2057390  43.7746668  55.3082132
  42.6311111  43.0024767  54.9353790  41.6114950  44.0760279  54.6209860
  22.1139503  73.6133959  38.1261503  21.6741872  74.3169977  38.6034167
  21.6572499  73.5720422  37.2859442  23.2622627  14.5790556  20.9887755
  23.5691027  14.3979052  20.1003706  24.0503267  14.8385790  21.4660990
  62.1625117  11.6064502  63.1633234  62.5373081  11.0559799  63.8508892
  62.5330309  12.4744941  63.3228683  10.1393036  23.5605029   5.9586489
   9.3487982  24.0630797   6.1554920  10.7456831  23.7812069   6.6656363
  38.0559734  17.6520756  15.2420676  38.4094290  18.4253577  15.6817686
  38.8128046  17.2544554  14.8115647  70.9390382  73.8281156  15.9356844
  70.8202676  73.3560254  15.1115143  71.6647319  74.4285919  15.7653200
  52.7552275  24.5215109  17.8661692  52.8334478  24.7633389  18.7890017
  51.8440680  24.7136906  17.6446020  45.9720663  29.2691115   9.9113095
  46.6096405  29.5877579  10.5502093  45.5241875  30.0580338   9.6059525
  72.8185300  10.2312995  58.3886719  72.7210454  10.6029178  57.5119591
  73.4980515   9.5641376  58.2918215  61.7309312  12.4321605  48.8781881
  62.4944595  12.3648788  48.3048391  61.0786418  11.8580390  48.4767723
  20.8164430  58.7083769  63.2414579  21.6969419  58.9248848  62.9347372
  20.5854201  59.4254684  63.8319111  32.0736507  34.1951302  19.4332564
  31.4379887  34.4485167  18.7639582  31.5833048  34.2297295  20.2545893
  39.2025558   1.9294120  63.7018585  39.1127745   2.8778936  63.7943411
  38.4143905   1.6590263  63.2307768  29.6994213  14.3660668  14.9640047
  29.1854862  14.8162821  14.2936241  30.3723387  14.9988297  15.2150547
  45.4313997  14.4837883  21.2018740  44.7219137  14.3227604  21.8239081
  45.1017431  15.1839617  20.6385672  76.5393122  28.5323265  25.8075106
  77.0044024  27.6975802  25.7516634  77.0532902  29.0519980  26.4255678
  64.7515965  33.6353970  34.6575260  64.4421768  34.4848895  34.9719334
  63.9735174  33.0779910  34.6686435   6.5451173  19.8429850  19.6757853
   6.2389306  20.5048922  19.0558207   5.8900312  19.8472813  20.3736937
  72.0021915  64.6911526  51.8785620  72.2587204  65.2031469  51.1115646
  71.5469503  63.9305019  51.5174580  63.3365011  57.7223301  62.1881580
  64.1089344  58.0419588  61.7218781  63.6869907  57.1352434  62.8580189
   0.1562973  52.9649852  62.3292971   0.2772351  53.5251568  63.0959892
  -0.2215580  53.5436843  61.6670561  31.8374276  69.4831062  14.3331253
  32.1243095  70.3637910  14.5746290  32.3861885  68.9001537  14.8577797
  50.0108910  13.4122431  42.4451637  49.8533249  13.8137937  43.2996559
  49.3989038  13.8539541  41.8564415  49.8605780  59.9023439   6.9531023
  50.6713537  60.3292324   6.6762650  49.1651634  60.4456260   6.5823281
  47.3321775  74.1036655   0.3204453  46.9320229  74.3789365   1.1452687
  47.5911621  74.9212267  -0.1047123  78.7531757  74.5034009  53.4282875
  78.4391880  73.8776824  54.0810680  79.7027540  74.3832365  53.4186459
  30.5404329   6.3731468  25.6437778  30.7936025   7.1445662  25.1367784
  29.5875072   6.3348931  25.5619240  44.9065924  10.0141561  60.4684591
  44.0149403   9.8085111  60.7493448  45.3052092  10.4384434  61.2282753
  60.6831435  61.2588360  12.2632563  61.1471013  61.5395166  11.4744627
  60.6085304  62.0528747  12.7925646   7.3182555  68.9338420  28.0143189
   7.0809647  69.1356127  27.1092129   6.4839335  68.9202283  28.4833121
  49.5548950   5.5329684  38.4405672  48.7746360   5.1359681  38.0534994
  49.9538128   4.8284939  38.9512694  60.7000760  36.4191287   9.3178379
  59.8209290  36.7940434   9.2651999  61.2135724  36.9230926   8.6865103
  63.6505918  38.7684697  19.2577231  63.4414653  38.2012670  18.5155833
  64.5554093  38.5487114  19.4796335  58.3917242  37.1786212  51.2101650
  57.4725848  37.0200609  51.4252758  58.5469067  36.6568302  50.4228401
   8.9856645  73.6067223  53.9317751   9.3331286  72.7175339  53.8621807
   9.6964832  74.1113789  54.3271065  74.3549851  66.9347979  17.3553145
  75.2621726  67.0469667  17.6393378  73.9387015  66.4511611  18.0687868
   5.9893251  37.3009939   6.5789664   5.1870036  36.7792140   6.5627825
   5.9256864  37.8132238   7.3850691   6.8060994  63.8533284  19.9221575
   7.7100301  63.9796640  19.6337473   6.8817592  63.3551146  20.7359659
  34.4598267  47.1261610   0.6024134  34.5995954  47.9068341   0.0664627
  33.8776241  46.5765663   0.0778019  45.3987026  25.0896144  55.2557850
  45.5775404  25.9746337  55.5735683  45.0923777  24.6149969  56.0285282
  58.0918650  66.9015147   0.2430737  58.2778100  66.8289735  -0.6930864
  58.7348465  66.3280370   0.6601202  64.5079497  30.9640582   9.4859564
  64.5517019  31.8051161   9.0310490  65.0734095  30.3853961   8.9744484
  74.9489975  68.0310242  64.0566111  74.4166207  67.4915658  63.4719849
  75.7131553  67.4890547  64.2529917  40.9841660  16.9731666  11.9696772
  41.4606778  17.1337630  11.1551964  40.8970801  17.8379287  12.3707163
  56.1533260  13.8573480  61.7000628  56.0953999  13.2800615  62.4613905
  56.9758797  14.3316591  61.8211651  76.7113955   1.5226439   4.8556101
  77.3663576   0.8413628   4.7035753  76.0785397   1.1183051   5.4491007
   0.8581825  72.8506908  35.1425219   1.7550536  72.8307282  35.4763699
   0.6113430  73.7749739  35.1741934   2.5853372  53.8247075   0.7193053
   3.0232167  53.5723593   1.5322125   1.8232560  54.3289282   1.0043061
  11.0944506  61.5732597  45.7571030  11.0507318  62.5287520  45.7203102
  12.0311662  61.3765954  45.7678938  19.1704532  71.2712540  61.6472292
  18.2163116  71.2994735  61.7182684  19.4750424  71.1743723  62.5494862
   9.2951922   2.6702693  22.1434557  10.0480131   2.0803336  22.1051371
   8.5669474   2.1517995  21.8012869  48.1292629   2.9939425  36.3066697
  47.2761106   2.6780680  36.0090303  48.1137180   2.8677607  37.2553897
  63.5392415  51.6117357  27.8699088  63.3920586  52.4208187  28.3597565
  64.0500355  51.8830608  27.1072125   1.5382791  64.2497422  12.7827370
   1.8645930  65.1465299  12.8570521   0.8260274  64.2004325  13.4203112
   3.4882001  36.3318640   2.3666775   4.1900996  36.9799981   2.4257576
   3.8923053  35.5140718   2.6567614  71.7138032  66.6553189  22.2276747
  71.5220384  67.2713973  22.9347098  72.5801257  66.3084032  22.4406683
  40.4689693  19.0674245  61.5695906  39.8771715  18.3484471  61.3480568
  40.0779152  19.4691193  62.3454428  37.0007157  10.1629186  59.1352797
  36.5909529  10.6273603  59.8650885  36.2955856   9.6343297  58.7616253
  55.0069666   1.1625390  56.1835575  55.7229328   1.2475301  56.8131638
  54.2127132   1.2328470  56.7131329  78.6781959  59.6074488  28.7034857
  78.5878114  60.1636769  27.9297507  79.4877700  59.9046137  29.1188395
  55.6256533  19.1054773  56.9915295  55.5851698  19.2672050  56.0489607
  55.4420662  18.1704342  57.0822096   1.1353823  29.2571831  53.4255028
   0.3039261  28.9185715  53.7575436   1.7895456  28.6298990  53.7334251
  34.6699929  15.7378757  28.9410686  35.1029706  16.5802824  29.0793276
  35.3145409  15.2122033  28.4672976   7.7516914  31.5809603  12.9693424
   7.7718330  32.4909155  12.6730215   7.1695924  31.1403074  12.3502981
  13.4508082  43.9099884  51.4606428  13.1871840  43.6548948  52.3447609
  12.9448458  44.7019720  51.2789774  15.8493578  16.2813032  54.4594145
  15.2466595  16.5127552  53.7527180  15.4024184  16.5635300  55.2574253
  57.4392656   9.4617426  53.4850931  57.6770595   9.8317581  54.3352556
  57.4444441  10.2100837  52.8882790  52.8963518  40.2536297  60.9370184
  53.0638504  39.4247961  60.4884529  52.9029894  40.9090900  60.2394772
  79.0964826   9.3029383  14.8853791  78.5191448   9.6343974  15.5731547
  78.9882453   9.9215964  14.1630375  42.7049843  35.4613011   8.7784397
  43.5698894  35.4475160   8.3685839  42.8535000  35.8555057   9.6379626
  49.1602043  47.7895202  10.0776970  49.9814419  47.7776911  10.5692827
  49.3701414  47.3566284   9.2501890  66.2287144  67.6474239   5.4066241
  65.7744531  66.9906547   5.9343874  65.5409006  68.0405285   4.8693955
  55.6653837  35.7264512  29.9870360  56.0685758  36.1222482  29.2143690
  55.6426457  36.4321246  30.6333601  61.0472039  49.8630931   6.5019238
  61.5279011  50.1612200   5.7297289  60.1842836  49.6188428   6.1673462
   3.8434692  42.7296399  56.3916922   4.5215746  42.5720213  57.0486259
   3.5864278  43.6417197  56.5268660  39.5021025  63.0548860   5.6090271
  39.8759214  62.3625900   5.0638497  39.4047932  62.6534988   6.4725363
  19.6330694  10.2975109   1.7701399  19.3034367   9.8426512   2.5451767
  19.2229942  11.1616352   1.8070709  43.6628675   3.3132252  50.5998564
  44.5145416   3.7292758  50.4665089  43.3760691   3.6244556  51.4584112
   4.6789173   8.0276564  31.6344225   4.7449187   7.0771387  31.5428316
   5.0386075   8.2101754  32.5024950  34.3651197  50.0231542   6.7595351
  33.8156179  50.6004872   6.2294686  34.1328029  49.1404035   6.4714157
  28.4113860  26.4774966  48.6834764  27.7743340  25.8450270  49.0157127
  27.9786968  26.8803549  47.9306698  51.1931229  28.2543778  49.4568920
  50.7479906  27.5186825  49.8774147  50.5013180  28.8985848  49.3064499
  71.7468909  55.8282127  15.3587353  71.3623790  56.6176321  14.9776852
  71.2079505  55.1125731  15.0216353  10.1389285  60.8704446  38.2224202
   9.9200936  60.5206750  37.3587060  11.0476109  60.6054567  38.3649373
  10.2727004  72.7353290  43.2232332  10.8388206  73.5057975  43.1772041
  10.5170675  72.2125892  42.4595213  44.4460300  65.1017382   0.1015532
  43.6997036  64.5031263   0.0716603  45.2086286  64.5296528   0.1875412
   5.0370669  53.1353273   6.1166012   5.0426793  52.4321069   6.7659724
   5.9509921  53.2168807   5.8439696  49.2300367  15.5861104  61.9107008
  48.4600735  15.5695701  62.4791336  49.4044399  16.5168166  61.7706966
  16.3177892  55.9221123  49.2709637  16.7817803  56.5273129  48.6924505
  15.6273719  56.4526652  49.6685410  72.7691968  66.5074493   6.9140589
  72.8432234  66.6919853   7.8503811  73.6525233  66.2499549   6.6501200
  30.5091424  34.5236041  17.0037234  30.5677498  35.3866925  16.5939963
  31.1462007  33.9894845  16.5292704   9.3733269  27.2324228  44.5694637
   8.7645859  27.3960137  45.2898169   9.8194659  28.0690622  44.4382143
  12.5156709  60.5306791  35.0326180  13.0567308  59.7442518  35.1034665
  12.9867931  61.1919962  35.5395055  74.3330029  73.5764434   0.1982558
  74.9390582  73.5587146  -0.5424297  74.8908261  73.7315013   0.9604990
  10.5866790  58.6856534  24.8971808   9.6335578  58.7136604  24.8134672
  10.7428098  58.1617906  25.6829417  50.0786904  12.3751189  28.4459460
  50.9548620  12.3131325  28.0655348  50.2325682  12.5419523  29.3758452
   7.5492927  65.1911245  35.2211738   8.3622643  65.6265335  35.4775453
   6.8911429  65.8860456  35.2337360  63.7625007  72.3898246   4.6481287
  64.1706637  71.5820386   4.9597609  64.4809154  73.0210783   4.6077740
  34.5202122  27.9063042   9.0835392  35.1015452  28.5105528   9.5452416
  33.7214492  28.4114172   8.9316523  24.3559241  17.5697649  58.0128527
  24.5813441  17.7989745  58.9144516  23.4251237  17.3491919  58.0473661
  71.0829834   5.2015856  40.1161539  72.0340923   5.3083638  40.1015818
  70.9030155   4.5633295  39.4258749  59.0583829  65.6505372  22.3839819
  59.7637419  66.2118675  22.0620978  59.3225221  65.4211094  23.2749521
  21.6577295  11.4894083   7.7550280  22.0445685  10.6948546   7.3872339
  20.9369520  11.1745242   8.3005202  79.4196319  66.6460507  51.0606432
  78.7323284  66.2188988  50.5493832  79.2454743  66.3817655  51.9640017
  68.1739644  70.7522394  24.6317827  68.6706332  71.5680816  24.6946585
  67.3410586  71.0087945  24.2359507  10.9412098  66.9059778   1.4346039
  11.8316245  66.8919206   1.7855990  11.0342908  66.5983463   0.5329764
   0.0426889  61.0703947  11.6947615   0.6369090  60.5834271  12.2657215
   0.3710580  61.9692065  11.7180693   5.0457601   7.8004530  15.0455296
   5.7903174   8.4013012  15.0164807   4.7566656   7.8212288  15.9577906
  73.3912591  36.1456746  10.1904404  73.2353238  36.0036090   9.2567742
  72.7762584  36.8377607  10.4333985  76.8878726  46.7345818  23.9044249
  76.0806493  47.1005787  23.5429442  76.7517261  46.7436530  24.8518526
  48.1756882  70.8037545   2.8488457  48.9277009  70.2342441   3.0112231
  47.4477438  70.2013947   2.6955807  72.3258809  57.8531815   9.0161335
  71.6546277  58.2775428   8.4817469  73.1119613  57.8688456   8.4701836
   2.3681474  28.6209293   3.7841952   1.9892240  28.6864634   4.6607506
   1.6763044  28.2266315   3.2530510  48.8648748  11.1913061  40.7236290
  49.3835926  10.6506550  41.3193274  49.0812111  12.0913482  40.9672546
   5.9081626  51.0749962  23.7124312   5.1161504  50.5557002  23.8512861
   6.5880084  50.6100025  24.2001021  66.5317011   0.7718136  42.5070572
  66.9285631   1.5001966  42.0293617  66.9130898   0.8240209  43.3834410
  47.0381335  41.2999456   1.1737978  46.1423890  41.3504176   0.8401406
  46.9700436  41.5810956   2.0862400   8.1240507  39.3890405  50.1687288
   8.5535761  38.8276052  49.5233345   8.2264277  38.9222836  50.9981203
  57.9612235  60.4960849   6.3872206  58.2531146  61.1121704   5.7153046
  58.1030134  59.6329071   5.9985649  33.3999729  53.7570238  60.2994585
  32.5378752  53.3994532  60.0869465  33.5223532  53.5522127  61.2264442
  52.9850674  35.2064705  52.4849558  53.2318163  34.4523621  53.0203676
  52.2031927  35.5573606  52.9113054  50.2904657  57.1799077  21.8815291
  50.7957081  57.2981479  22.6858771  50.1970080  58.0634357  21.5253317
  77.8283620  62.4416624  30.0553036  78.5445499  62.8031121  30.5774760
  78.1330919  62.5106667  29.1505337  62.9749572  72.5879082  57.9658508
  63.8665986  72.2929971  57.7808237  62.9368174  73.4747316  57.6076317
  10.6942153  48.8551225   5.3809082  10.9200502  48.6341824   6.2844670
   9.7526336  48.6929931   5.3228724  58.6450104  17.8634393  53.6190939
  59.1491274  18.2188630  52.8871298  58.2612876  17.0563650  53.2761335
  15.3492606  34.9745083  38.6316442  16.2195206  35.1362824  38.2673550
  14.7457457  35.3001857  37.9638600  44.4341067  71.6690447   5.7618630
  45.1747910  72.2687079   5.8514225  44.3514935  71.5296676   4.8184740
  78.3882284  22.4133968  58.3054924  78.8425112  22.5480056  59.1372013
  79.0657663  22.0889544  57.7122736  48.8483381  32.9768729  63.2664442
  48.6585474  32.3092747  62.6072598  49.3328714  32.5101852  63.9473724
  58.1210327   0.9812941  31.8231177  58.8611555   1.5225023  32.0979810
  57.4244452   1.6086067  31.6295338  35.1823846  53.3164527  15.5850947
  34.7552250  53.1973888  14.7368061  35.3382573  54.2590012  15.6445753
  45.2082828  54.4990720  11.0952818  44.4688252  55.0711562  11.3005936
  44.8098592  53.6470069  10.9178698  54.3597297  57.5999572   2.3979819
  54.5118956  57.1820976   3.2456076  53.8009314  56.9839527   1.9241488
  28.2469702  21.3529062  44.0543842  28.1153679  20.8436656  43.2546425
  28.7668180  20.7813430  44.6194553  12.0828629   2.9263315  44.2668295
  11.6598141   2.6896402  45.0922012  11.6005278   3.6949831  43.9622641
  39.7491125  39.0104227   6.4452994  38.8949076  38.8799385   6.8570482
  40.3665046  38.5709805   7.0300638  49.7686768  35.6325698  62.9050970
  50.5893898  36.1160755  62.9993343  49.9743843  34.7494626  63.2117558
  68.2861260  49.3141117  11.8511927  67.5023965  48.8749959  11.5207779
  68.2090978  50.2134325  11.5325653  69.8618603   2.3954517  31.4597225
  69.6318579   1.8246615  32.1928859  70.8188868   2.3892982  31.4424586
  22.3573688  69.2571856   0.9225523  22.3622394  69.9284388   0.2401840
  22.2785703  68.4311487   0.4453909  20.6876493   4.7486362  60.0849867
  20.6847811   5.4078603  59.3909788  21.5203905   4.8813397  60.5379391
  19.8648560  51.2237835  63.3210087  20.0223541  50.3905153  62.8770638
  19.1354764  51.6165495  62.8414536  10.6606972  26.5487266  61.2758303
   9.7885799  26.8486094  61.0194874  11.2348378  27.2903156  61.0844183
  19.0225255  18.0346429  58.1089020  18.8969994  18.9731002  58.2495213
  18.5203791  17.6182210  58.8093853  62.6776075   7.2727084  54.0918732
  63.2852459   7.6469707  54.7297859  62.2990131   8.0315220  53.6479139
  70.0883198  48.7021802  60.5136776  70.5746996  48.1597756  59.8928213
  69.9885428  48.1487535  61.2882710  79.2981605  56.3727357  20.6990206
  79.3033341  55.7405188  21.4177096  78.4333924  56.2751653  20.3004133
  77.1273307  60.5788829  40.8711302  77.5684670  60.0141909  41.5057623
  77.7753238  61.2499167  40.6565344  16.8652797  13.9189303  42.3125219
  16.5609515  13.1278980  42.7573633  17.1171355  13.6204207  41.4386272
  41.7177153   4.5159367  47.6146984  42.4163818   5.1528472  47.7645111
  40.9507322   4.8967099  48.0424643  61.6160969  27.9893329   2.3884260
  62.3527435  28.5676171   2.1905052  61.8796853  27.5300105   3.1857836
  12.8783679  26.1492658  63.0633783  13.2337904  25.5577087  62.4000788
  12.0321250  26.4241147  62.7104425  21.8493561   7.4648646   9.3851006
  21.1547283   8.0075386   9.7582352  21.4101080   6.9406155   8.7154305
  70.8677272  63.2974483   1.9303858  71.5326385  63.4459354   2.6027548
  70.8858708  62.3522784   1.7802059  15.3730166   2.1712835  52.2087193
  14.7428429   1.8983273  51.5419292  15.6170130   3.0620620  51.9573021
  73.7843180  60.7645498  43.5489607  74.5910978  60.9229098  44.0391207
  73.0878544  60.8497928  44.2000389  64.1215567  22.3085441  18.9835036
  64.2203764  23.0591788  19.5691836  63.2081083  22.0421018  19.0876734
   0.7123180  47.4943517  59.6777678   0.7546993  47.0638155  60.5316257
   1.3007971  48.2449506  59.7585297  23.5656214   9.1888148  41.4777374
  23.0009937   9.1362166  42.2488785  24.3950605   9.5310652  41.8110943
   6.5509486  48.2192232   1.6800415   6.4549184  48.9517130   1.0713780
   7.4696326  47.9619517   1.6021502  29.4873012  16.2454082  22.0164168
  30.3354970  16.5498712  22.3390639  29.2360685  15.5491568  22.6233351
  53.9621309  49.0812959  17.8064787  54.8176412  49.2889895  17.4307215
  54.1418795  48.3901121  18.4438097  48.8873342  18.6129202  16.0547125
  48.0986527  18.1774725  16.3781321  48.8484577  19.4911375  16.4334643
  66.7530095  58.8733338  31.1608911  67.1709263  59.6267854  30.7438922
  66.7874348  58.1832992  30.4983974  21.9959116   5.4198444  32.3760605
  22.7951193   5.9462082  32.3970151  21.2893677   6.0603505  32.2937155
   9.7833463  71.4753606  61.5546989  10.2319165  72.2130968  61.9679308
   9.0769692  71.8773337  61.0490465  67.1221852  74.1320041  39.9674082
  68.0641305  73.9980400  40.0724077  66.9273341  74.8972830  40.5083466
  72.8392100  40.9447931  58.7749434  72.6635289  40.9707044  57.8343582
  73.5779834  40.3427194  58.8641119  52.2605896  16.4587080  37.1417737
  51.5824556  17.1226084  37.2666788  52.1905899  16.2155604  36.2186217
  13.4578037  29.7060275  49.2213202  12.6826251  29.5437956  49.7589159
  13.2121968  30.4440475  48.6634350  67.1679497   4.6551546  60.3496504
  66.7179537   5.4568928  60.6160212  66.5835857   3.9493036  60.6262779
  66.5784339  24.8234071  12.8545773  65.6716923  24.9805548  13.1179392
  66.9837932  24.4184555  13.6213410  12.4905706  68.1799652  11.4965737
  13.2087445  67.8130366  12.0121491  11.8053222  68.3656694  12.1385872
  62.3291520  39.3267808   8.6390650  62.1349529  40.0732975   9.2058384
  63.0021886  39.6496602   8.0398953  68.3492708   8.3568615  60.6354094
  69.2401361   8.4922826  60.3125286  68.4653473   7.9861253  61.5102291
   8.6898399  61.0628726  27.2661173   8.4861684  60.2325537  27.6966059
   8.4229159  61.7315080  27.8969157  67.0278338  14.5663263  15.0999176
  66.3987473  15.0561144  14.5702088  67.8827218  14.8933961  14.8198759
  36.6990423  25.8696461  60.6565332  37.2904277  26.0344720  61.3909245
  36.3549304  26.7330384  60.4276800  43.7687111   6.2535667  36.9582105
  43.0480623   5.8231592  37.4182606  43.6963034   5.9428424  36.0557461
  38.3594886  72.7798154  28.4175169  37.8301922  73.5678770  28.2948935
  38.1271974  72.2178580  27.6782763  64.3341307  61.2870814  33.5863364
  65.1675800  61.7239000  33.4108889  64.5708016  60.3724386  33.7401163
   2.5710273  38.9386350  10.3283179   2.5843072  37.9838297  10.2619707
   2.0549417  39.2239622   9.5743429  64.8884467  49.6409525   2.9726994
  65.5928306  50.2886345   2.9968941  65.2398232  48.9246001   2.4439204
  13.0172257  14.2066697  21.4812147  13.6018614  14.0549878  22.2237932
  13.1552652  13.4514454  20.9095347   3.4196210  55.3084888   6.2991154
   3.9435029  54.5103099   6.3675797   4.0641475  56.0132243   6.2346184
   8.0634932   0.4637173  38.0749190   8.8135342  -0.0259778  37.7374804
   7.8950814   1.1318162  37.4104559  24.4742942  46.2189007  63.3844948
  24.0502667  46.6240835  64.1409779  25.3873634  46.1112928  63.6508751
  56.6890860  10.6866670  33.3681393  57.2297382  10.7576561  34.1548324
  55.8860397  10.2600896  33.6671019  78.4987211  19.5740569  29.5556235
  77.8122711  20.0037003  29.0453053  78.5079241  18.6726904  29.2336178
  74.1739138   1.6886929   3.0956423  75.0202902   1.5956691   3.5329354
  73.7627466   0.8288577   3.1842720  23.4845022   6.2034491  10.9025299
  23.2877974   5.3554467  10.5044949  22.9494623   6.8278817  10.4125798
  10.1298595  72.5077917  10.3451597  10.8468175  73.0776717  10.6234467
   9.3625140  73.0797054  10.3270876  18.7721157  45.0720024  53.2309151
  19.1747582  45.9400320  53.2057381  17.8500974  45.2411890  53.4245348
  49.2740774  48.7742329  60.8171415  49.1024828  49.0060854  61.7298460
  48.7539721  49.3974447  60.3098583  13.8339683  74.4375766  60.2186871
  14.3377753  73.7189621  59.8365784  13.9824744  74.3596231  61.1610794
  72.6786546  30.4732360  12.5074064  72.0383433  29.7850313  12.3268378
  72.4861888  30.7504131  13.4031546  45.6186104  24.5320773  63.4357643
  45.3001595  24.2605114  64.2966175  45.2804565  25.4206347  63.3246565
  15.8811430  18.4896782  25.8320963  15.4115299  19.2679671  26.1320364
  16.5960650  18.8330248  25.2961600  13.0646773  74.2750488  40.2071762
  12.2234484  74.3842358  39.7637320  13.6345120  73.8816352  39.5463109
  76.5119723  48.6504831  41.5373862  76.7737321  47.7297701  41.5374434
  76.8219356  48.9876606  42.3779070  64.8000820  34.3502024  13.2031882
  64.8986562  34.4112471  12.2530377  65.6833275  34.4889763  13.5450232
  62.5721673  64.9344136   1.7865145  61.8154005  65.4514744   2.0625317
  63.1786946  65.5760624   1.4168608  74.8440552  29.7416711  63.9292383
  74.9432278  29.2543793  63.1113482  75.5771971  29.4509435  64.4716549
  69.5521525  62.7556111   4.7020685  69.3872146  62.0958163   5.3756392
  70.1667718  63.3657052   5.1098263  14.7790182  17.4002481  43.2706213
  14.3687785  18.2428110  43.0756283  14.1162384  16.7509735  43.0352545
   4.8432946  73.2799651   0.8903038   4.4137502  73.8882186   0.2888453
   4.1225934  72.8348901   1.3360893  60.9365749  14.0037239  45.9553242
  60.1008797  13.6050498  45.7126188  61.4206696  13.3005095  46.3881922
  55.7534695  29.2694473  57.1838140  55.9927940  29.3951774  58.1020451
  56.5888786  29.1449785  56.7334461  72.9467181  62.1769525   7.4415695
  73.8229636  61.8190338   7.5841152  72.3561124  61.4495828   7.6373970
  47.7451948  20.2451876   1.9359267  48.1093554  20.0823906   2.8060496
  47.0320419  19.6121958   1.8524801   6.1162734  65.3751780  23.6192381
   6.5832687  64.6621158  23.1836951   5.5702567  65.7583954  22.9327643
  74.6225480  59.6660258  39.5444548  75.3437022  59.9114325  40.1240599
  73.9203242  59.3968155  40.1366007   2.0819831  35.3506877  26.2517226
   1.7591977  35.6571180  27.0991575   3.0324245  35.4496457  26.3074267
  57.2121620  39.3419242  44.7243118  57.4571228  39.4975734  45.6364536
  56.6088867  38.5996985  44.7616386  69.8759087   4.9229315   8.9249861
  70.7462056   5.2811316   8.7503206  69.8402138   4.8340205   9.8773777
  54.1304111  31.8741441  57.9093790  54.8897743  31.3861632  57.5908184
  53.4612751  31.2059283  58.0576086  61.8129829  64.4323995  20.5789816
  61.1281804  65.1010086  20.5634558  61.4261893  63.6828353  20.1264632
  13.2642484   6.0227229  31.7915022  13.9611268   6.6331603  32.0322573
  13.3179116   5.3273322  32.4470865  27.6272062  15.8657435  13.6106074
  26.8778233  15.4837063  14.0674507  27.4217514  16.7987994  13.5520279
  55.6738547  45.7219853   5.8311665  55.0966886  45.5825802   6.5819514
  55.6508140  46.6674687   5.6836474  46.5040874  33.2496095  53.5960007
  46.6820526  33.9954877  54.1689110  47.1352100  33.3400536  52.8820372
  52.1949533  60.1247003   2.4679482  52.7292279  60.9074809   2.6022589
  51.4002136  60.2870609   2.9761421  16.6313005  73.6363532   2.6941263
  16.6731000  74.2255928   3.4473097  17.3336578  73.0038955   2.8455555
  13.5506725  37.2566724  33.5578418  12.8678405  36.6136789  33.7489676
  14.3321872  36.7318153  33.3846664   7.4582199  14.7248009   3.5400259
   6.8493060  14.0377787   3.8110506   6.9108299  15.5033663   3.4378922
  67.9598073  61.6909911   0.2931797  67.0377950  61.6641905   0.0374424
  68.1142262  62.6035692   0.5372917  38.2838658  56.0091378   3.2075846
  39.0540151  55.5357208   2.8929770  37.9037169  55.4338135   3.8714516
   4.0644336  67.2338273  18.6676848   4.8229098  66.6509964  18.7030375
   3.3098722  66.6448929  18.6622870   0.8875251  33.2092984  28.6520827
   1.0428357  32.8728892  27.7695048   0.5486226  34.0939387  28.5150110
  63.5416321  42.2879248   5.1828730  62.9864935  42.9925533   4.8488819
  64.4288448  42.6456364   5.1493037  17.2648768   2.2740963   7.1725905
  16.9966177   2.9349354   7.8109944  18.2214741   2.2840980   7.2050869
  18.8419124  72.1142131  56.5848541  18.9806243  73.0204024  56.3095140
  18.5859605  72.1799338  57.5048542  21.0235190  74.0778043  19.9397433
  21.2504840  73.8662292  20.8452570  21.8627620  74.0925075  19.4796431
  69.5057706  66.0120656   8.5007441  69.3608979  66.4235236   7.6487219
  70.2619819  66.4730575   8.8638651  20.9685493  67.4550106   9.6061718
  20.6006885  66.9136693   8.9077008  20.8498216  66.9342853  10.4005158
  42.3251823  30.4367903   0.8240330  42.8316502  30.9719351   1.4350521
  42.9066662  30.3149823   0.0735199  78.6595944  47.5427641  11.4149678
  79.5940856  47.6980819  11.5522110  78.2996825  48.4072914  11.2167609
  70.4919080  74.6300508  37.9722464  69.6627263  74.9940898  37.6621496
  70.7660560  74.0322639  37.2767412  62.8527907  61.6684820  30.2587473
  62.8075913  62.2648765  31.0060847  61.9642953  61.3225343  30.1743185
  48.3557510  36.2991548  60.7677555  48.8622141  35.9396720  61.4961052
  49.0102386  36.5094948  60.1016998   8.8907695  41.3511484   3.9920676
   9.6933389  40.8818855   3.7642300   9.1401553  41.9082003   4.7294533
  31.1635423  16.5339637  57.2204065  31.5069461  16.2078464  58.0522394
  31.6937375  16.0963523  56.5543556  60.4455042  43.4043264  58.1747437
  60.5981922  42.7499104  58.8563967  60.7662868  42.9933357  57.3719883
  51.0434723  22.1070337  54.6735430  51.5440655  21.4120770  54.2461348
  51.6745377  22.8162718  54.7958612  57.8725866  38.9639470   0.5444348
  57.3810080  39.6326991   0.0676214  58.5348824  38.6640378  -0.0781811
   1.8120007  11.1750153  10.6887066   2.6374225  11.2131432  11.1718857
   1.9547395  11.7356852   9.9261391  57.1885780  61.3014485  15.6141817
  56.7630486  60.4450323  15.6555044  57.4446515  61.3976552  14.6968996
  52.5279284  10.3883791  61.9268465  52.1032715   9.5957488  62.2549295
  51.8250704  11.0368109  61.8848896  25.5401615   2.3857597   0.7461512
  24.6974711   1.9933489   0.5178511  25.3236345   3.0607823   1.3893378
  33.2027769  50.7305861  63.5780764  33.5967159  51.3090801  62.9250908
  32.4383879  50.3583908  63.1382895   9.6041560  55.3016903  17.0932925
  10.1230073  55.9037461  16.5598547   9.4759441  54.5356752  16.5338194
  59.7969389   6.3677216  43.8395214  59.9174976   6.8898189  44.6326876
  59.7277403   5.4664057  44.1542768  69.5322132   7.6443195  49.0794849
  69.5560646   6.6877341  49.0548277  68.7073755   7.8521037  49.5184565
  -0.0967093  10.9924868  12.9884207  -0.0268885  11.9048146  13.2695162
   0.6144599  10.8811692  12.3574841  53.1708717  14.7387278  55.3205347
  53.9443827  15.1592267  54.9449062  53.5156202  14.1854513  56.0214376
  69.9955634  52.6316525   3.1355822  69.6650485  52.5683619   2.2394860
  70.2620391  53.5463013   3.2285416  33.2531691   4.7094977  54.4172812
  33.0787373   3.9038339  54.9038124  32.5076365   5.2758056  54.6165466
  38.8782763  45.8452511  56.7166424  39.6762156  46.2734556  57.0267487
  38.5059857  46.4608526  56.0852432  72.1642403  18.4299067  19.0287745
  71.6404251  18.9329270  19.6523344  72.6916794  19.0867785  18.5742819
  51.6886234  18.6542034  40.1231766  52.2192717  19.4293308  39.9392700
  51.1872435  18.5112166  39.3204260  57.9004717  31.2227845  60.2030849
  57.6921082  32.0877433  59.8500109  58.2230663  31.3964152  61.0873985
  58.2277683  17.9680470   3.2494795  57.7357487  18.4140900   3.9388239
  59.1434006  18.1751612   3.4364140  10.4855637  11.1971215  20.8527148
   9.6598748  10.7440880  20.6817591  10.8869843  10.7020644  21.5668642
  55.6351761  57.8534438   6.1681854  55.3206805  57.0851733   5.6916535
  56.5874676  57.8178741   6.0781538  62.0380926  17.3942256  53.8216925
  61.9841242  16.6776609  53.1893539  61.6633368  18.1465685  53.3636856
  22.0499472   8.8442734  12.6244223  22.6129011   9.0850237  11.8886578
  21.1923746   8.6883381  12.2288382  27.0795874  52.2146787  30.9693396
  27.6348714  52.3179151  30.1965296  26.7385466  53.0929639  31.1382830
  15.4866842   1.8209818   1.0143721  14.8863415   1.0982278   1.1972487
  15.9874872   1.5294317   0.2525103   3.4031606  60.3019740  17.0935309
   3.2919335  61.1892583  17.4349844   3.7876153  59.8120477  17.8204405
  29.5399956  18.9617327  12.6112568  28.6348871  18.7741307  12.8598845
  29.4938282  19.1698006  11.6780865  45.0044322  65.0073292  32.9153025
  44.9164558  65.3415896  33.8079130  44.4065261  65.5465271  32.3976099
  48.8248110  25.0702763  53.1449556  48.1305933  24.4222355  53.2646656
  48.8295269  25.5698299  53.9614439  73.6512498  65.8101775  14.8964798
  73.4863595  64.8739554  15.0084221  73.8650207  66.1225273  15.7756674
  11.0252583  41.9408751  51.6160393  10.7660758  42.5108910  52.3400164
  10.4347551  42.1782589  50.9010696  52.9662275  37.5024700  56.2777615
  52.9383850  36.6363001  56.6842222  52.3515177  37.4437022  55.5463839
  76.7928219   6.2877500  43.4977770  76.5906572   7.0493305  42.9543066
  76.2436104   6.3950974  44.2743540  75.1743440  34.2036797  22.8680479
  74.7567729  34.6847673  22.1536124  74.5075683  34.1667788  23.5538161
   2.2223064  58.8724016  55.4282665   2.8890606  59.4763266  55.1012421
   1.4077993  59.1743074  55.0261879   2.3481635  28.9435032  15.6814730
   2.9783014  29.2708424  16.3233530   2.8015045  28.2204512  15.2479851
  12.9557630  69.1190402  40.8661985  12.9548856  68.1784891  40.6884480
  13.8817998  69.3458258  40.9513950  33.0375075  41.5371527   1.7127192
  33.4835315  42.3085340   2.0623791  32.1070171  41.7170753   1.8470585
  75.9334973  35.9139920  38.3586561  75.2430228  36.2892135  38.9051783
  76.2463168  36.6482718  37.8302538  61.1143569  56.3501229   7.2446549
  61.2581758  56.9780638   6.5366757  60.1748828  56.3993372   7.4212849
  21.9121337   5.3177792  54.6373129  21.7897272   4.8270148  53.8246632
  22.7400684   4.9927408  54.9910116  22.8337387  35.4154328  15.0082981
  22.1200375  34.9435452  15.4374754  22.7897982  35.1360300  14.0938389
  70.3035116  11.2303889  32.0915437  70.3990507  12.0969319  31.6963124
  71.0962057  10.7603908  31.8327618   6.9758078  47.5250006  48.9871740
   7.2387644  48.0475903  48.2295513   7.7574583  47.0209360  49.2133760
  51.1141777  17.9165137  42.6973057  51.0250044  18.0232096  41.7502642
  51.4813137  17.0392251  42.8059816   4.2747092  59.2640354  19.6638262
   5.0225377  58.6665584  19.6632063   3.6381888  58.8504483  20.2469408
  34.3726540  17.9402232  43.2355690  34.5620537  17.0590103  43.5577822
  34.8422003  17.9970205  42.4033833  63.2730675   9.1733181  58.5479832
  62.6349497   9.6253049  59.1000223  63.6415339   9.8620462  57.9947042
  47.3024797  13.6084986  49.4397402  46.9334316  12.9626024  50.0421095
  46.6726255  13.6523771  48.7203026  44.7948718  41.7478215  11.2474215
  44.6545386  42.5841989  11.6912806  44.1067100  41.7107825  10.5831206
  67.6491070  23.2019520  27.0607328  66.8289566  23.2240009  27.5537825
  68.1399488  22.4754119  27.4447179  76.3005161  18.3238029  40.9041452
  76.4915991  17.4327719  41.1970282  75.3595543  18.4261882  41.0467625
  37.6076746   0.5250320  23.4652090  37.0988631   1.0987057  24.0381336
  37.4064517   0.8303652  22.5806117  52.8772116  27.0289230  54.9941444
  53.7451982  26.6440988  54.8727179  52.4597549  26.9538426  54.1360474
  28.2610849   2.0882944  12.4302494  27.8861002   1.6593459  11.6610777
  29.1803173   2.2275308  12.2025168   5.0058776  41.4421558  46.1208153
   5.3376931  40.5915928  46.4083433   5.1958841  42.0323420  46.8500662
  76.1650181  25.0661087  56.4779091  77.0608950  25.4022837  56.5028763
  75.8478355  25.1627135  57.3758507   1.5001226  52.5877060   7.9434168
   0.8993316  52.7540292   8.6697924   2.3716331  52.7013304   8.3226073
  75.2279309  17.5849511  11.5170204  75.4855565  18.3238472  12.0682871
  74.4215373  17.8743138  11.0901415  18.2245231  48.6819138   3.4420120
  17.8727365  49.1989781   4.1666662  18.7589049  49.3003358   2.9437935
  64.1324429  66.7031815   0.7980692  64.9318699  66.5093615   0.3085959
  63.7459282  67.4493410   0.3397190  12.5425510  25.0163439   4.4480955
  13.2580952  24.6969965   4.9978697  11.7955498  24.4661787   4.6837580
  14.6187031  58.4741783  62.2619534  14.2409754  57.8178692  62.8474569
  15.2371502  58.9568377  62.8103971  31.9203857  25.0493172  17.6832354
  31.3363604  25.8029202  17.7682554  32.7673391  25.3660468  17.9972136
  57.5050382   8.3644034   7.9149353  57.4366955   7.4741175   7.5700438
  57.2534327   8.9254262   7.1813261  46.6010264  70.3117253  27.7664530
  46.3637213  69.8742892  26.9487917  45.8899514  70.9337284  27.9204523
  29.6671128  46.2156963  62.6364279  30.5684757  45.8948708  62.6655865
  29.5294261  46.6212654  63.4924555  75.2065400  66.0333898   6.1276829
  75.8527020  66.4054634   6.7279064  75.4604081  66.3654615   5.2665722
  33.9390969  24.2600322  60.5684948  34.7932863  24.0976763  60.9687853
  33.5434937  23.3921385  60.4879332  63.3442930  69.6350982   5.8206379
  62.9880051  68.7743785   6.0407603  64.2787818  69.5644667   6.0155070
   7.3928571  65.5591847  59.4618380   6.6205049  65.0226404  59.2834437
   8.1248069  64.9431278  59.4308913  67.6376180  26.2718512   9.2796862
  68.1603173  26.4106740   8.4899103  66.8024138  25.9328236   8.9576113
  31.7104773  22.4992779  12.1433127  32.0688442  21.6251973  12.2975313
  31.5781740  22.8618649  13.0192435  62.9864434  57.7880456  15.8327925
  63.5959677  57.5637342  15.1296627  62.7025942  56.9433369  16.1822665
   8.2710052  53.0575718  16.0460531   7.7412915  52.2986485  16.2903273
   7.6462484  53.6714734  15.6600058  58.5631990  74.3120766  61.3193989
  59.3676615  74.1148424  60.8396387  58.0636120  73.4959507  61.2950754
  43.6116314  34.2926741  61.5193748  43.2343626  33.6212420  60.9509802
  43.8764572  33.8182187  62.3074055   2.0089439   3.2375649   9.1716921
   2.8769402   2.8985241   9.3904698   2.0878057   3.5296801   8.2635748
   3.8541933  57.5803875  60.2664614   3.7474223  57.7807711  59.3365812
   4.1173049  58.4114371  60.6618834  53.6510038  39.5383263  53.7625217
  53.5132837  40.3997135  54.1565752  54.5895576  39.5070410  53.5771275
   5.3530669  57.8479004  63.8362598   6.2947667  57.8091955  64.0034008
   5.1596856  57.0367432  63.3662987  54.7793341  61.1894655  55.5324173
  54.2412424  61.0730743  54.7493792  55.6776047  61.0636139  55.2266312
  32.4509287  16.2063551  59.9443245  32.7354074  17.0022202  59.4949865
  32.2069216  16.5009105  60.8217812  25.9508757  16.6429213   1.6134369
  26.3888601  17.4922446   1.5582525  26.0479979  16.3824156   2.5293743
  61.0406975   0.8999637  16.7060816  60.1511196   0.6479743  16.4583456
  61.0330299   0.8958295  17.6632368  13.0148009  15.5449847  14.0701878
  12.9991750  15.1926115  13.1803477  12.3761467  16.2578467  14.0567553
  78.8799341   3.7851361   5.0751793  78.3604677   3.1317118   5.5436051
  78.3680113   4.5911482   5.1423800   9.9882249  10.3604487   7.1760857
  10.2121572  10.0797251   6.2887966  10.5408911   9.8234061   7.7438652
  17.7114888  66.0747545  43.4562397  17.2014495  66.8847458  43.4583521
  17.8846522  65.9031670  42.5306034   7.5871567   9.4099024  15.1529944
   8.2445268   8.7825993  14.8520148   7.5913409  10.0986746  14.4883072
  75.8721332  23.1300475  22.4576151  76.7847280  22.8764095  22.5957072
  75.8206920  24.0276720  22.7860224  18.1531858  14.9770963  55.5706263
  18.4671414  14.2698526  55.0071812  17.3997116  15.3385997  55.1039124
  39.9803738  37.4898318  16.4775812  40.0944046  36.5982989  16.8068087
  39.0317778  37.6136711  16.4451277  27.6732973   7.9345444   1.8043577
  26.9771628   7.8064230   1.1599934  28.0903200   7.0763090   1.8802702
  26.2749199  10.7151821   5.8223879  27.1398167  11.0741785   6.0206616
  25.9782080  11.2123850   5.0601637  42.7797222   5.3068477  52.5238943
  43.1444597   4.8363683  53.2734585  42.3301935   6.0591036  52.9089451
   4.6828103  41.2269394  12.4799216   4.5227170  40.6458216  13.2234967
   3.8223624  41.3427811  12.0768749   3.7261633  62.9980305  30.9655440
   4.1901759  62.1652821  30.8791697   4.3693117  63.6584404  30.7077563
  60.9005813  57.6583125  28.3973658  60.3350214  57.1654298  28.9918768
  60.3720764  58.4114482  28.1333601  45.0782251  33.7075973  48.0021095
  45.7283783  33.9514828  47.3432827  45.5624914  33.7070227  48.8277721
  12.0576835  64.5645286   5.1529896  11.8983770  64.5613887   4.2091429
  11.2974477  64.1180231   5.5256903  69.4955901  22.4928846  -0.1768816
  70.2559546  22.2759201   0.3625643  68.8089494  22.7105250   0.4535019
  45.4568163  72.5787045  12.6608813  46.0255996  71.8286421  12.4873221
  44.5695166  72.2232177  12.6102745  66.7177868  40.8848095  49.2795372
  65.9939289  41.5035677  49.3765116  66.5793610  40.2431679  49.9762201
  64.8177576  32.9371667  29.4393396  63.9316130  32.5808883  29.5029449
  65.0713587  33.1116915  30.3456831  39.4354844  25.0422335  56.2990618
  39.5498323  25.2161860  55.3647709  39.0035772  24.1886783  56.3326645
  48.8787989  60.3132441  29.8481905  49.6004037  60.8926417  29.6036207
  48.8662437  59.6442582  29.1636908  55.4021358  44.9246883  55.4546690
  54.9251938  45.6881237  55.7801390  54.8170328  44.5360899  54.8043776
  77.6917076  29.5462441  49.8067141  77.7028275  29.8347878  50.7193232
  78.1103516  28.6855936  49.8225164  67.3338842  30.2928853  57.2378445
  66.7965221  31.0186219  57.5553083  66.7351866  29.5466113  57.2082996
   0.6313682  56.9639220  31.1366808   0.1304221  56.1907830  30.8768046
   0.5581164  56.9872047  32.0907938  73.8691167  66.1463596   0.8666909
  74.2363862  65.5760099   0.1913798  73.1817941  65.6208755   1.2761891
  70.4533414  56.3768281  10.8815968  70.9635333  56.9638755  10.3236449
  71.0132197  55.6090106  10.9965908  46.8997455  73.0241610   6.0865414
  46.6025043  73.7002184   6.6954958  47.5936103  72.5643875   6.5591872
  67.5227717  38.0244206  48.1806051  67.6920489  37.1616417  48.5590136
  67.1527986  38.5337918  48.9016497  31.8493781  56.8354895  15.1622021
  31.5086553  57.3777725  15.8735811  32.8002403  56.8760993  15.2643931
   5.7603689  16.3979387  40.0383759   5.0326010  16.7473197  39.5240641
   6.2596174  15.8675241  39.4173670  59.1337589  69.2508509   1.5748751
  58.7073306  68.5834076   1.0373747  58.7654380  70.0785376   1.2658322
  66.4462689  69.8339083   3.3212006  66.4284066  70.0268008   4.2585957
  67.0921353  69.1329529   3.2331717  62.1194363  13.5204029  30.4698586
  61.2260532  13.6251271  30.1425505  62.6252747  14.1850269  30.0022745
  68.1523732  19.9978449  16.1554014  68.3343104  19.0945579  16.4146387
  68.5264329  20.5287911  16.8585455  51.9145707  68.9195945  17.5937617
  51.2753490  69.6317627  17.6148379  52.5555042  69.1923882  16.9372332
  56.0854511  13.9086655   7.6103651  56.7862977  14.4781712   7.2930157
  55.3255157  14.1449049   7.0784580  71.9397171  13.6047200  15.5840838
  72.3781701  12.7609709  15.6939757  71.0340746  13.4400156  15.8466017
  77.6708841  30.0663447  30.3667021  77.1996546  30.8416367  30.6718254
  77.0104122  29.5517898  29.9027562  78.7079791  43.5420682   2.6964342
  79.2681960  43.9320840   3.3674633  78.0326299  43.0761280   3.1894171
   6.2649655  43.8660165  24.0518534   6.6915965  43.1198599  24.4731200
   6.8977809  44.1669317  23.3997595  48.9693642  26.5685368  55.3169250
  48.5503340  27.4044943  55.5214214  49.5417261  26.3981867  56.0650015
  23.8913822  59.9419498  59.6580744  23.6423016  59.1846800  59.1282320
  24.8438096  59.9893999  59.5752144  37.0781759   8.0112055   5.7481777
  37.6577858   7.5916508   5.1123678  36.2417082   7.5572565   5.6457817
  63.3370304  40.2445602  51.1536884  62.6171303  40.7315254  51.5547323
  62.9146957  39.4951463  50.7338762  57.6991943  66.1110546   8.7689078
  57.3221854  65.3674986   9.2392456  57.0154051  66.3772990   8.1542694
  47.8463878  40.8004168   7.7912390  48.4999694  40.1431778   8.0301916
  47.2242715  40.7950667   8.5186827  30.2369408   6.4956263   1.6342318
  29.8304228   6.7823199   0.8164370  29.8491434   5.6376341   1.8065560
  24.2641302  17.6771665  47.6012945  23.6202665  17.6725578  48.3095694
  24.5768686  18.5812140  47.5677872  31.9864712  50.0024261  15.2739441
  31.3607786  49.3853023  15.6532824  32.8435985  49.6184494  15.4586756
  69.6513319  30.2410579  45.0016356  69.6987772  29.3621850  44.6253872
  69.5201063  30.0938392  45.9383011  57.1682167  22.5684071  56.9827557
  57.0826149  22.0489144  57.7821541  56.6736221  23.3679485  57.1625900
   1.6808534  72.7061989  25.8501589   0.8952069  72.8040149  26.3881361
   1.4783788  73.1783034  25.0424826  12.7947764  12.4966982   8.0628979
  12.4236158  13.2695845   8.4884703  12.6923517  12.6665095   7.1264660
  77.0563868  59.9794914   9.6278345  77.3100690  59.2782189   9.0277588
  77.7435426  59.9847891  10.2941859   6.2178560  22.9644775  54.3317604
   6.1345812  22.8340983  55.2763748   7.1521422  22.8528810  54.1560173
  60.6115130  58.5152556   2.1965515  61.5124945  58.2183840   2.3243582
  60.5779532  59.3703129   2.6254809  39.0043950  21.7288756  60.5778551
  39.5884371  21.6316104  61.3299656  39.2617106  21.0251570  59.9822092
  58.6899189  32.5246647  19.3561423  59.4872955  32.8077725  18.9086401
  58.9518742  32.4235371  20.2712309  38.3060078  18.0112675  11.5644133
  38.5546211  17.7740935  10.6710112  38.8493876  17.4528960  12.1204674
  10.8777928  72.3620798  24.2021048  11.0662961  73.2759668  23.9887678
  11.7292714  71.9887306  24.4297659  60.2217245  53.9817238  50.7966852
  60.7476139  53.8148260  51.5788746  60.6436300  53.4655762  50.1097918
  13.8076902  38.9446901   3.2356560  14.4655156  39.2291925   2.6011860
  14.3088651  38.7411523   4.0253556   0.4515028  15.4073313  24.0397227
   0.4121351  14.6715859  24.6507609   0.7468462  16.1456421  24.5725500
  51.2555313  31.8565655  48.1723785  51.7243385  32.6885843  48.1075811
  51.9276810  31.1909127  48.0262423   3.2236838  47.2983797   7.9854309
   3.0597901  48.1288959   8.4322130   3.4235120  46.6825141   8.6904204
  18.6439920  53.4099318  14.2845309  19.4283700  53.6835744  14.7600376
  18.1062961  52.9696192  14.9427426  76.4060620   1.9211103  63.5262680
  75.4599980   1.7922689  63.4584713  76.7424230   1.6857053  62.6615858
  33.9219066  62.6895438  50.7175779  34.2728587  63.3493815  51.3156414
  34.5685264  62.6360284  50.0138378  44.8855877  30.4461551  49.4998407
  44.5897388  31.0682511  50.1644516  44.5962143  29.5933795  49.8242998
  40.3771734  65.5993319  60.5796432  40.1109314  66.1010551  59.8091745
  40.2427673  64.6854830  60.3285551  63.7753153  56.3941717  51.0672998
  63.7627554  56.7055988  50.1622629  64.3471909  57.0105410  51.5247726
  26.6717009   0.5705837  30.2518999  26.4444355  -0.0799915  30.9162295
  27.2886042   1.1560109  30.6911528  26.9307327  40.0002050  62.3187160
  27.8582478  40.1746464  62.4784613  26.6078568  40.7937098  61.8917131
   5.9016749  13.3766317  55.6515360   6.5897413  13.3503246  54.9866247
   6.2142702  12.7930868  56.3429070  36.9969821  69.2676761   3.1109583
  37.2559142  69.6609618   3.9443314  37.6343894  68.5680296   2.9679930
  63.7498383  74.2505266   1.9321310  63.4238533  74.0379574   2.8066504
  64.5087222  73.6792399   1.8139946  71.9072008  40.4781437  40.4716015
  72.1977043  41.1856842  39.8960733  71.3524961  39.9302125  39.9163461
  41.6213417  68.9589357  64.3961954  41.4764595  68.1285477  63.9426517
  40.7426596  69.3118238  64.5362806  21.5289501   3.1041458  18.1157553
  20.9435896   2.3497871  18.1830370  22.0753721   2.9160002  17.3527014
  21.1781172  35.7099989  22.3050654  21.1553816  36.6471413  22.4986708
  20.5837730  35.6044081  21.5622103  54.5177559  19.2451266  17.1751272
  54.5194534  19.7448519  17.9915201  53.6361221  19.3656186  16.8223822
  55.6165457  36.9989419  63.8857603  55.6827831  37.5770712  63.1257486
  55.1305723  36.2385368  63.5666323  59.9240303  60.1267147  56.7983627
  60.0762653  59.2001295  56.9840860  60.7662296  60.4479456  56.4762640
  55.5111980  65.4701853  60.0679493  55.8151627  66.2174368  60.5831766
  54.9918556  65.8596563  59.3645096  23.4688143  32.7020100  10.5446970
  23.8920073  33.5496691  10.4082691  23.9122490  32.1120575   9.9351465
  23.7351040  16.9962529  27.9492342  23.7266306  16.0711840  28.1950247
  22.9169897  17.3454979  28.3027231  51.7448596  43.0518933  11.9824803
  52.0890359  43.6633696  11.3314259  51.2687234  42.3988583  11.4695751
  38.9976029   4.7926787  10.5232966  39.0622906   4.8708752   9.5714915
  38.4974436   3.9887885  10.6641304  36.9864039   2.8396061  10.8591521
  36.4204268   3.6106375  10.8216011  36.9225744   2.4528745   9.9858868
   2.4733683  73.3907127  59.2130232   3.1537863  74.0572739  59.3077087
   2.1911760  73.4643269  58.3013296   4.3614793  40.4052000   5.8961737
   4.9039531  41.0610547   5.4582131   4.6238256  40.4525476   6.8155014
  63.3559752  53.3967781  55.2701187  63.9186382  52.6324129  55.3941584
  62.7412891  53.3631754  56.0031033  20.7157520  17.8393534  -0.0998867
  20.1318697  18.3435801   0.4667389  21.3847164  17.4946097   0.4916107
  47.1862082  12.8942946  19.5208514  46.7792133  13.3596495  20.2516234
  46.5615515  12.2037962  19.2989313  78.9890365  33.2419201  13.6371863
  79.3305234  32.3663049  13.8186133  78.8767795  33.6389311  14.5009053
  54.1412687  46.9969416  56.7103386  53.3595324  46.6239882  57.1178007
  53.8035965  47.6513815  56.0988522  65.4580120  51.9261505  30.1088202
  65.4078917  51.3826754  29.3224680  64.7689203  52.5802113  29.9922526
  59.1240910  61.1383392   1.5695011  59.9243859  61.3991906   2.0252573
  59.2044381  61.5313770   0.7004225  25.9335665  27.7320937   6.1968195
  26.0374741  27.6206044   5.2518332  26.7643456  28.1092528   6.4862787
  51.3060427   3.4613755  60.6893253  50.4694843   3.2174996  61.0854578
  51.9524479   3.3007389  61.3767767  51.5570788  17.9789666   4.6576082
  51.6722826  18.4795216   3.8498938  50.8647636  17.3503760   4.4531500
  39.3521074  14.8907641  28.2084143  39.9958757  14.2648056  27.8767931
  39.2815212  14.6899966  29.1416609  69.5917082  16.2690747  33.4679365
  69.8613405  15.4617536  33.9058447  70.1417828  16.3125145  32.6857853
   8.4742713  58.9550521   4.4957649   7.8154111  59.3544819   3.9277947
   8.9578080  58.3615734   3.9211333  60.3343010  60.7991886  52.8165531
  61.1026382  61.2428379  52.4572992  60.5471325  60.6612396  53.7395430
  42.9862785  51.3006449  57.4680138  42.9640388  51.3656616  58.4227419
  42.1161032  51.5848446  57.1882582  25.2485486  73.3508957  61.8192101
  25.0323792  74.2790890  61.9084263  26.0294171  73.3389564  61.2657309
  37.6978230  36.6889429  56.5777969  38.1893396  37.3428726  56.0807800
  37.3652267  37.1661305  57.3379946  64.0152407  37.2228336  48.0366230
  64.6924591  36.5718174  48.2204342  64.3370533  37.6925015  47.2671556
  47.7344517  15.0707558  10.0698244  48.0273203  14.1888359  10.2993452
  47.4450449  14.9979094   9.1603338  37.5064091  23.5326603  18.8684523
  37.8882650  24.2845086  19.3213713  36.9207529  23.9178494  18.2166254
  49.7547531   5.8190632  52.7662230  49.2951250   5.7476163  51.9296408
  50.6826782   5.8011383  52.5319862  25.3042606  20.5637339   4.2841065
  24.7046665  19.9544838   3.8533699  26.1766295  20.2492741   4.0467846
   4.0205598  35.6599075  18.5976279   3.5059238  35.5771163  17.7947962
   4.9097419  35.8431591  18.2943022  71.1760569  66.4032507  60.8717251
  70.3556061  66.8856001  60.7695961  71.2641239  66.2777996  61.8165731
  36.5540890  29.9224928   0.2829659  36.5856222  29.2290762   0.9420645
  36.1133198  30.6501177   0.7217228  28.5429005   4.9271325  12.5148642
  28.7075905   3.9900616  12.4099171  27.6936964   5.0693730  12.0967018
  37.0593552  20.6201247  15.1509344  37.8225569  20.4289177  15.6960928
  37.3687605  20.4959086  14.2536795  66.9881602  73.1468086  64.4357157
  66.8721648  73.0130370  63.4950352  67.8582831  72.7942243  64.6222782
  50.1276402   5.5933455  14.8915636  49.8801951   6.3763502  15.3833973
  49.3366007   5.3538493  14.4087326  48.6234474  52.6002026  55.0457144
  48.3956671  51.9410992  55.7014036  47.7863884  52.8446054  54.6509552
  22.7031139  35.0819519  12.2270357  22.8575186  34.2780093  11.7309916
  22.9412130  35.7854441  11.6231835  66.1719465  14.5606577  54.8636484
  65.8974457  14.2675602  53.9947510  65.4629993  15.1321256  55.1586962
  63.0009699  50.3538990  31.2953758  62.9091311  49.8020411  30.5186844
  62.3116779  51.0118246  31.2045884  22.5639939  45.6098111   7.8043043
  23.0742955  46.2610968   8.2856047  22.6937127  45.8366634   6.8834650
  34.1325239   7.1580532   7.2969591  33.7622599   7.9696873   6.9499886
  34.7587542   7.4453286   7.9614460  77.9633121  66.1093714   5.4431641
  77.9022626  66.7095115   6.1863577  78.7659244  65.6125094   5.6018412
   8.8885665   2.7020313  58.6350346   8.0173421   2.6397039  59.0265942
   9.4705510   2.8826667  59.3732071  48.4040499  52.7893400  59.2286110
  48.7157774  53.5819530  58.7917805  48.9412785  52.7239370  60.0181341
  59.7894382  67.5539494  51.8198442  59.2241287  68.2614803  52.1297789
  59.9099398  66.9911623  52.5846863  73.2149982  53.7972975  54.2891312
  72.4623585  53.2171059  54.1744900  72.8313732  54.6650600  54.4158268
  48.6207676  33.0215859  48.0351591  48.6396980  33.4717441  47.1906281
  49.4551373  32.5542927  48.0762482  47.1437359  31.6723037  56.5761757
  47.4762201  32.1262050  57.3505545  46.8186617  32.3719692  56.0095835
  13.4756402  43.7085846  23.2833063  14.3494038  43.8612774  23.6431181
  13.0188088  44.5413044  23.4021342  48.0367728  68.4323095  48.8463640
  48.8025018  68.1748091  49.3597651  47.6209041  69.1207396  49.3653536
  20.8720259  35.2254513   2.4080097  20.7029156  34.3882683   2.8401720
  21.5998558  35.6060341   2.8995859  30.4747820  18.2348979  53.6133814
  31.3912916  18.3289683  53.8729763  30.4688191  17.4800622  53.0248070
  58.6820320  15.2013186  34.9242460  59.0243630  16.0193423  35.2846300
  57.7341847  15.2663544  35.0408423  67.9182911  56.3894129  52.4474239
  68.7914705  56.5087605  52.0738602  68.0602026  55.8375359  53.2165289
  45.0929550  17.2428873   3.8479388  44.2516188  17.3478392   4.2922032
  45.0600962  16.3606432   3.4780848  63.4536743  50.5797768  56.6422701
  63.5871840  49.8213148  57.2107220  62.5381994  50.5167913  56.3699341
  33.2688737   4.1136828  51.3473749  33.3964157   3.5385263  50.5929470
  32.8851175   3.5481396  52.0175409  79.1818905  46.9099617  62.9936409
  79.0371132  46.3376331  63.7471056  78.9519215  47.7839518  63.3090591
   9.6861673  69.2628862  19.7731077  10.0048947  68.9635374  20.6245959
   8.9523769  69.8410155  19.9817717  37.3362732  74.4581032  54.6182442
  38.0401063  73.8485336  54.3962574  37.5093389  74.7029972  55.5272579
  52.0887232  37.0102119  63.5429811  51.8450308  37.9349375  63.5846138
  52.8955984  36.9981027  63.0281639   4.6123167  42.6305628  43.7902069
   4.7843691  42.0694351  44.5463562   3.7672182  42.3298311  43.4561396
  75.0798587  69.0071394  11.2598479  75.6502465  68.5453989  11.8744099
  74.8320703  69.8093535  11.7195093  72.3468542  72.6667929  61.3436270
  71.6392136  73.2350969  61.6477680  73.1247377  72.9878950  61.7997265
   5.0210595  65.4241063  11.8667948   4.4348025  66.1114790  12.1831095
   5.7826257  65.8955075  11.5291130  26.3539720  18.6494781  54.0571737
  26.5160012  18.8966705  54.9675989  25.4177594  18.4526588  54.0254164
  19.3102745   7.9268292  14.1907704  19.5518211   8.8530520  14.1925776
  19.8843435   7.5283221  14.8448908  63.5207510  13.8637710  63.4690857
  63.9371824  13.9195943  62.6090240  63.7006187  14.7104800  63.8776922
  68.7602091  31.6361904  63.0064726  68.5212278  32.0224357  62.1638966
  68.1804752  30.8798313  63.0962801  79.4121627  69.5472075  44.8143732
  78.8355378  68.8327815  45.0851691  79.0708379  69.8208835  43.9629996
  47.8146791  46.6770983  55.9655428  48.2197952  47.4792242  56.2952614
  47.0219326  46.5751648  56.4922285  60.5749396  63.0158474   9.1145050
  60.5524138  63.7017967   9.7817385  61.3357142  62.4825551   9.3448412
  45.3267578   7.2956732  16.3971102  45.6061892   7.8786114  17.1030390
  44.7867540   6.6353444  16.8313849  34.2158083   0.7486061   4.0630877
  33.4170012   0.8910969   3.5553086  34.3546728  -0.1979086   4.0305292
  58.1336021  50.7369709  56.5279102  57.7483368  51.5552759  56.8412447
  57.4005222  50.1220894  56.5006828   8.8312177  39.0081337   6.7321455
   9.0307955  38.4218338   7.4619734   7.9917125  39.4042185   6.9657767
  52.3418621  14.2309168  17.8000033  52.9377369  14.2463663  17.0510542
  51.4922575  14.4786480  17.4352610  20.9457397  19.6685255  62.7656174
  20.1382470  19.8079884  62.2709084  21.5107536  19.1781223  62.1685457
  46.3233666  31.1180285   4.5769942  46.1080269  30.3978279   3.9843952
  47.2031263  30.9128788   4.8934996  18.0655170  63.6730053  18.4804022
  18.5424590  63.6659481  17.6505148  18.6716390  64.0767338  19.1015684
  53.3855967  27.0740584   8.6949932  52.8572134  27.4959639   9.3725168
  52.8198818  27.0619801   7.9229510  35.2780584  16.1080960   5.2070772
  35.7868103  16.0058859   6.0114109  35.5966286  16.9256142   4.8244345
  44.7694302  37.9278255  61.5388775  45.5412769  37.8083801  62.0922470
  44.9241114  38.7578964  61.0879993  15.6287074  64.4321801  26.0482847
  16.2402320  64.8599674  26.6476691  16.1720681  64.1509439  25.3121435
  58.0645064  56.0976817  23.1736910  57.6615910  56.5287675  22.4199927
  57.9361872  56.7110195  23.8972723  12.5175504   0.6408122   9.5505345
  12.4902824   0.7741216  10.4980147  12.7803139  -0.2735182   9.4447720
  52.9328064  72.8026225   0.7318842  51.9832138  72.7312996   0.8289540
  53.1144504  73.7369182   0.8335030  55.6586913  68.4880378  20.9877360
  55.1754335  69.2650010  20.7066214  55.8606795  68.6518957  21.9089281
  73.4740380  72.1846892  22.9727614  72.8429536  71.6413905  23.4447729
  73.7791518  71.6291072  22.2554934   0.7508254  56.4569404  17.7327502
   1.5559554  56.2513425  17.2576487   0.9549785  56.2592687  18.6467993
  17.1675781  24.2282179  14.6140444  16.8324808  23.4609297  14.1501391
  17.5947098  23.8700131  15.3921664  71.7522601  74.4674589   8.4877598
  71.1127929  73.7556507   8.5131371  72.3343591  74.2407419   7.7625096
   8.0933356  50.4469206  42.8210604   8.5864806  51.2533380  42.9718268
   7.3204684  50.7269408  42.3306525  75.1198653  52.4408616   5.8785975
  75.1446561  51.9060327   6.6720545  75.6662492  53.1994976   6.0839379
  26.9560341  11.3738421  40.4117167  27.5340227  11.0991743  39.6998751
  26.2003092  11.7617110  39.9704993  44.6953821  44.6570015  64.2841482
  44.2061806  45.3940964  64.6496534  44.5907879  44.7462749  63.3368778
   9.9432608  52.5704098  61.2227726  10.1357695  53.3581686  60.7142353
   9.0705725  52.3052120  60.9324265   1.5921334   7.7725914  10.0168192
   0.9766249   7.7443150  10.7493365   1.8468885   8.6930874   9.9534428
   1.0240034  14.8170546  10.3840029   0.9928946  13.9658812   9.9472344
   1.7655567  14.7505978  10.9855950  54.8721313  58.1757593  54.1338634
  54.1009283  58.4256649  53.6249208  55.5082512  58.8698578  53.9612341
  58.2323217  28.4591031  56.1456585  58.8016129  28.7249637  55.4235411
  58.7714100  28.5696650  56.9288492  36.2040758  56.7919874  58.5069370
  35.5673385  56.7513418  57.7933931  35.7233906  56.4828491  59.2747927
  31.1490540  19.2518023   6.8853152  31.9846586  19.7174624   6.8512833
  31.3841156  18.3551052   7.1238816  15.0822548  32.3161152  40.0261271
  15.0082974  32.9566267  39.3186629  15.9766440  32.4201659  40.3508913
   4.7555681  28.9307857  62.2985315   5.6169554  29.2509604  62.5663567
   4.7693583  28.9773035  61.3425589  51.6105823  64.4895937   3.2699549
  50.7484869  64.0736772   3.2638848  51.4646844  65.3489973   2.8745138
  32.4931339  46.6770104  14.4227898  33.2790569  46.2314251  14.1065466
  32.8195910  47.3221711  15.0500262  38.5280994  20.6738356  12.2868263
  37.6375774  21.0119465  12.3810589  38.4230904  19.8535231  11.8048584
  57.9720020  59.1840553  62.5833225  57.3764420  58.8869333  61.8953848
  57.5689077  58.8804340  63.3966827  42.3829714  51.9717993  18.7158835
  42.2399036  51.7077019  19.6247351  41.6206662  52.5088086  18.4996760
  20.4855943  68.2415368  37.8733885  20.7433772  67.5727703  38.5078394
  21.0557056  68.9861156  38.0652487  61.9320679  18.6127985  48.9890385
  61.9323254  18.2387483  48.1079483  61.9968748  19.5573688  48.8482571
   4.8374514  10.0775793   4.1402495   5.4688338   9.4058302   4.3978178
   5.1344160  10.3672245   3.2776081  54.7288895  42.6492882  38.8152814
  55.1401567  43.3833551  38.3589554  54.2015409  42.2154522  38.1445193
  67.0586586  40.4318619  55.8652258  67.1149349  41.3862562  55.9120750
  66.1449146  40.2353811  56.0718632  12.7106234  11.3573623  41.2317228
  13.3362623  11.8293738  40.6821728  12.5330206  10.5483890  40.7518768
  37.8621725  23.9514569  12.4847281  37.4335960  24.6355370  11.9703448
  37.2132162  23.7054375  13.1439411  51.3592005  42.4408913  45.7307482
  50.7846308  43.1777382  45.5230045  50.9077072  41.6766787  45.3724718
  21.7734198  17.4911574  24.1999781  20.8402542  17.2917632  24.1246378
  22.2002319  16.6346959  24.2231619  70.3787208  71.6948535  14.0898859
  69.5060325  71.9840266  13.8233578  70.2396083  70.8229615  14.4595921
  24.6054415  38.0142001  24.3124640  24.7800545  37.2803572  24.9017107
  23.9686541  38.5525206  24.7825014  73.1741047  18.9141417  36.3830161
  74.0380526  19.0651894  36.7664361  73.2565832  18.0750918  35.9297800
  45.8689070  42.6639986  43.5893154  45.0270224  42.3026943  43.8666630
  46.5032101  42.2899675  44.2008638  59.2326621  44.4216790  15.1728260
  59.7516469  44.8822333  14.5134461  59.3363027  44.9449702  15.9675944
   2.7551580  72.4196889   6.3895190   3.3756185  73.1436374   6.3048851
   3.2016921  71.7859437   6.9509518  76.7931107  44.2940309   6.5636933
  76.9031552  43.8550808   5.7202208  76.9407109  43.6061462   7.2127354
   3.4129882  56.5382161   3.6624872   2.8281188  55.9169092   4.0962374
   4.2904973  56.2744071   3.9392912   6.4897943  30.4377713   8.7778246
   6.3096786  30.1528873   7.8819287   5.8318067  31.1107810   8.9520037
  71.6347218  15.4591930  56.6520214  71.7452955  15.3187490  55.7116604
  71.5186930  16.4051700  56.7408943  67.9595633  18.6281327   0.6685030
  68.1061347  17.6956824   0.8275091  67.7301784  18.9843109   1.5268481
  26.7823223   2.3923138  17.2110522  27.2467617   2.8146723  16.4884627
  27.2925953   2.6186922  17.9886210  72.4540472  23.1795287  44.1353083
  73.2881689  23.0780935  44.5937634  72.3521948  24.1254330  44.0298367
  74.8345069  52.7235581  32.9804861  75.3238324  53.2371964  33.6231196
  74.5800141  53.3579804  32.3104346  36.7149452   3.9447049  14.1989910
  36.5587620   3.0075196  14.0826761  36.6141609   4.3149641  13.3220732
   5.6211666  28.9898852  43.3513796   5.1163892  28.2772377  43.7432635
   6.3734988  29.0985897  43.9331114   4.1965890  71.0796978   8.2323038
   4.6693111  70.4015281   7.7497589   4.8757815  71.6956546   8.5071194
   1.3181444  61.2070513  52.5763464   1.7936751  60.5570364  52.0590639
   0.6169506  60.7107830  52.9985666   0.8186241  11.5006042  56.1613512
   1.6932913  11.6357577  56.5259409   0.8985087  10.7044339  55.6360292
  26.7769722  18.8765505  12.5184405  26.5524677  19.7406510  12.1732390
  26.5553907  18.2710436  11.8109858   5.7288977  47.8748798  43.1160307
   5.0786921  48.4606266  42.7282667   5.2123495  47.1782017  43.5210466
   3.6179682  49.2450571  38.7131429   4.3805262  48.6867332  38.5614681
   3.3341929  49.5061016  37.8370380  36.2609772  11.1173275  23.3732569
  36.7638258  11.4104203  24.1331732  36.8174938  10.4589632  22.9572356
  65.0308228  61.2477064  54.1554213  65.1928329  62.1770191  53.9930630
  65.4336071  61.0796213  55.0073290  64.7507095  65.6147289  55.0594854
  63.8781691  65.2265596  54.9944782  65.1939869  65.0964594  55.7311487
  74.2018755  26.9696835   3.4603417  74.2668875  26.3233117   4.1633427
  75.0299938  27.4482897   3.4976923  66.6952805  15.8894566   9.3003618
  65.9084610  15.7669667   9.8315298  66.6339306  15.2162865   8.6226380
  64.6882534  32.5673246  54.2453480  65.5016041  32.0887589  54.4055510
  64.9138689  33.2022500  53.5654974  48.7819386  16.3249099  56.4966154
  49.6905279  16.2988985  56.7966509  48.6834288  15.5367196  55.9624958
  65.9008789  66.6848230  57.8791857  65.0432587  66.8345022  57.4812937
  66.1935520  65.8511734  57.5109434  43.2185415   1.4104536  14.1747248
  43.8629345   0.7038859  14.2165959  43.5775475   2.0243767  13.5340655
  15.1684717  40.5868605   6.6716492  15.1223330  39.8141697   6.1085713
  14.5405106  41.1997536   6.2892067  46.2314943  10.7237175   1.2611496
  47.1225885  10.3905609   1.1553871  45.8423809  10.1590851   1.9289982
  10.6696677  48.2592108   8.0563080  11.1337686  49.0676298   8.2737982
  10.3173661  47.9530456   8.8919985  36.0639930  71.0275390  18.5300505
  35.1233363  70.9252908  18.3853590  36.2235046  71.9643809  18.4155142
  45.2975559  29.7945118  62.8370047  44.5438242  29.4684291  63.3287334
  45.7628202  30.3565097  63.4566164   1.1162023   0.7083443  20.0550806
   0.7127337   0.7885388  20.9193861   0.4774551   1.0945037  19.4558203
  60.4745483  25.3439069  52.0122910  60.5664778  26.2577128  52.2819948
  59.5509481  25.1418138  52.1617937  52.7852253   5.8729056   9.8432600
  52.3282198   5.1533392  10.2786886  52.1569399   6.5950087   9.8506415
  44.1828609  60.0404550  24.4217455  44.7652602  60.3515913  25.1147425
  44.6256614  60.2848412  23.6090719  65.0636196  62.4519968  46.5435314
  64.4568729  63.1849670  46.4393759  65.6228542  62.4918985  45.7677126
  54.8345757  42.3317480  50.6330919  53.9179707  42.5785875  50.5100441
  55.0284433  41.7546606  49.8944330  27.9975581   1.8529035  44.8003912
  28.3265948   2.6994945  44.4983244  27.4850059   2.0601131  45.5817938
  55.8236265  71.7222881  57.1050262  55.6841707  70.8155394  56.8319130
  56.2829399  71.6524172  57.9419136  40.5428557  13.3864048   3.2594549
  40.4856304  13.7130144   4.1573870  41.2002949  13.9438847   2.8432572
   0.6048342  62.2927904  59.7726011   0.7101627  61.6425705  60.4671144
   0.0886675  61.8454790  59.1019917  58.9777950  37.8151682  16.8882429
  59.7802929  38.2096318  17.2297537  58.6074261  37.3422364  17.6334822
  69.5307831  53.3273819  12.7174628  69.0389923  52.8367451  12.0589459
  70.4470352  53.2174042  12.4632752  23.0926871  69.7535755  18.1925738
  22.6452899  69.1832020  17.5674784  22.5006175  69.7970249  18.9434492
  12.6581522  63.1749058  32.4440432  13.6150595  63.1776190  32.4675369
  12.4106451  64.0732479  32.6630211   3.7550589  54.5175219  60.2692986
   3.7612387  55.4439640  60.5099201   3.7567660  54.5186567  59.3121004
  27.1388105  23.8605336   3.3134949  27.6263670  23.9609602   4.1310751
  26.2193445  23.8827065   3.5786736  56.0288052  17.2656992  21.3266718
  55.6915096  16.5990809  20.7282698  56.4813332  17.8898934  20.7593786
   5.5192256  23.3501960  64.4487000   5.5859017  22.7960636  63.6710644
   4.6184087  23.2324554  64.7501850  35.4078058   3.1439427   4.6034300
  35.7006411   3.5071305   3.7676251  34.9537376   2.3350957   4.3671715
  45.2362541  33.7790707  13.2938301  44.4708733  33.6568240  13.8555062
  45.6402496  32.9125336  13.2475769  58.9112667   5.4924134  11.5442669
  58.9655689   4.7156266  12.1009362  59.3114285   5.2230433  10.7175028
  40.6363491  28.2242039   1.4452660  41.1359934  28.9185217   1.0157215
  40.6208710  27.5105885   0.8074963   7.5314089  46.8137741  44.6967983
   7.1111342  45.9880781  44.9372625   6.8446585  47.3118877  44.2535257
  53.3866839  20.1496628   5.4869377  53.7748055  20.2172306   6.3593066
  52.6063065  19.6099308   5.6131279  54.9149899  15.5851487  32.0693266
  55.5596069  16.1887387  31.7000258  55.2227501  14.7170952  31.8085634
  64.7596693  48.0129290  38.1150055  64.1331816  48.1665993  38.8222075
  64.8519135  48.8643932  37.6875281  12.3574901  71.1083676  -0.1429355
  11.4448714  70.9468224   0.0963557  12.8564286  70.4774215   0.3759062
  49.9928335  53.2929448  15.8729708  49.4838289  53.8825444  16.4293158
  49.3353418  52.7855137  15.3971064  63.1288389   6.4939739  60.0604010
  62.5594763   7.2629692  60.0340366  64.0050010   6.8496467  60.2089739
  66.9972801  45.4385281  53.5930634  67.3910570  45.7178307  54.4195986
  67.6137543  45.7328033  52.9225492  65.9441805  69.8541546  50.9483719
  66.5762472  70.5253172  51.2058020  66.4747572  69.0730524  50.7915401
  13.8068052  43.3597565  56.7395926  13.4633967  43.6019135  55.8795547
  13.4981581  42.4641991  56.8772459  77.5509644  49.2578554  56.1212873
  76.9606161  48.6102247  56.5063715  77.7177048  49.8805809  56.8288422
  60.3978491  71.2731600  45.9001398  61.0531950  71.6927624  45.3427458
  59.5583916  71.5522289  45.5345488  56.9961933  13.4742001  29.1708433
  57.8373531  13.9106205  29.3058550  56.6536717  13.3359030  30.0538981
  53.2056812  42.5608900   9.0890324  53.4347586  42.8170327   8.1956398
  52.8884939  43.3673504   9.4955361  34.9426055  63.3094025  57.9378557
  34.1479325  63.1525803  58.4478903  35.2231598  62.4382067  57.6576090
  72.6233605  63.9685370   3.7733614  72.4673490  64.0798475   4.7111809
  73.4815768  63.5478022   3.7216055  71.2310886  51.7354631  51.4768267
  71.7840433  52.4861145  51.2600327  71.0628414  51.3110161  50.6355381
   0.9771490  38.8841084   0.4480374   0.9431315  39.6849755   0.9711849
   0.2940703  38.3260182   0.8197415   2.8598829  28.4849739  58.9450169
   2.0985743  28.8536096  58.4969664   2.5884672  27.6003790  59.1900826
   4.9004722   8.9977981  39.3855500   5.4143119   8.3030464  39.7972727
   4.9674583   8.8212253  38.4471631  54.2095280  52.3094559  59.7778940
  54.6584034  52.9555941  60.3230906  53.2991219  52.6043749  59.7574234
  62.2809414   7.2634555  31.1734509  62.0116881   8.1815292  31.1438704
  62.4297170   7.0873023  32.1024656  51.3427500  28.3954314  10.1430380
  50.7647709  28.6160162  10.8734572  51.1395363  27.4813870   9.9443972
  53.8469172  10.9103978  57.6762629  54.0343189  11.6569412  58.2452869
  53.0659723  11.1713755  57.1881580  63.9328337  47.4212170  64.4346762
  63.2178116  47.1283293  63.8697052  63.6428976  47.2031403  65.3204584
   5.5394960  10.7991649  50.7986259   6.2648273  10.1750423  50.7740784
   4.8972535  10.4442741  50.1839590  74.4751267  14.4496182  20.8008063
  74.9943546  13.7231997  20.4559195  73.6577419  14.0438298  21.0896742
  43.6592869   3.2058981  18.9752638  44.6003059   3.2712773  19.1378748
  43.5077194   2.2740940  18.8171541  77.6034451  67.3216820  64.5597458
  77.7027988  68.2695913  64.6482420  78.1785679  67.0875502  63.8312912
  63.7433342  13.4919146  27.1972430  62.9135136  13.0884484  26.9425833
  63.7650971  14.3190840  26.7160475  70.0173521  34.4430590  61.8754911
  70.0271320  34.9073577  62.7124882  70.1955843  33.5311270  62.1053696
  75.5452824  48.2142353  46.9129658  75.2724886  47.9235077  46.0427427
  75.4588985  47.4359798  47.4634981   0.6276461  54.9636221  64.2228651
   1.3755366  55.5568457  64.1523218   0.2374598  55.1700735  65.0721931
  55.3530836  66.1525011  38.2055688  55.9962749  66.2384844  37.5019050
  55.8078241  65.6566858  38.8864565  18.1843134  73.4742546  59.4090319
  18.4464403  72.6889753  59.8895073  18.8962885  74.0960503  59.5596981
  17.9115776  11.8082407   5.4511606  18.8296703  12.0733002   5.5067074
  17.6500420  11.6587904   6.3597262  58.4914160  28.9103436  58.8132334
  57.9886627  29.5753002  59.2836618  59.3809891  28.9954901  59.1562271
  65.2082872  57.0945692  39.6221995  65.8622456  57.3444510  38.9694118
  64.7694397  56.3333893  39.2423940  27.9034332  41.3675860   0.4241144
  27.1438173  40.8017805   0.5622446  28.0490641  41.3463477  -0.5217064
  11.4429995  51.3064194  39.9477196  10.7992979  50.6427479  39.6998882
  12.2873446  50.8625650  39.8683381  73.7191105  61.5267277  55.7702398
  74.2798615  60.8475542  55.3953981  74.2877960  61.9975948  56.3794279
  11.2476353  33.6094597   5.2285588  10.6629066  33.3494500   4.5167172
  10.8029822  33.3150128   6.0234272  20.5142903   5.3419019  48.2038164
  21.2967134   4.8072673  48.0688906  19.8299718   4.7120954  48.4302711
   1.3348222  34.3466522  63.9293766   0.6006408  34.3494369  64.5435476
   2.1064115  34.2098476  64.4790745  60.7217216  68.8966417  60.2051163
  60.7910156  68.1466389  59.6144152  61.4067221  68.7515783  60.8577776
   7.6466032  66.7727757  19.3927217   8.5996386  66.7100048  19.3293393
   7.4944922  67.4264288  20.0752425  32.1716571  69.1337182  23.7859308
  32.5346446  69.2982556  22.9156458  31.2461639  69.3649795  23.7070715
  13.3752009  49.5140266  50.0621986  12.7682825  48.8181829  49.8098421
  13.4368940  49.4441986  51.0148525  45.2785444  49.6193647  59.9446535
  45.7629299  48.8269758  59.7128820  44.9149179  49.4332123  60.8103037
  51.0375690  51.6169643  57.3558426  51.3389540  51.4061356  58.2395554
  50.5898905  50.8243179  57.0599937  18.1094309  72.0506668  51.8570948
  17.7089544  71.6683292  51.0762787  18.6630770  71.3532495  52.2082520
  45.3870654  17.0267059  54.8119020  45.4643607  16.5722801  55.6508017
  45.0158954  17.8802921  55.0351954  32.2056965   4.3072871   3.4026539
  32.2355370   5.1560763   3.8441288  31.4918093   4.3910626   2.7705347
   6.8890711  70.1863289  50.5704737   7.7454897  69.8731518  50.8614922
   7.0860811  70.9390497  50.0129509  20.1672312  42.8573227  63.6639166
  19.3444201  42.4513721  63.9367056  19.8999163  43.6003733  63.1229448
   8.3562350  30.7435836  29.1210902   8.1088328  29.9032130  28.7353480
   9.0747190  30.5313863  29.7168982  11.4179111  61.1171891  15.8779299
  11.7152667  61.9446828  15.4996836  12.1203590  60.4975798  15.6807387
  25.9647966  57.6313450  11.5994036  26.6603828  57.3607041  11.0001194
  26.4122415  58.1527974  12.2658169   8.1841799  46.8391705  64.0309334
   7.4653479  47.4460840  63.8544035   8.3938833  46.9784164  64.9544430
  77.0628742  18.9953068  16.0724413  77.4539570  19.6473530  16.6539252
  77.1138767  19.3896035  15.2017224  45.1982645  11.8304661  10.6570256
  44.7677235  11.0127476  10.9064257  45.2048210  12.3521403  11.4595520
  12.0949122  56.0230732  30.7375216  11.4292856  55.3412628  30.8286881
  11.7156359  56.6468143  30.1183867  12.8382305   6.0344151   9.8698485
  12.9903535   5.3246001  10.4937517  13.5325364   5.9338263   9.2186558
  29.8485065  59.1149404  13.0501997  30.1031947  58.2017924  12.9178154
  28.8981509  59.0849473  13.1604635  29.9349217  43.1407765   8.2177889
  29.1686396  43.2358006   8.7834847  29.6030048  42.6966790   7.4375069
   1.9894004   1.0269453  37.2323132   1.8915391   1.6776229  37.9274917
   1.3841415   1.3140394  36.5486002  13.2765051  52.0717287  46.2152767
  13.6938807  51.2663174  45.9097719  12.3389288  51.8808556  46.1879969
  33.4514193   7.6911095  17.0482695  32.8373198   6.9568709  17.0503866
  34.0250973   7.5257042  17.7964461  66.9831757  46.8559674   9.9238503
  67.1573738  46.4096383  10.7525074  67.8031258  46.7828396   9.4354260
  11.9267778  23.3253125  26.6213572  10.9916619  23.2439354  26.8088972
  12.1259693  22.5721100  26.0652697  77.7277994  69.7296810  48.6881351
  77.1258307  69.0809679  49.0528774  77.1629810  70.3424454  48.2172441
  58.5025501  49.9277163  53.8648510  58.4303522  49.0491152  54.2377901
  57.9949236  50.4819679  54.4575977  72.3017502  53.9880276  50.2448702
  73.1612968  54.3571138  50.0419283  71.7888641  54.1231728  49.4480515
  56.6670942  64.2856073  48.8660002  57.1975851  64.7002172  48.1856251
  57.2387648  64.2603874  49.6333265  60.8263687  20.4035071  12.2846377
  59.9927143  20.3098706  11.8236696  60.6370739  21.0091618  13.0012810
  20.0591227  64.5300817  59.2015886  19.3406244  63.9312553  58.9981079
  20.5160090  64.6477461  58.3687353  22.5744585  10.8664730   1.7570269
  21.9405512  10.3700808   2.2746956  22.0418123  11.3500861   1.1256468
  67.0443372  10.9119369  60.1134777  67.6183919  10.1459838  60.1116562
  67.5802115  11.6119815  60.4863310  54.2062859  18.0358580  11.7768395
  54.4573692  17.7931193  12.6680577  54.3921379  17.2554520  11.2546742
  63.8618374  47.4644423  33.0701089  64.4582272  46.7404079  33.2606959
  63.0901861  47.2870636  33.6079979  61.3384295  49.2000008  60.6582928
  60.5725861  49.2580032  60.0870228  61.9090223  49.9111462  60.3668737
  54.8283529  49.4583464  58.9436483  54.5804691  50.2455902  59.4284487
  54.0437841  48.9102364  58.9596415  37.4790052  23.9702156   7.9550469
  38.3555035  24.1737011   8.2815087  37.4366573  24.3980387   7.0998204
  36.4849707  71.7883015  49.3096972  36.0790487  71.9104528  50.1679182
  36.0505816  71.0163021  48.9469862  25.5388455  24.4270495   8.0072176
  25.2502159  23.6412075   7.5431311  26.3390163  24.1583279   8.4586060
  60.0011587  57.9163694  47.0611382  60.9409618  57.7931881  46.9276142
  59.8892832  57.8938198  48.0115128  78.5887003  43.5965824  59.2820549
  77.8798914  44.2398548  59.2859316  79.1535282  43.8581705  60.0092173
  37.2795272   6.9698860  60.4099560  37.6291537   7.0575668  59.5232201
  37.8785205   6.3628627  60.8446503  67.4733686  68.8680983  57.1167994
  67.3752689  69.6995115  57.5808668  66.8172503  68.2942009  57.5122547
  25.8600430   3.0448273  29.0761149  26.1507944   2.4848989  29.7959578
  26.4121536   3.8240746  29.1407549  52.4586872  14.2450693   1.3148796
  52.8914932  13.7789944   0.5995524  52.2018818  13.5567501   1.9284785
  65.1177692  38.5355043  45.9737968  65.9020090  38.0901217  45.6531239
  65.3539181  39.4631076  45.9779119  55.3647041  35.1130080  48.0717611
  55.4251862  36.0376954  47.8319168  56.2191486  34.7490764  47.8400183
  43.3915591  61.9690921  20.5300009  44.3042159  62.1890523  20.3431570
  43.4311271  61.0980131  20.9248221  67.7565579   3.9128521   7.6531946
  68.5790257   4.3005637   7.9522907  67.5047688   4.4403866   6.8952143
   3.2647940  39.8346877  44.1631651   3.3845850  40.2427673  45.0206900
   4.1535040  39.7171211  43.8276148  58.1453709   1.1454085  24.8710310
  57.6472763   0.6628779  25.5308020  58.9369587   1.4288953  25.3284800
  74.0186977  33.1011295  39.4613504  73.1721354  32.7303076  39.7104716
  74.2000961  33.7573051  40.1342249  15.2501416   1.5423728  64.2170715
  15.1895595   0.7080318  63.7518358  15.2270150   2.2042133  63.5259390
  69.4771862  67.3144531  45.1290607  69.0962172  67.8645992  45.8134794
  68.8418722  66.6088629  45.0076151  44.0432314  19.7589711  21.7588484
  43.1366877  19.4531277  21.7294752  44.5025543  19.0974215  22.2761595
  30.6887631  44.0280941  13.2380068  30.1835732  44.7890499  12.9517185
  30.5908636  44.0200356  14.1901505   6.5476271  22.1495032  40.4829979
   7.4453589  22.3030043  40.7775307   6.1069437  22.9896951  40.6099129
  45.8998112  24.4289378  20.4293120  45.8254770  24.3682602  19.4769346
  45.5770544  23.5863713  20.7489073  42.2065929  17.1516016   4.0293276
  41.7366890  17.9032019   4.3906080  41.7157702  16.9184903   3.2413065
  55.4208664   5.6682328  33.7312662  55.1008324   6.2097243  34.4527972
  54.6505455   5.1826170  33.4362948  46.8263678  24.7291544   8.7879860
  46.6480545  25.4276875   9.4176543  46.7625288  23.9230040   9.3001187
  74.7030878  44.9158192  53.7459135  74.1795635  45.2834797  54.4579411
  75.5535269  44.7312164  54.1445398  69.6116737   7.3804882   4.6677840
  69.7242741   7.4333790   5.6168663  68.8439945   6.8213299   4.5484650
   9.0168452  50.7288792   9.1779291   8.3788705  51.4034345   8.9451372
   9.8654008  51.1194851   8.9691031   8.9852854  60.6894588  59.7900629
   9.0506121  59.8226547  60.1908350   8.5607573  61.2299824  60.4562759
   4.7191119   5.0920059  40.9103823   5.1499343   4.2405511  40.8351851
   5.3742242   5.7196857  40.6052876   7.7935740  54.2230320  42.6889372
   8.5705992  53.7947416  43.0481529   8.1245848  54.7471237  41.9595623
   5.7882258  28.7962818  59.2756224   4.8769804  28.9696145  59.0393591
   6.2917944  29.0820551  58.5133982  17.6340624  48.9837217  64.5051765
  17.2622057  49.8248243  64.7706985  18.5742518  49.1490126  64.4348478
  66.9811607  65.2981522   9.6125710  66.4752078  64.9946596   8.8588249
  67.8887630  65.0890972   9.3916857  33.5883498  10.3737976  17.0057929
  33.3701396   9.4418289  16.9989169  33.1310439  10.7324840  16.2452376
  24.7425123  12.5675702  43.7101603  25.6403204  12.2559559  43.8244581
  24.4744726  12.2191548  42.8598690   0.7252812  65.6450893  25.4548990
   0.4297567  65.1571371  24.6862566   1.4443421  66.1881353  25.1319659
  16.2665697  50.1978779  27.7940822  16.9257971  50.0158501  27.1243691
  15.5162283  49.6585321  27.5444198  25.2231908  61.2610747  12.7885830
  26.0750795  61.1928369  12.3574650  24.8523736  60.3807737  12.7269614
   8.3987185  65.6431818   4.5686975   8.6482855  64.7659588   4.8592490
   7.5981947  65.5087662   4.0614194  63.3884434  13.4708479  23.4758627
  62.9378037  13.2425192  22.6628363  63.6939148  12.6330784  23.8238013
  44.4496302  25.6035879   6.9468510  44.6053795  26.5473631   6.9824707
  45.1711516  25.2227047   7.4474108  25.1618294  43.7300995  16.2951338
  25.8766655  44.3654374  16.2553274  24.4258837  44.2202595  16.6616976
  15.7819697  37.7419639  27.3197412  16.5411612  37.2229266  27.5851703
  15.3997561  38.0456567  28.1430984   2.3060461  62.5119686  47.1812773
   1.7417380  63.1726456  47.5828934   2.9715964  63.0172348  46.7143965
  77.2618679  46.2320355   3.6721241  77.8637318  45.6312683   4.1115248
  77.7980522  46.9963005   3.4608567  12.5932527   9.6510269  63.6644840
  13.1263566   8.9576484  64.0534067  13.1054282   9.9551822  62.9152155
  34.7097945  30.1910163  58.0231094  34.2407870  30.8801128  57.5525570
  34.2432857  29.3863727  57.7969456  10.8356901  68.6828709  13.4053373
  11.2091013  68.4362459  14.2514884  10.2529474  69.4154978  13.6050963
  14.8114971  48.4429291   3.6621439  15.0529389  49.2337826   4.1443169
  14.8537783  48.7014511   2.7414858  11.7761541  19.8245574  58.6870050
  11.3881326  19.1896965  59.2891884  12.2018314  20.4655506  59.2563534
  72.7198104  10.6147052  55.6613016  73.5938386  10.8859207  55.9419298
  72.7972297  10.4999019  54.7141695  62.9773855  52.5008202  22.4752355
  62.7716494  52.8766727  23.3311796  62.5440741  53.0804348  21.8487239
   7.6987310  26.8371914  62.8953695   7.0155593  26.4874266  62.3233843
   8.1995603  27.4302863  62.3353338   6.0318037  69.1302435  41.9924068
   6.2696954  68.2048886  41.9344616   6.8697783  69.5927547  42.0031118
  35.9757972  17.4299717  59.1990805  35.2780342  17.0595753  58.6585569
  35.8823109  18.3768952  59.0950203  50.6416368   7.7513725  57.2850275
  50.8993435   6.9411194  57.7246952  51.0701513   7.7067882  56.4302635
  60.5997661  21.8436456  51.6651726  59.6807305  21.7303777  51.4227390
  60.6121770  21.7323160  52.6157951  73.5121775  73.6587130  40.8692455
  73.1518960  72.8490947  40.5073833  73.0837989  73.7522128  41.7201185
  59.1348886  20.5108809  62.5459909  58.3925581  20.3548145  63.1297874
  58.7387037  20.6418872  61.6845369   1.9048639  59.7053360  46.6600323
   2.1570083  60.5676769  46.9902182   2.7062102  59.1845821  46.7137909
  10.7308241  31.2550449  33.2153678  10.8645483  31.7175102  32.3880363
   9.7811552  31.1568713  33.2841063  62.1709589  31.0876735  17.8884089
  62.5136117  31.0752191  18.7820875  62.7737860  30.5332263  17.3930132
  12.7452155  72.6217379  49.9247742  12.2740956  72.6338096  49.0916300
  12.3358031  73.3157052  50.4415178  72.6364545  50.6982579   1.1915409
  72.4506310  49.9131121   1.7065632  72.9881839  51.3230123   1.8257344
  31.3623238   0.3564547  37.2263670  30.4212332   0.3042158  37.0594788
  31.4285421   0.6207764  38.1439638  44.9492196  50.0815441  13.4968531
  45.5135850  50.3247227  12.7629673  45.0633518  49.1351237  13.5834133
  28.1393027   4.1550556  48.8301897  27.5116825   4.1874740  48.1081963
  28.9782882   3.9660859  48.4099245  10.6473728  73.9623600  28.7829828
  11.4981028  74.3588172  28.5950661  10.6056686  73.1999587  28.2057166
  31.4517045  13.0147326  57.0061398  32.2245312  12.5013793  56.7706871
  31.1492252  12.6288962  57.8282499  20.7333183  26.6629624  36.1767244
  20.5510092  26.3543129  37.0642686  20.2879119  27.5083804  36.1209273
   1.0495769  29.4214797  57.1828127   0.2277912  29.9092436  57.1281576
   1.7079374  30.0213790  56.8322229  48.9659929  11.2060261  37.5239992
  48.7914038  11.2902200  38.4613705  49.6457958  10.5346286  37.4663424
  39.6880460   3.8499731  57.5977945  40.4150343   4.1471401  58.1449747
  39.3935990   3.0382374  58.0108547   1.9097796  13.8845992  21.9469166
   2.3752953  14.5664048  21.4624906   1.4506769  14.3558073  22.6422000
  11.4744230  23.1499267  22.8710699  11.9255110  22.3236346  22.6978636
  11.9638678  23.5431099  23.5936284  72.7778796  45.4060401   1.9610893
  73.4700803  45.4782607   2.6182568  73.2405070  45.2091201   1.1465800
  78.1969766  40.2426167  16.0197222  78.4665326  39.3454782  16.2164747
  78.8487367  40.7900359  16.4576304  55.3454542  20.3857636  11.5759301
  54.7812176  19.6347237  11.7598093  54.9625778  20.7877517  10.7961583
  56.7886543  17.5562286  49.6340942  57.1453905  16.7140734  49.3517017
  57.3515368  18.2073474  49.2152357  32.2602010  25.7609129  58.8749886
  32.9320192  25.3453183  59.4155216  31.4805150  25.2210331  59.0048122
  62.5286961   3.9701524  37.6897693  61.8226290   3.3687249  37.9263783
  62.2721958   4.8058662  38.0796695  56.5131998   9.8403573  56.7697477
  55.7413864   9.8364103  56.2035990  56.1747265  10.0724745  57.6344967
  73.0046681  67.1162011  12.6333010  73.2170514  66.6580917  13.4464800
  73.8151959  67.0897724  12.1247923  28.8323545   0.6595762  32.9392481
  29.7668529   0.4567939  32.9819703  28.6308193   1.0413851  33.7935519
  42.9817247  29.0448785  64.4872904  42.6694584  28.3123493  65.0184441
  42.4365950  29.0200043  63.7008762  66.2793632  40.6607124  63.8049665
  66.8114134  41.0728293  64.4856372  66.4440294  41.1856055  63.0216375
  70.0128774  25.8527495  22.9847109  69.7199325  25.1523151  22.4017775
  70.8941392  26.0665228  22.6782667  70.4532556  18.3715488  10.7546723
  70.0614432  18.4248652  11.6263783  70.8656434  19.2255392  10.6247914
  59.6838999   3.7026009  42.2798634  58.7736368   3.9804834  42.3820257
  59.9866390   3.5407576  43.1733894  73.0855942  69.9603726  50.3322506
  72.8021240  70.4057269  51.1307096  72.7533615  70.5085860  49.6213961
  54.6777300  32.2709670  14.0300953  55.2629093  32.2119148  13.2749045
  54.8935012  31.5041592  14.5608294  36.8482733  22.2755003  42.8747749
  37.7735066  22.5202823  42.8907967  36.3840938  23.0777860  43.1137514
  70.2941799   5.6944686  17.6494563  70.6305647   5.4399306  16.7902195
  69.6538115   6.3808465  17.4622440  61.4707998  37.2958312  25.2241194
  62.0432452  37.7452055  24.6023428  61.2934212  36.4479880  24.8167765
  61.7647982  23.6119080  16.6716599  61.5177393  24.5358849  16.7098784
  61.5166187  23.2620311  17.5273621   7.3543902  74.2860247  44.9686909
   7.7355834  73.4112737  45.0444078   6.5259858  74.1473755  44.5096111
  16.6493917  42.3640390   9.3531573  17.0835233  41.8371065  10.0240576
  16.4954639  41.7539184   8.6318457  17.5288987   0.6806266  58.4642267
  16.6295493   1.0052112  58.5094738  17.9929829   1.3332629  57.9398966
  46.0157967  26.9465756  59.9485540  45.7326841  26.8813658  59.0365124
  46.8874407  26.5511131  59.9576283  47.2777796  16.0678160  46.5694475
  46.4182520  15.6519496  46.5024233  47.1063280  16.9975770  46.4198446
  17.9157317  24.3505001  59.2383480  18.8394713  24.3973446  58.9918852
  17.5188708  23.7871027  58.5740280  42.7809095  16.5077460   9.9159116
  43.0906248  16.4058208   9.0159559  43.5625935  16.3821566  10.4538941
  19.7850692  23.0951238  45.1120043  19.6163201  22.3270106  44.5663309
  20.5550599  22.8574514  45.6285858  47.4301720   1.8300401  51.4523363
  46.7019892   1.2377177  51.2648964  47.4854708   1.8467641  52.4077892
  42.8326130   0.6011131  39.0034962  42.2442150  -0.1468852  38.9009404
  42.4629927   1.2763667  38.4345984  50.4550791  12.8335857  63.1629753
  49.9768257  13.6385167  62.9640055  49.8482084  12.3199534  63.6960077
  47.1280289   0.5907173  44.6119022  47.9498100   0.5102187  45.0960732
  46.9737101  -0.2839059  44.2548943  63.3214430  40.8968057   2.4103367
  63.3265261  40.9464218   3.3662379  63.4392623  39.9665274   2.2181618
  49.4854784  18.4320807  50.1269007  49.1600466  19.1558921  49.5917177
  48.9852715  17.6715589  49.8308754  66.9391660  27.4109377  11.7834008
  66.9344501  27.1622910  10.8590710  66.9821815  26.5790774  12.2549832
  32.8705287  14.6678710  62.7088547  31.9672823  14.7865629  63.0026007
  32.8170419  14.6936524  61.7534971  21.8892002   3.9849189  52.5193310
  22.6926661   3.7331879  52.0640230  21.1982179   3.8701800  51.8669415
  56.0787582   8.4544718  20.0478721  56.0740995   9.1003358  19.3414223
  55.2202988   8.5455984  20.4613686  68.2742786   8.2022142  18.0041718
  67.9902554   8.0863476  17.0974529  68.0234766   9.1002059  18.2208288
   2.3293777  40.6190704  57.3198128   1.4993974  41.0295509  57.5624418
   2.9243203  41.3533519  57.1678209  34.0034151  22.7485394  42.0589018
  34.2827201  23.2721329  42.8099489  33.1622887  23.1268406  41.8027210
  77.5666594  71.0621472  38.1806684  77.2159481  71.2152170  39.0580511
  78.5048222  71.2325357  38.2646465  65.8650044  43.3507599   4.1684687
  66.0143403  42.8204777   3.3856976  65.8758668  44.2539205   3.8515866
  77.0664290  54.5802071   6.6453182  77.9245357  54.1896250   6.4799940
  77.0997409  55.4279615   6.2021076  59.2079550  71.0667546  52.7166319
  58.3215940  71.3830839  52.5418949  59.3199360  71.1773189  53.6608076
   6.3392516  56.6431342  29.3556023   6.3829156  56.5085279  30.3022861
   6.2509748  57.5906311  29.2522240  65.0657988   0.2188937  30.5656219
  64.1208267   0.3697364  30.5881023  65.2710629   0.1235427  29.6355629
  41.9635439  17.2912705  51.9359684  41.7136097  17.1621251  52.8508902
  42.2833300  18.1927538  51.8999910  42.9255533   9.7832805  46.8350649
  42.5809956   9.3105513  46.0774136  42.5562716  10.6629014  46.7567682
  78.1389312  48.1944932   1.8835175  78.8891915  48.5655775   1.4191496
  78.0415563  48.7454452   2.6601755  33.1754637   6.3784361  45.9472132
  33.3984876   7.2775692  45.7062769  33.3381963   6.3355941  46.8895054
  45.3849602  21.4073634  50.6946421  45.0690556  21.6137576  49.8149586
  46.0565042  22.0668483  50.8688307   7.4488378  51.8136992  21.5206492
   6.8594718  51.6831579  22.2635042   8.0683303  51.0860803  21.5756476
  39.5930052  22.1616888  52.0658159  39.7827578  21.2860155  51.7290354
  40.4032040  22.6522708  51.9274664  39.2034173   8.3505678  56.4595461
  39.5585346   7.9670995  55.6576252  39.0581965   9.2710876  56.2409449
  50.0037432  25.6966114  18.3535266  49.3355274  26.2454939  17.9431069
  50.3661156  26.2420917  19.0516448  19.4947600  69.7589900   2.1102774
  19.9574828  68.9436342   1.9171107  18.7572694  69.7661855   1.5001261
  10.5286133   8.7180680  37.0656013  10.7566106   7.9434979  36.5515089
   9.7111660   9.0307140  36.6779637  54.7671032  52.1540070  52.4268436
  54.9832153  51.8337440  53.3026028  55.6016302  52.4587345  52.0705605
   7.5597807  62.5154017  52.0278358   7.5931974  61.6268812  51.6733694
   7.3958798  62.3941587  52.9630709  57.3001051  12.7791548  46.1009502
  57.4615860  13.5054731  45.4987764  57.1363688  12.0275819  45.5312490
  65.1504230  24.0538239  36.9048166  64.9478865  24.9838090  36.8031287
  64.5676899  23.6127973  36.2866354  44.1016579   4.4997045  54.9020386
  43.7289810   3.7552258  55.3743649  44.1317749   5.2036417  55.5499554
  74.0545205  33.4735553  34.7037947  73.9955214  32.7814444  34.0452063
  74.8783854  33.3009269  35.1595080  62.3531631  37.1820691   6.9210112
  62.6064447  37.8687741   7.5378668  61.4807562  37.4385279   6.6220677
  37.4809742   0.9318681  45.5603027  38.3472085   0.6085413  45.3126574
  37.5377631   1.8805350  45.4461193  31.2929153  23.4876227  41.6547346
  30.3690743  23.2961059  41.8161917  31.3220096  24.4356513  41.5257931
  15.8408614  54.7166418  52.1851873  15.5714341  55.1821934  52.9769564
  15.0222322  54.4003604  51.8030357  25.1038337   9.2970639   7.7012753
  24.2902875   9.2761469   7.1973538  25.7409191   9.6994609   7.1109962
  28.0906888  73.9012930  29.6717858  27.3401948  73.4039883  29.3467045
  27.7978107  74.2553952  30.5114698  62.3203901  56.2292995  32.0720732
  62.2361688  56.3025596  33.0227434  62.6477746  57.0847096  31.7940008
  26.5462132  67.1894901   4.7786027  25.9120389  67.3991560   4.0929678
  26.1434384  66.4706497   5.2657074  56.7557053  63.7016298  12.1861088
  57.4431972  64.3569662  12.3049462  57.1187953  62.9018833  12.5666344
  10.8570838  46.6384276  13.2014143  11.4067960  46.0189988  13.6813652
   9.9782682  46.5032985  13.5558903  71.1099529  37.8349972  51.7689085
  70.3412819  37.3901892  51.4118052  71.3203526  38.5071921  51.1207438
  29.8027563   8.7794209  64.8127270  30.6776047   8.4790909  65.0590515
  29.7555280   8.6306459  63.8683414   8.0880591  12.1999586  63.8285685
   8.9383360  12.4710917  64.1746140   7.5954958  13.0156028  63.7372732
  59.6042967   3.8827786  63.5027504  59.4261169   3.4504560  62.6675367
  58.7454319   4.1722804  63.8106108  72.9997683  22.2419286  51.2512159
  73.7484646  22.5226665  51.7774010  72.4356842  21.7746735  51.8674278
   6.2487527  66.3232868  43.3068705   5.4235097  65.8438896  43.3802652
   6.1997219  66.9906901  43.9912701  43.4233304  63.8878785  62.5041437
  44.1639348  63.2849763  62.4389935  43.6595031  64.4812022  63.2171822
  24.8823953  67.5867607   2.6247895  24.7309041  67.2086288   1.7585909
  24.0483213  67.9948666   2.8571808  60.0448513  13.2234704  56.2999105
  60.6984758  12.5399029  56.4473438  60.0261211  13.3359671  55.3495264
  16.7591544  58.7610577  34.5324779  16.1325475  59.1142224  33.9009166
  17.5771972  59.2193638  34.3401432  39.5621828  61.4247252  11.0609877
  39.4928018  60.8557393  11.8275845  40.4700891  61.3292195  10.7732069
  22.7066708  19.4702542  40.8739853  22.7120638  18.9391828  40.0776434
  22.8242064  18.8388574  41.5837431  40.2587748  22.1653843  63.0562830
  41.1700630  22.4493933  63.1278801  39.7603202  22.8420329  63.5144567
   9.1645205   3.0530781  42.3448086   8.3181930   2.9718050  42.7845287
   9.6399903   2.2599372  42.5919676  10.0122456  26.5558079  10.1532280
  10.1995496  27.1294192   9.4101822  10.6166486  26.8445376  10.8370173
  42.0783424  13.1851602  52.4644947  42.2471142  13.1160963  51.5248251
  42.6618814  13.8831699  52.7619791  46.7237643  53.1929900  17.9324782
  45.7977931  53.4302225  17.8821718  46.7545442  52.2836759  17.6351034
  34.2093706   6.6971892  51.3878584  34.0413022   5.7624465  51.5071917
  34.3219543   7.0356119  52.2761297  68.0597206  50.1530942  57.3545927
  68.1987759  50.5588266  58.2103241  67.5967213  49.3380388  57.5483668
   8.2818729  12.9629683  48.1059504   9.2323518  12.8818119  48.0269909
   8.0655068  13.7461734  47.5999784   0.1898571  28.4045458  64.0393972
  -0.0539450  28.7704968  63.1891775   1.0009810  28.8568687  64.2711401
  29.2061254  74.3749557  64.1326761  29.3962260  74.0030148  64.9939251
  28.6400481  75.1249125  64.3153048  18.9425250  55.1644932  51.3254118
  19.0806743  54.2174243  51.3110590  17.9916259  55.2683877  51.2904596
  48.0974340   9.6856976  46.1979103  48.6725140   9.8601437  46.9429493
  47.4783182  10.4157174  46.1971426  65.3267435  56.9425167  14.6881449
  65.6015805  56.0441377  14.5048105  66.1453799  57.4329283  14.7627365
  35.3734443  25.0324060   1.9226753  34.5956705  25.4884901   1.6012919
  35.3729675  24.1981794   1.4533150  62.3793125  -0.0702502  28.4057522
  61.7020416   0.5096737  28.7539244  62.0434570  -0.3457099  27.5527835
  45.7017994  11.7325699  46.1185551  45.1681900  11.9524491  45.3549147
  45.0668049  11.4923596  46.7933226  63.0272178  62.4681761   2.8775608
  63.9258985  62.1992638   3.0680668  63.1048349  63.3790137   2.5936901
  48.3926062  50.4918172   7.1747505  47.8447989  50.9166088   6.5146792
  48.0676035  50.8297290   8.0092680  31.0360452  74.6595298  46.1189556
  31.8971797  74.9130217  45.7866573  30.9864875  73.7167151  45.9612322
   3.6197897  68.2148753  39.8922586   4.4338151  67.8412692  40.2299166
   3.0426737  67.4609958  39.7704530  10.3981173  32.5996995  62.6206923
   9.7533762  32.1959352  62.0397329  10.3905404  32.0510602  63.4050226
  33.6070510  73.2922223  57.8013039  33.6427089  72.5391819  57.2114801
  34.5230075  73.5371639  57.9326534  32.6613760  22.9441190  57.6503611
  33.0102754  23.7478232  57.2649240  32.2562361  22.4826169  56.9161224
  13.6172807   1.5755419  50.2238321  12.7713192   1.1279055  50.2380323
  13.4753978   2.3380455  49.6628618  75.9555654   9.7378089   9.3824637
  76.4062480  10.5486180   9.6184790  76.0006646   9.1998889  10.1729309
   9.8389745  27.8431101  15.2889836   9.3624711  28.4125568  15.8930552
  10.1297164  28.4269722  14.5884096  45.5757046  17.2197235  19.9117327
  44.6601343  17.2984922  19.6438456  45.5608606  17.3576570  20.8588266
   2.7451941  34.5439410  38.1720591   3.2747027  35.2787971  37.8624892
   2.6100012  34.7214985  39.1028833  13.0315324  67.1825354  35.3081059
  12.5798842  68.0131064  35.1584506  13.6106392  67.3551701  36.0504436
   7.3191520  57.1980415  47.3506403   6.7261907  56.7574142  46.7419720
   6.8712755  57.1540652  48.1954527  70.1893711  58.5834287  42.4470615
  69.6530425  58.4362327  41.6680145  70.6283748  57.7462100  42.5973082
  37.8619957   3.8277227  29.2476010  37.4067926   3.7427789  28.4098625
  38.7302804   4.1574085  29.0160370  12.7139354  15.8555245  39.4606662
  12.4333632  16.6085124  38.9405513  12.6961148  15.1208067  38.8473940
  15.9861171  12.2274899  60.2063417  16.7336261  12.0039237  59.6518326
  15.8234060  13.1535673  60.0270748  74.4870424  44.7293472  43.0947542
  75.2105904  44.6681023  42.4710894  74.5553541  43.9319944  43.6199141
  35.8443900  65.4193507   4.8716900  36.4560863  65.4771970   5.6056601
  35.1895162  66.0937969   5.0519544  75.0067882  34.0927552   0.9460890
  74.8231820  33.9402934   0.0191176  75.6495646  34.8020207   0.9494412
   6.6821047  62.6825260  56.4230967   7.1146699  62.1965967  55.7209635
   5.7473465  62.5826286  56.2428761  58.4637717  34.7914817   5.3462088
  57.9021410  34.7966893   6.1213076  57.8584484  34.6840884   4.6125328
  76.5620176   6.7408901  38.9034367  77.4220739   6.6371870  38.4962749
  76.6655938   7.4857950  39.4955683  76.3744239  52.9349436  37.0652544
  76.8027238  53.2615914  36.2739908  76.4048604  51.9822003  36.9781554
  19.9345497   2.7062157   4.3150818  20.4921917   2.8051499   3.5434067
  19.6983484   1.7786458   4.3225634  24.0411782   3.5391724  50.9063816
  24.7538400   3.3008865  51.4993143  24.1225815   4.4872746  50.8029079
  62.3586253  34.8239604  14.8200762  63.1434683  34.7519754  14.2768728
  61.8420843  34.0491610  14.5984852   4.9196076  36.6119216  11.0223830
   4.1686654  36.3058995  10.5137837   5.6555390  36.0920093  10.6993830
  56.6619778  19.6327710  54.5270395  57.5288582  19.2694151  54.3461370
  56.0613346  19.0791583  54.0280628  41.0027075  11.1574495  12.8085816
  41.0479259  12.0457911  12.4549782  40.6261539  11.2661505  13.6818647
  42.6908922   6.9721884  61.4147758  43.0219173   6.1255431  61.7145205
  41.7680693   6.9721711  61.6689920  60.5075526  48.0934118  64.6164608
  60.3393304  49.0349029  64.6555758  60.1963901  47.8302930  63.7503338
  67.2115517  15.2897751  46.5911865  67.2658300  15.9322762  47.2986317
  66.5140963  15.6172287  46.0232353   9.3878722  26.3835217  25.9002268
  10.2535081  26.6574814  25.5971491   9.2766929  25.5025508  25.5427897
  43.9443970  11.8476164  63.1850624  43.2378578  11.7179489  63.8176918
  44.6801758  11.3505435  63.5425282  75.8417968  25.4927172  11.7195904
  75.1781730  26.1145081  11.4209091  75.9475974  24.8852410  10.9874642
  47.1929292  59.9764277   3.9558041  46.6280488  59.2331149   3.7445557
  46.5987662  60.6331946   4.3189299  53.8738871   8.3816767  50.6326532
  53.3572483   8.2381511  51.4255667  54.0049314   9.3293154  50.6004333
  49.7950935  32.9962921  44.9116373  49.0156889  32.9750848  44.3563795
  50.3289652  32.2641611  44.6030998  63.2214308  26.1079073  63.9977407
  63.6816788  25.3163457  63.7187576  63.3110762  26.1137915  64.9507141
   5.1785588  46.1779251   0.3819668   5.5345225  46.9609322   0.8019936
   5.9163547  45.5691798   0.3456890  39.1590599  10.2008084  21.7328417
  39.3434433  11.0049418  21.2474406  38.4102730   9.8136500  21.2793410
  73.9401388  36.2930346  40.3244638  73.0790281  36.3050628  40.7422829
  74.4341326  36.9786048  40.7741261  61.5086365  22.6591063  57.0908594
  60.7351589  22.5991201  56.5301800  62.2478247  22.5640869  56.4901829
  15.9295631  21.7904176   9.0090048  15.3389478  21.0795309   8.7599194
  15.8235860  21.8687667   9.9570906  62.2570944  21.1237812  48.8045979
  61.4296246  21.4623547  49.1464901  62.5418139  21.7823315  48.1709719
  69.8908118  54.0349521   0.0979101  69.8220090  53.0819537   0.1552641
  70.6381825  54.2550303   0.6539976  72.0446062  50.9238243  55.0341225
  72.6041937  50.7352257  54.2807817  71.3800955  51.5233898  54.6947432
  20.5790373  11.2392402  39.9167371  20.3933760  10.7388568  40.7113314
  20.9063860  12.0806921  40.2345896  76.3548708  14.3442714  48.8922977
  75.5275583  13.8837481  48.7519264  76.6618204  14.5591593  48.0114841
  24.0302682  43.6405923   8.3730471  23.3346534  44.2742803   8.1975710
  23.8345409  43.3063342   9.2483723  76.9320965  36.8567276  42.3921061
  76.0737753  37.0607400  42.0207596  76.7782640  36.8026304  43.3353138
   7.8305670   4.9473330  54.9952459   7.2678991   4.5536014  55.6620407
   8.6860415   5.0229353  55.4179478  60.3377799  72.2859384   4.8899328
  61.0014895  71.8197681   4.3815958  60.7919935  73.0590035   5.2250397
  34.2010900  56.4457105  60.3717756  33.9863511  55.5360471  60.5782509
  34.6349259  56.7740785  61.1593008  14.8703500  61.7903744  41.6847229
  15.1023980  62.7123498  41.7958403  15.6769296  61.3147651  41.8833542
  64.3095684   4.4044995  40.6063414  63.5806322   3.8008127  40.4633522
  63.8938475   5.2197945  40.8868790   1.1755987  40.1328802  42.4884129
   1.0347124  41.0665655  42.6452923   2.0003172  39.9370670  42.9330921
  43.0218363  23.2634902  49.1806555  43.4284258  22.5655413  48.6670589
  43.5913420  24.0213203  49.0480375  33.4459897  71.1542763  47.6082373
  33.3614703  71.8353723  48.2754707  34.1695519  70.6075178  47.9144192
  43.5920715  10.5196977  29.7879386  44.4997263  10.2291298  29.6987271
  43.2609463  10.0410509  30.5478621  29.2448974  53.9486494   9.6644509
  29.5506168  53.1331398  10.0615799  28.3244872  53.7846937   9.4590199
  37.8570628  46.6913022   3.9314663  37.3919559  46.5108027   3.1145727
  37.1841788  46.6278108   4.6092713  50.4947710  52.5617313  61.3890743
  50.8995390  52.9334354  60.6053495  51.0792637  52.8149319  62.1035624
  64.7546959  58.7652588  53.0670595  65.3302479  58.7891054  52.3025942
  64.7180462  59.6732855  53.3676863  59.0155363  36.9764471  44.2485332
  58.9384556  37.8256607  44.6834183  58.9910603  36.3388586  44.9620533
  46.6568279  10.4865408  27.2754812  45.9605694  10.0716567  26.7662382
  46.5106344  10.1842427  28.1718493  59.4623975  73.3288838  22.1238863
  60.1610998  72.9443480  21.5945685  58.6541680  73.0191113  21.7151797
  57.9852200  42.5684929  51.2600899  57.0652676  42.3298454  51.3739824
  58.2901955  42.7751589  52.1435547  63.0032921  23.9850855  52.8680658
  62.2736740  24.5451880  52.6031590  63.5047960  23.8488603  52.0642233
   5.7892462  26.2149763  44.4043207   5.0818010  26.2980151  43.7649059
   5.4046866  25.7134366  45.1232100  70.9140730  33.1984043  48.6350346
  70.1753950  32.7904391  48.1832027  70.6244469  34.0943956  48.8069344
  57.4659395  17.0607865  16.5128553  57.1354151  17.9231727  16.2613058
  58.2210445  16.9178975  15.9422159  77.4842004  63.3591153  22.6058066
  76.9655446  62.5560548  22.6539767  78.3500318  63.0682303  22.3195326
  46.4962796  54.3205788   0.5688393  45.7815389  53.9751687   0.0339854
  46.1476723  55.1311638   0.9398615  22.4031472  68.1007387  28.4734404
  23.1011653  68.0106809  29.1222059  22.8303552  67.9223349  27.6356470
  71.4135436  69.2502620  12.0472252  72.0761804  68.5595109  12.0444405
  71.0145835  69.1959407  12.9156220  44.6669674  27.0501828  62.6040506
  45.2294302  27.0967293  61.8309355  44.9313641  27.7992988  63.1380463
  59.0193490  45.6128927  10.5202448  59.2572001  46.2035485   9.8055517
  58.0879883  45.4374214  10.3860485  11.6547438  50.4698038  26.2999249
  12.5234362  50.6960392  26.6322112  11.2957522  51.2989759  25.9839511
  27.8089639  74.4482612  25.6314564  28.1990596  74.7866254  24.8254991
  28.5218068  74.4696369  26.2699175  11.7055774  31.3730218  17.4245608
  12.4450040  31.5459843  16.8418467  10.9885001  31.8936153  17.0626032
  15.9929347  61.8619062   1.9770920  15.1743198  61.5569236   1.5858280
  15.7290483  62.5733020   2.5606262   7.6386519  62.2589670  35.9422588
   8.4989759  61.8621539  35.8058238   7.7897450  63.1988202  35.8418655
  70.4921103  21.2140083  34.5592976  70.0347328  21.4874172  33.7641335
  71.0205555  20.4642081  34.2858434  14.3292451  61.2203171  16.1872923
  14.3230033  61.5197541  17.0964300  14.6803212  61.9613363  15.6934607
  41.0147190   6.6534579  34.4674730  41.3754892   7.4408221  34.8750710
  40.0671530   6.7878932  34.4840121  56.7046833  29.2647743  62.0718431
  55.8362103  29.0599370  61.7253971  57.1210814  29.7831535  61.3832760
  73.4046412  30.2346563  59.4939137  73.9165449  30.7374430  60.1274681
  73.3990526  30.7776451  58.7056494  59.7185707  28.2651901  40.2112722
  59.5038176  27.6065278  40.8717871  59.5381212  29.1018558  40.6398296
  51.9581270   3.8380909  11.5233636  51.4931488   3.0488905  11.8011963
  52.8786278   3.5769230  11.4968634   2.8192087  67.3872654  28.3894467
   2.4675461  67.9776792  27.7231288   2.0642396  67.1634571  28.9336538
  51.8776055  66.2645649  28.6591172  52.7688666  66.4089821  28.3412695
  51.3165828  66.5814869  27.9512715  -0.1138711  47.7442600  18.0069887
   0.6838584  47.2158398  18.0320894  -0.0146747  48.3622755  18.7311709
  60.0574350  12.6777387  60.2958298  59.5206451  12.8840089  61.0610390
  59.6079397  13.1038702  59.5660353   9.0008207  37.1926022  30.6901598
   8.7323996  37.1858954  29.7713900   8.3713957  36.6194057  31.1277628
  61.4490128  38.6077929  59.6312380  61.1243296  37.7466083  59.3682289
  61.7652369  39.0029168  58.8187647  32.0005611  27.1790818  15.3786623
  32.6224569  27.9043082  15.3192818  31.5405706  27.3250941  16.2052977
  44.3906443  62.2707578  60.0742716  44.3041746  63.2163068  59.9530652
  43.5549681  61.9133779  59.7740254  78.5940484  46.3615342   6.7667782
  77.8013782  45.8864142   7.0161116  79.3004874  45.9055217   7.2241938
  11.8411799  71.7684744  58.6868095  11.0195752  71.3405813  58.9278555
  11.6456457  72.2159362  57.8635359  57.7210999  16.4920700  28.3390737
  57.2338533  16.8557012  29.0783954  58.6405468  16.5921772  28.5856962
   6.7274213  44.1310580   0.2740776   5.9581590  43.7085648  -0.1079738
   7.4707627  43.6550476  -0.0961721  41.5319443   5.2130592   0.3603321
  41.4469290   5.5773103   1.2414250  41.1282301   5.8677179  -0.2094648
  76.1580563  28.0233264  43.0452824  75.9754944  28.7041020  43.6929274
  77.0805407  27.8060961  43.1796646  68.6551217  44.9454786  16.0854685
  69.0446023  45.7833036  16.3356459  69.0998486  44.3007847  16.6357577
   4.3617197  24.0540504  37.5276661   4.5339438  24.9871659  37.4017119
   5.2256724  23.6685586  37.6733184  53.7749481  15.1046634  34.4464660
  54.2525005  15.3530979  33.6549759  52.9292107  14.7900856  34.1270971
  76.0524702  20.2129221  50.8883667  76.8543196  20.7334542  50.9364748
  75.7283068  20.3540444  49.9988556  14.2902990  35.6556606  36.0358548
  13.8077494  35.2051568  35.3427243  15.1292177  35.8829188  35.6348681
   0.4013535  17.2761869  56.8384218  -0.1704458  18.0246174  56.6677475
   1.2446448  17.5283515  56.4622450  36.5750432  18.3125377  52.8548336
  37.3027706  18.8216090  52.4977732  35.8599544  18.4484124  52.2332096
  50.3367710  10.7251894  47.8988266  50.8299255  11.5210843  48.0977869
  50.2694511  10.2691448  48.7377119  31.9650765  71.6117846  60.8819628
  31.1371585  71.8689118  61.2877560  31.7229196  70.9306853  60.2545118
  71.4624643  39.1304064  56.6756296  71.0526419  39.9776363  56.8502188
  71.2854052  38.9649844  55.7496071  60.8675957  47.5510216  44.2278099
  61.2139893  48.4387636  44.1375160  61.6223907  47.0251560  44.4923544
  61.4189768  36.2633896  48.5591507  62.2894764  36.6600847  48.5260916
  61.5651226  35.3962779  48.9372921  75.9624243  28.7857437  33.3584356
  75.1406336  28.5196066  33.7708235  75.7360458  28.9202166  32.4381638
  68.8736752   8.6025025  27.3700487  67.9333047   8.7173821  27.2331583
  68.9449052   7.7933790  27.8764879  46.0528612   7.6051927  33.3814383
  45.4934502   7.7578652  34.1430044  46.7615652   8.2420039  33.4733176
  60.6212854  14.8969281  49.3797159  60.9794140  15.4676557  48.6998320
  61.1301804  14.0894675  49.3071651  11.4851133  66.6904327  63.6120596
  11.5767281  65.7569691  63.4210528  10.9302799  67.0256898  62.9077924
  50.7265711   1.2377881  14.9087954  49.9490356   0.7958864  15.2499557
  51.3868093   0.5474652  14.8473692  46.0981512  25.7859898  51.6334629
  46.7180061  25.1416540  51.2916374  46.6128349  26.3124037  52.2451973
  64.7946596   3.5718966  52.6650667  63.8785601   3.8375416  52.7452040
  65.0112009   3.7326792  51.7466497  21.7054009  13.6756837  30.2823997
  22.5119472  13.8587058  29.8005080  21.4160085  12.8256142  29.9509382
  73.1103420  51.8652868  60.7313108  72.7180576  51.2109709  61.3094282
  72.5004911  51.9321108  59.9965668  78.1750659  44.0553053  14.8309338
  78.1610898  43.9554508  13.8790571  78.4478597  43.1979694  15.1577151
  72.0325422  28.7845755  53.8094330  72.3381376  28.5142732  52.9435301
  72.3777390  29.6705604  53.9194536   4.6286778   0.7003716   1.5562165
   4.2936114   0.4502753   2.4172747   5.2770952   0.0280503   1.3470042
  11.6692349  70.3134553  38.2104993  12.2272321  70.5621289  37.4735904
  12.1464106  70.6134282  38.9841604  57.4297237  41.8203640  64.0155554
  58.2916212  42.0974255  63.7047529  56.8682528  42.5829220  63.8759327
   4.7053858  60.8951855  34.7412372   5.1172777  60.1046705  34.3924260
   5.3106257  61.2028313  35.4159689  46.5606546   4.4057474  50.9601927
  46.3174105   4.8476627  51.7736912  47.0130587   3.6117342  51.2449789
  16.6105104  40.6275182  15.3670656  17.5244451  40.4079886  15.5480635
  16.1101651  39.9114468  15.7583773  48.1683445  19.1075087  55.7230711
  48.1586981  18.3089209  56.2507010  48.9985561  19.0707231  55.2480650
  72.7531699  68.6541631   1.2056792  72.2297887  68.4276082   1.9744313
  73.3724050  67.9298260   1.1155760  24.0375253  63.2626043  23.4515095
  24.1704150  62.6753758  24.1956449  24.9073669  63.6175941  23.2682204
  68.1687069   9.1939491  44.2506552  67.5247622   8.9419132  43.5888052
  68.3596945  10.1126099  44.0613985  28.9620733  17.8081191  56.1487436
  29.7395134  17.4873495  56.6058302  29.2188907  17.8317451  55.2269459
  76.6097716  69.4748856   3.2291472  76.2131576  69.7149541   4.0665829
  77.2808198  68.8316585   3.4575903  24.7147755   4.7201661  18.1822645
  25.4878763   4.6640757  17.6206553  23.9874605   4.8582390  17.5754893
   7.4516225  55.0353982  18.5864222   7.8446555  54.5392634  19.3044817
   8.1561589  55.1272942  17.9450094  15.8962767  43.8645872  64.5482997
  15.3664581  43.7142887  63.7653994  16.2179272  44.7609046  64.4513922
  55.8176470  16.9935668  26.2431192  55.2671337  16.2253499  26.3948178
  56.4994049  16.9356287  26.9125032  54.6824745  19.9875716   7.8204500
  55.1650051  19.2417649   8.1770622  54.0515808  20.2135828   8.5039103
  31.0720205  13.9553416  24.6392584  31.6763234  14.6905589  24.5367718
  31.5380812  13.2081473  24.2641330  68.1007576  39.2198849  53.4073877
  68.8460922  38.7863970  53.8230753  67.5717258  39.5398641  54.1381216
  19.9128175  66.1241939  19.6484720  19.7810960  66.4177253  18.7469637
  20.7503533  66.5095593  19.9058878  16.2033105  64.2613675   9.8184597
  16.5366674  64.4586660   8.9431441  16.9567514  64.3862965  10.3954804
  67.2980356  36.3652015  56.1861801  66.9073248  36.3159394  57.0586205
  67.6651382  37.2478724  56.1376429   4.3115115  30.9874340  22.7998221
   4.5973373  30.0766178  22.7294791   4.3629050  31.1830129  23.7354147
  53.2315779   0.6669296  49.7386312  53.8700151   0.5122604  49.0424252
  53.2206202   1.6179572  49.8466063  18.0804463  70.7507222  12.5984025
  17.2311040  70.3644131  12.8119862  18.0043813  71.0025792  11.6780686
  28.6114550  19.7082579  47.6383162  28.7693071  19.1355550  46.8877649
  29.4843626  19.9884439  47.9135609  79.1770554   3.8211963  31.1946106
  78.5533571   4.4747362  31.5110254  78.6744213   3.0073059  31.1603451
   5.4578090  16.0139110  14.9172985   5.2873397  16.4351346  14.0748369
   4.9553847  16.5289475  15.5486071  29.2112494  19.9158287  51.6868639
  28.5519075  19.4386733  51.1830616  29.4239569  19.3328738  52.4156666
  69.3175375  66.4012806  42.0908022  68.4479451  66.1378448  42.3918676
  69.4599485  65.8906244  41.2938166  49.4630098  29.4526744  53.2413054
  49.8779154  28.6059737  53.0764246  49.9034500  30.0558519  52.6426220
  52.4273042  69.5961000  22.6756251  52.0075182  70.4487349  22.7897703
  51.9609097  69.1958310  21.9418013  25.9954592  21.4017200  42.0665789
  25.8778807  22.1365023  42.6686668  25.5335375  21.6673636  41.2714100
  42.4850082  12.5975585  49.2858362  42.3330450  12.0525920  48.5137272
  43.3964777  12.8785169  49.2050695  20.3586885  61.7587935  19.9559391
  21.2394544  62.1264039  19.8828411  19.8796960  62.3896395  20.4933691
  68.0362443  10.5662204  50.9407854  67.7733926  10.9039642  51.7969799
  67.6210431   9.7055580  50.8850718  16.5707576  25.0384665  46.0593414
  17.5241768  24.9881673  45.9908390  16.2651813  24.1726255  45.7888317
  36.5134406   7.6196808  45.3397512  36.3087797   8.0627334  44.5163155
  36.6846681   8.3301789  45.9578991  24.9644494  40.5010026  10.8713066
  24.4844842  39.6754192  10.9367049  25.1757360  40.5821957   9.9412548
  29.8557734  19.6877539  61.5652561  30.0383830  20.6272149  61.5480280
  29.3168235  19.5342481  60.7892370  46.2427664  10.0939810  43.2461500
  46.8950272   9.4046146  43.3709145  46.6884947  10.8970559  43.5156536
  20.4788661  71.7631866   7.6296103  20.0539518  70.9196355   7.7848589
  21.4134526  71.5586020   7.5992071  69.2229509  17.4749649  29.2367482
  68.6583948  17.1987438  29.9586964  68.8630915  17.0319939  28.4683013
  76.8957806  49.9540900  36.4431143  77.0165443  49.5169018  37.2860360
  76.0128546  49.7060512  36.1689782  69.5343045  37.7587342   6.4084255
  69.6052579  37.9835981   5.4807245  69.3067388  36.8289886   6.4127886
  52.3093939  11.1043525  33.5488486  52.9185295  10.7681191  34.2062187
  52.1790075  12.0214570  33.7899947  31.6766902  59.2699574  38.6031318
  31.4409848  58.7530349  39.3735003  30.8417054  59.4510506  38.1715751
  53.1812954   1.9503890  43.8687801  53.2020140   2.1284130  42.9285097
  52.2793198   2.1383184  44.1283131   7.0112487  59.4008862  52.3853111
   6.1292263  59.0898107  52.5890255   7.0239612  59.4770371  51.4312267
  66.0213423  15.5606043  28.3379436  65.6515121  15.2639484  27.5064087
  66.5645361  16.3131034  28.1036019  35.6733942  12.5926733  41.6950750
  36.2741590  13.3356571  41.6377497  34.9480414  12.8259134  41.1156797
  64.1242409   0.4218543  35.1555252  63.3615732  -0.1555692  35.1894355
  64.4898081   0.3879638  36.0395193  77.0376281  25.5808808   6.6510784
  77.1619014  26.0618653   5.8328831  77.2850446  26.2033941   7.3348105
  72.9944181  25.1090169  29.1540074  73.4280825  25.3455400  29.9738979
  72.6245832  25.9313655  28.8327694  76.4796591  41.2231684  28.7443233
  76.0554075  42.0448923  28.9913297  75.9196806  40.8615446  28.0573845
  20.3897719   5.3633812   4.8056900  20.5479340   4.6130637   4.2327702
  21.1961178   5.8767870   4.7560799  67.9086351  19.9793458  47.5582409
  67.7840281  20.7462835  46.9992113  68.7314320  19.5942700  47.2566557
  66.3461447  22.6652145  33.3498740  66.0588503  22.4350619  32.4662900
  66.1976528  23.6087942  33.4118414  33.6658883   9.1933411  45.2793217
  33.0060887   9.6887803  44.7941065  34.4320369   9.7669119  45.2956581
  57.1590137  24.1367316  61.4111185  56.4381695  24.7632980  61.3476467
  57.8647518  24.5308208  60.8984280  48.0003309  46.2419081  59.2401648
  47.3610544  46.5608835  59.8772001  48.7117815  45.8859396  59.7724724
  53.3368587  20.9649014  57.0114088  52.7864361  20.2285314  57.2779179
  54.2052698  20.5820417  56.8868589  67.0775441  36.0140013  16.3101732
  67.1584157  36.3809967  15.4298270  66.3208822  36.4622935  16.6879713
  30.4248381  27.8646827  56.8380976  30.1981640  26.9355679  56.7981482
  29.6760082  28.2755494  57.2701550  46.8802980  14.5684842   4.7529137
  47.7071814  14.0947655   4.6629822  46.2066130  13.8978127   4.6407330
  69.8190784   6.6253030  51.6625834  69.5850706   5.7595682  51.3279533
  69.9220562   7.1651947  50.8789110  54.6258783   5.1942623  43.4137440
  54.1105127   4.4966513  43.8186693  54.9389219   5.7192242  44.1503906
  33.0931429  20.3115538   0.3231919  32.3950724  19.8417881  -0.1331508
  32.8571085  20.2511099   1.2488615  61.3961029  36.2266564  52.7285385
  60.5136013  36.0971618  53.0758905  61.6128111  35.3941679  52.3087406
  32.0167927   7.4086550   3.6997044  31.3689379   7.2576598   3.0114329
  32.3058609   8.3108357   3.5627854  37.6425461  15.0760010   3.5383332
  37.1269802  15.7677058   3.1236422  37.6488117  14.3650225   2.8974736
  46.2314415  27.9186416  56.8369770  46.9724941  28.3400249  56.4016438
  45.6030035  28.6265349  56.9790506  72.4035025  55.6524181  63.2089615
  71.5802050  56.1284208  63.1002092  72.5488949  55.6383801  64.1549540
  79.0323190  53.8059833  10.1008713  78.0971936  54.0052237  10.0552761
  79.4606952  54.5843651   9.7447169  12.1820378  50.9569063   2.0027363
  13.1334901  51.0613872   2.0103895  11.8808913  51.5551021   1.3188517
  61.1611462  49.8619509  46.2860203  60.8565664  49.1324234  46.8256998
  62.0859337  49.9583340  46.5134239  69.6247721   0.4565507  51.6157913
  69.1491032   0.3185527  50.7966900  69.2263699   1.2399132  51.9950676
  57.9353619  64.7180557  51.3189745  58.8264751  65.0156689  51.5022230
  57.8214979  63.9467430  51.8742657   3.4670397  14.0934682  33.3961892
   2.7620264  13.6811018  32.8970456   3.0802199  14.2736423  34.2530084
  66.9018555   8.1686956  50.0406551  66.7711687   8.3522922  49.1103601
  66.0756397   7.7787447  50.3261995  25.5322286  72.1345423  44.5451927
  24.7497865  71.5988992  44.4143915  25.3399488  72.9545011  44.0902948
  53.9592123  35.0149035  62.6416349  53.5345554  34.6866608  63.4341955
  53.2720804  34.9940586  61.9755650  24.6698137   9.0521538  54.9223375
  23.7827154   9.0116656  55.2796078  24.6668287   9.8275495  54.3611050
  42.0144129  27.2083569  61.3368893  41.5515375  26.3853025  61.4936066
  42.8452206  27.1081567  61.8016005  71.9784621  71.5434768   5.9023535
  72.4468497  70.7091858   5.8740294  71.4908532  71.5165736   6.7256033
  48.3622980  36.2917781  54.6718502  48.0577898  35.4725838  55.0622702
  48.8893700  36.7023945  55.3572845  19.4847751   3.8315016   7.2272170
  20.3272414   3.4409195   7.4594349  19.3375468   3.5619119   6.3206422
  26.7728730  64.4471024  45.4092598  25.9203836  64.6483396  45.0232553
  26.9298049  63.5313164  45.1791716  11.9512010  73.2387187  33.8982260
  11.5337825  72.6774647  33.2447874  12.6339364  73.7031366  33.4140551
  70.7119751  11.9058669  36.1540842  70.7364178  11.6473973  37.0754027
  71.1799097  11.2071693  35.6968164  66.5050105  56.0337283  25.3230726
  65.9492091  56.2869729  26.0600912  67.2904519  55.6680300  25.7299864
  19.6045466  60.0617956  44.9597168  20.5380364  60.2173101  45.1033926
  19.3978330  60.5593465  44.1685486  39.7781893  17.6231921  17.8466058
  39.7979971  18.4174490  17.3127568  39.6707102  17.9400158  18.7434351
  59.7540668  70.9892847   7.4367440  58.8515834  70.7208230   7.2644531
  59.9741224  71.5706469   6.7088520   1.2949988   6.8940997  60.4887581
   1.5014692   7.8226662  60.3821421   0.5497118   6.8818671  61.0892773
  40.8959293  14.1459036  13.4572315  41.2423420  14.2743266  14.3402612
  40.8868742  15.0228262  13.0736208  76.1570195  21.8244304  35.1643336
  76.4688567  22.7285339  35.2041876  75.2057818  21.8954350  35.2439368
  34.3365026  13.1989396  59.4408846  33.4242892  13.1188965  59.7196245
  34.3330407  12.9170942  58.5261250  66.8350200  45.1337965   5.9366905
  66.8844966  44.4429823   5.2759659  66.0282639  44.9482485   6.4172613
  38.5482264  14.7728407  55.7180166  38.7610865  14.6143305  56.6376877
  37.6292777  14.5173752  55.6373930  78.5650873  15.0875580  44.7977400
  79.4681835  15.0893724  44.4804955  78.1284857  15.7650626  44.2814112
  65.2526692  38.0117885   8.9614832  64.9361972  38.6342696   8.3068096
  65.2896146  37.1750019   8.4981739   3.8121247  74.0814235  11.1257231
   3.1739211  74.6595885  10.7078039   4.5013452  74.6692492  11.4350188
  43.4151268  32.1215916  46.5769196  42.8292847  32.8183055  46.8729210
  44.2938375  32.4520254  46.7637634   5.3943515  66.2421085  21.0775625
   5.9484220  66.9911410  20.8580553   5.6596685  65.5592348  20.4615080
   9.0667606  46.5838124  19.0097010   8.1219888  46.4507778  18.9326155
   9.2135406  47.4645819  18.6648333  18.9778539  64.0695082  21.3852239
  19.1679450  64.8829769  20.9179282  19.6964284  63.9793049  22.0111203
  50.7758331   7.4348456  45.4369640  50.9819269   6.8961000  46.2008429
  50.4236650   6.8171072  44.7961760  12.9867216  11.9121766  35.4047370
  13.3909460  12.3744488  34.6704745  13.7180468  11.6950130  35.9828591
  45.6618933   1.7055944  -0.1051319  46.3068823   2.2026089   0.3980553
  44.9268059   2.3088721  -0.2143800  43.1732512  27.1575546  47.9212618
  43.9682245  26.7155766  48.2194233  42.8753710  27.6544976  48.6831999
  16.5989184  55.0628771   9.3922055  16.7485166  55.9480586   9.7243321
  17.3990464  54.5859601   9.6126044  62.9564905  31.9853306  51.9468737
  63.3502245  31.5354300  52.6944017  63.4783745  31.7034030  51.1956215
  15.9024783  62.3835050  62.9303598  16.1773416  62.6862858  62.0649099
  16.6507264  61.8847846  63.2584286  12.6219535  58.8347485  19.0450346
  11.8387818  59.2268874  19.4311678  12.3689151  57.9312326  18.8556540
  31.0087446  24.5037821   3.3448326  31.3015179  24.2711094   2.4637091
  31.4829163  23.9041689   3.9209091  62.0675087  27.5118780  33.1547379
  62.2210312  27.0531797  32.3287487  61.2261724  27.9514956  33.0317903
  54.2559794  74.2957045   8.6087811  54.9712972  74.9265959   8.6895478
  54.5678071  73.5192420   9.0736449  15.6561204  70.6800865  52.9803514
  14.9223920  70.1939960  53.3566332  15.7813378  71.4213713  53.5728455
  69.9185848  67.9381323  50.9532642  70.5683804  67.6302624  51.5851021
  69.6900415  68.8176489  51.2540054  36.7472982  23.5936666  58.9977217
  37.2870064  22.9778910  59.4934702  36.7992759  24.4107580  59.4935989
  41.4443660  37.8334687   7.9356062  41.4267993  36.9302667   8.2520735
  42.3603320  37.9887355   7.7051317  43.4245920  41.7687607  44.5741987
  42.8012085  42.3552132  44.1455984  43.4969997  42.1070576  45.4666901
   5.3012701  25.4540610  62.5164700   4.5696684  26.0094190  62.7858639
   5.5031916  24.9309444  63.2922316  57.8896761  44.7522020  49.6627569
  58.2344866  44.3673992  48.8569832  57.9627705  44.0530586  50.3124380
  48.1824184  74.0507700  12.0990574  47.8829074  74.4567587  11.2856066
  49.0884090  74.3446996  12.1940195  67.2233868  23.8179731  40.3445673
  67.2417641  24.7136879  40.0075388  66.3358593  23.7087011  40.6860065
  57.5292400  11.9331387   7.0901596  56.9847015  12.6431206   7.4302113
  57.2714905  11.1669949   7.6028216  61.7401743  15.9524429  57.9894733
  62.1152639  16.2185037  58.8289642  61.0472202  15.3343523  58.2218838
  77.2321510  42.8882837  43.5498762  76.5850115  42.6669693  44.2195463
  78.0234909  42.4211788  43.8178778  49.9639416  40.3564215  44.9649239
  49.8197556  39.6476555  45.5918980  49.1663599  40.3742409  44.4359875
  33.9505434  11.6230905  33.1906390  34.3810773  12.2948122  32.6618075
  34.6657944  11.0681319  33.5015559  76.4180517  64.3858814  42.6431847
  76.1865568  65.0633240  43.2785702  76.9964600  64.8279953  42.0217228
  50.8706903  26.9444132  58.4336567  51.6163874  26.9960260  57.8357410
  50.6450272  26.0144472  58.4553719   7.4826380  17.4199653  59.9956131
   6.9416853  16.6600287  60.2103233   8.3571764  17.1872365  60.3074789
  70.5627584  19.2957902  43.0924463  70.3747272  18.8838911  42.2491121
  70.6164837  20.2309799  42.8955555  57.7835369  71.4802027   0.0359608
  58.1219769  71.9738388   0.7829652  56.8390512  71.4371967   0.1853825
  78.2669067  32.2544408  44.8482609  78.6766624  31.6743636  44.2065096
  78.8228226  32.1838355  45.6242752  55.0193739  22.6652551  62.5141287
  55.8178949  23.1827664  62.4103355  55.2376366  21.8108201  62.1419287
  65.1896763  50.2402020  36.4775252  64.5728970  50.3152752  35.7493925
  65.9602690  49.8194218  36.0962558  24.1829896  69.6811940  21.5486777
  25.0046086  69.7216155  22.0381033  24.1188026  68.7697889  21.2632715
  70.7918119  38.5449409  48.0098486  71.3373280  38.9647698  48.6749744
  70.0343847  39.1234541  47.9212236  42.6866055  31.7722631  60.6307840
  41.8854475  31.9492149  60.1377678  43.3731699  31.7304325  59.9651146
  57.4741030   5.7136953  31.7062473  56.7959261   5.9274018  32.3470569
  58.2423925   6.2045211  31.9978833   8.4012552  28.2745838  60.3310776
   7.4640700  28.2053971  60.5130816   8.4783884  28.0841041  59.3962002
  33.1715365  73.1463520  31.4838052  33.8816806  72.8120870  30.9359074
  33.0814572  74.0637177  31.2258172   1.6890761  49.4025278  56.4283228
   1.8311354  49.2943907  57.3687220   1.0916468  50.1473093  56.3604259
  71.2405920  49.1312408  41.8568659  71.3088369  48.2301140  41.5413523
  72.1426439  49.3861055  42.0507002  25.2898165  12.7898657  48.3736753
  24.4099852  12.8963983  48.7353086  25.3481909  13.4534180  47.6862717
  70.0861979  54.9143410  57.7412271  69.8721886  53.9813709  57.7388811
  69.3587828  55.3257561  58.2079601  58.9597225  43.4025002  47.3976707
  59.4843435  42.7171659  47.8115797  59.5935345  43.9261341  46.9074488
  33.8955120  20.0349930  10.9340966  34.0709166  20.9466198  10.7008612
  34.6014837  19.5410088  10.5171835  58.5635662  27.6643348  50.0237322
  59.2092609  26.9820237  49.8399734  58.9872026  28.2265592  50.6723213
  62.6108313  22.6022077  36.1415863  62.6484585  23.4213305  35.6477690
  61.7768097  22.2073007  35.8872461  41.1063337  41.2683535  47.9339504
  40.7094479  41.6018200  48.7386322  40.5500603  41.6091061  47.2334671
  64.9994663   8.9375142  16.5039885  64.1909985   8.4682396  16.7098772
  65.1295857   8.7908295  15.5670798  66.9163827  42.6387294   7.5139630
  67.1500281  43.5390522   7.2879946  67.5450829  42.1002885   7.0332825
  22.9475828  42.5685310  53.8594913  23.4599157  42.0744038  53.2195091
  22.0781180  42.6409483  53.4657574  12.8803134  63.1661965   1.8265974
  11.9773841  63.4734084   1.9076359  13.2833219  63.7691881   1.2019264
  70.1664448   4.9272788  35.7242274  69.8300409   4.8193714  36.6138458
  69.3849134   5.0546396  35.1864386  47.9403400  44.1906548  42.8724337
  48.0287457  44.2746305  41.9230318  47.0770216  43.7969971  42.9987049
  39.5110611  14.8355320   0.0929224  38.7392859  14.9020413   0.6552136
  39.4675259  13.9508417  -0.2699173   6.0493684  65.4978659   3.0811751
   6.0707784  65.6834175   2.1423733   5.2062392  65.0667908   3.2209503
  77.5660801  18.5946488  60.7819128  77.4865484  18.4313178  61.7217159
  78.0062246  17.8164589  60.4399681  27.2139764  68.0967977   7.5158179
  27.8946376  68.6201860   7.0927346  27.0446801  67.3824336   6.9016087
  55.2154827  34.4835496  56.3388109  55.0410223  33.9293551  55.5781126
  55.6760693  35.2427530  55.9814548  40.3711990  14.5395640   5.6298792
  39.6664719  14.2342165   6.2011540  39.9794010  15.2534703   5.1268208
   1.9028640  70.8657505  10.0789559   2.7136350  71.2681891   9.7676146
   1.2534785  71.0882737   9.4118654  47.1370649  28.2514644  52.6633978
  46.9832850  28.4473681  51.7391634  48.0033112  28.6161709  52.8446245
  24.1350321   7.2613171  13.6205494  23.3118204   7.6241806  13.2936203
  24.8122267   7.8126648  13.2285654  49.3662234  72.2635669  60.6950855
  49.8901530  71.7961167  60.0445271  48.4633370  72.1604900  60.3944111
   5.0163695  24.9857163  40.4272175   4.1869398  24.5800686  40.6796598
   4.8976656  25.2209115  39.5069838  15.2389666  34.5370746  53.9412642
  14.8574301  35.4062939  54.0642452  14.4857069  33.9613271  53.8095331
  69.4656467  36.2111998  38.5121775  68.5393238  36.0138798  38.3735347
  69.9171162  35.3896499  38.3186150  65.9469366  43.4021950  56.8689585
  66.5800428  43.1440783  57.5388718  65.0935555  43.2305479  57.2670841
   6.6750094  52.3646259  18.8960326   7.1067186  52.0366526  19.6848869
   7.3232504  52.9399824  18.4898567  46.8010426  35.2169824  46.3928032
  46.5750885  36.1318064  46.5609455  46.5327692  35.0667191  45.4863405
  21.7762419  40.4427862  32.9597163  21.9968172  39.7279143  33.5568190
  22.5756403  40.5872869  32.4534464  75.7998753   1.1243365  45.3263235
  76.5852356   1.6507401  45.4757833  75.0967884   1.6178730  45.7486105
  66.7711306  29.9766183  41.3483191  66.9125700  29.2414951  41.9448280
  66.1909580  29.6277571  40.6716204  70.9688377  15.5087018  47.9672956
  71.2677336  14.6190667  47.7790308  70.4520750  15.7551205  47.2001791
  73.0559635  40.3740931  42.7016211  72.5497007  40.1516199  41.9203186
  73.1982946  41.3182306  42.6339865  21.5665555  60.4001142  14.6541893
  21.4011645  60.3281166  13.7141430  21.6123080  59.4940378  14.9594176
  31.9608256   9.6082282  56.7218828  32.0750281   8.6638713  56.6152096
  31.0454031   9.7109026  56.9820690  12.8898188  28.0273676  16.7569530
  13.4519907  27.9637337  17.5290537  12.0096155  28.1534743  17.1113050
   6.7647787  18.6673844  25.0796080   6.9093271  18.8857329  26.0002947
   5.9709593  18.1325364  25.0820684  74.9276972  14.6447384  16.5239322
  75.0999165  15.1099765  15.7053208  74.5750999  15.3141594  17.1102619
  65.6539345  21.1690736  12.2460270  65.3889227  20.2493429  12.2558594
  65.6744337  21.4025140  11.3179564  44.8679161  60.6838036  62.5369787
  44.5894146  61.1674595  61.7593241  45.8240414  60.6877565  62.4918365
  34.1554233  72.8835048  43.9634943  33.5212060  72.2785112  44.3481827
  34.8695394  72.9185175  44.5999241  16.0917735  66.7383766  59.1082478
  16.8347394  67.2313261  58.7600660  15.4319489  67.4043226  59.3015814
  64.6466446  60.0231457  57.3828459  63.8131332  60.4763365  57.5097656
  65.1156902  60.1489305  58.2077169  62.5884199  29.6448016  56.5373421
  63.2250261  29.3171120  55.9020567  62.3567343  28.8781261  57.0615196
   5.7769056  15.3509355  60.3981972   5.5598303  14.9296224  59.5665741
   4.9606463  15.3297067  60.8976984   2.9906508  11.7556679  45.9815884
   3.8302084  11.3226545  46.1360836   2.7964731  11.5801287  45.0608730
  74.7494078  31.6882038  61.4788437  74.8779154  30.8641100  61.9485092
  75.3036451  32.3165870  61.9416523  15.4406210  46.8937540  18.6142147
  15.7048174  46.2223148  17.9852426  14.9619623  46.4137745  19.2900419
   7.0828863  30.2785206  25.7524967   6.6041037  30.6736040  26.4811301
   7.0349260  30.9301615  25.0530005  12.7323671  40.5004263  29.3736315
  13.1037756  40.3183174  30.2368379  11.9168135  39.9997330  29.3533158
  50.4741812  31.0413122  51.2887907  51.3342857  31.3042212  50.9611702
  49.9550772  31.8453312  51.2709713  16.1810824  54.6873426  29.6810961
  15.7611700  55.2659369  29.0445924  16.9521185  55.1730156  29.9741149
  63.2584095  31.1925960  38.7159038  63.7140512  30.5224252  39.2253089
  62.5608015  31.5002775  39.2946148  22.4739385  62.3124005   3.7754023
  22.7549052  61.4382150   3.5050547  21.7739606  62.1538164   4.4087422
  60.9866814  17.2425059  13.0953657  61.4018349  17.9493645  12.6011717
  60.6543926  16.6449717  12.4254668   2.0092341  37.9702425  39.6829748
   1.4512297  38.5759449  39.1951394   2.6746985  37.6964378  39.0517735
  59.2837051   2.0040706  22.6856386  58.5573582   2.1138552  22.0719492
  58.8969235   1.5535501  23.4364092  40.1635718  54.2666234   2.1403038
  40.4170871  53.3458604   2.2047865  40.3099036  54.4915571   1.2214863
  70.2140713  51.6362190  59.3115187  70.9472084  51.7630577  58.7093115
  70.5106735  50.9494162  59.9086475  65.3344870  62.2802067  41.1511374
  65.5296087  62.1182489  42.0741367  65.7013988  61.5243578  40.6925583
  70.5863190  44.1665125   9.5640635  71.4424992  44.5920515   9.6099710
  69.9577045  44.8834562   9.6481389  76.8535376  39.9507475  51.3174486
  77.3754883  40.4087400  51.9762707  75.9772110  40.3262663  51.4026785
   3.7219092  29.6890187  47.1811390   3.5788103  30.6309628  47.0889616
   4.5944544  29.6160269  47.5678873  65.7696823  72.0713260   1.9616997
  66.4666728  72.7146198   2.0905840  66.0916976  71.2796785   2.3927796
  25.0799680  63.8860824   3.5802185  25.5055976  63.8638331   2.7231419
  24.1590953  63.7017347   3.3951771  66.2504435  51.7315483  54.0644121
  66.5608883  51.9596767  53.1881618  66.7356539  52.3133993  54.6494341
  53.7435409  74.4047568  62.8126526  53.8902350  73.5313655  62.4494696
  52.8352853  74.6077717  62.5888395  10.6525751  13.6696017  55.9479237
  11.0105749  13.6112785  55.0621080   9.9414583  13.0290079  55.9615183
   6.1417794  51.4705457   3.7547982   6.2145448  52.0363368   2.9861510
   5.2068162  51.2767054   3.8218748  57.9673815  59.9331188  42.0710230
  57.8688908  59.2258930  42.7084923  57.6628304  60.7149458  42.5317097
   3.0542036  29.5173931  38.6660075   3.4645029  30.3498697  38.9002609
   2.2998949  29.7643209  38.1309700  70.3618793  59.3363048   4.4673931
  69.5271424  59.6494390   4.8158037  70.9801988  60.0421192   4.6564305
  10.3041768  64.0376427   2.0958388  10.1551318  64.9444034   1.8278754
   9.4266105  63.6818220   2.2354662  61.4639473  22.6877499  63.5751867
  61.4961338  21.8719053  64.0747833  60.5752182  23.0165291  63.7104559
  67.1508026   4.9738991  46.1896992  67.8400135   5.6086469  45.9939623
  67.6204062   4.1628394  46.3843441  67.6670647  41.9706488  45.2248335
  67.9082012  41.2124157  44.6926928  66.7385387  42.1089268  45.0378704
  75.6334312  22.5345305  16.5798819  75.4544480  22.7586535  17.4931013
  74.8517640  22.0634488  16.2912524  50.5308676  37.7205300  59.4839191
  51.4816284  37.8160477  59.4276714  50.2442884  38.4754992  59.9978542
  44.7532034  32.9913497  51.6250610  45.0902557  32.8019571  52.5007057
  45.4839087  33.4134841  51.1732817  15.4100176   1.5628651  13.8881361
  15.9599539   2.3005295  14.1520607  15.6855532   1.3670668  12.9926050
  66.0409975  35.6867623  58.8372612  66.5334606  34.8760962  58.9658451
  65.3204155  35.6313801  59.4648933  74.1725329  51.6347422   3.3281433
  74.3640355  50.7028665   3.2224715  74.2285756  51.7852749   4.2717707
  50.6237511  28.0572775  16.0838187  51.0232929  27.7351883  16.8918192
  51.3541702  28.1357602  15.4701864   6.4232850  49.0548553   9.4907200
   5.8075976  49.2640879  10.1931298   6.8134523  48.2215502   9.7545445
  25.1442000  25.5664253  56.7245531  25.8479925  25.3321075  57.3295403
  24.4708582  25.9582996  57.2806883  36.3859058  71.3109614  23.1218111
  35.9756827  72.0242502  23.6108553  36.6514087  71.7102363  22.2933638
  67.8301239  43.8283062  50.8928490  68.2663393  43.0162430  50.6349659
  68.5218239  44.3550110  51.2933111  49.4910908  68.0713749  58.3257341
  49.2259884  67.4069357  58.9617205  49.8359299  67.5709677  57.5861979
  30.1797462  10.7474185  52.1712112  29.8708415  10.0872756  52.7917147
  31.0702300  10.4726268  51.9526958  38.4333396   1.4082676  58.6271620
  38.4182358   0.9760294  57.7732468  38.9797544   0.8423039  59.1724634
  34.2510414  16.8305123  57.3152924  33.9351678  15.9777069  57.0166636
  34.8303270  17.1301234  56.6146564  58.9760403  72.5887014   2.0756352
  59.8815302  72.7181794   1.7935812  59.0469674  72.3125317   2.9893839
  69.6501569  57.1711220  22.6857626  69.4014386  56.2920048  22.4002325
  68.8222293  57.5894215  22.9219687  39.0756726  11.6424239  46.3470697
  40.0105810  11.7973340  46.2122488  38.9365315  11.8129504  47.2786236
  16.1824989  50.8207560  61.9634104  16.8965197  51.2306786  62.4516392
  15.5844200  50.4995346  62.6382065  40.0178623   6.7515236  38.8429546
  40.4586077   7.4104810  38.3065295  40.0006914   7.1304965  39.7217703
   8.7737155  45.9572734  14.7064459   8.2379413  45.2326306  14.3838465
   8.1444669  46.6510810  14.9036991  31.4687018  12.1053866   4.5669472
  31.5191988  11.9197348   3.6292851  32.3701624  12.3032311   4.8208248
  67.3618630  61.4108898  12.1166098  67.0176105  61.1244251  12.9625761
  67.0406274  62.3072125  12.0184004  46.0269141  70.3333213  19.8946345
  45.2013564  70.5490639  20.3283846  46.6975761  70.5114867  20.5539477
  12.0588919  12.2539771  58.2018709  11.2924238  12.6135623  57.7552605
  11.7720839  11.3970077  58.5174322   0.2990624  55.4377270  52.1331263
   0.7448574  56.2722063  51.9877100   0.9432455  54.7753048  51.8832254
  47.4715877  68.1002976  35.1185286  48.3139777  67.6662614  35.2535021
  47.6954246  68.9348604  34.7066653  50.6331110  16.3438904  34.4097304
  49.9546909  16.8066621  34.9014807  50.6937456  16.8183899  33.5806322
  74.6289110   6.7263830  59.3973494  75.4146004   6.2952870  59.0610695
  74.4308567   7.4026048  58.7494850   5.7158971  30.5656042   5.5915701
   6.5653730  30.9869363   5.4607928   5.7357955  29.8022230   5.0144350
  31.3847804  45.3243883   5.4008019  31.3536525  44.7369512   6.1559069
  30.7840037  44.9320932   4.7672331  62.8372002  57.9806328  46.5242529
  63.0928469  57.3577833  45.8438635  62.9597807  58.8398933  46.1206675
   3.2527300  40.6823540  38.6820889   2.4952265  41.2642193  38.6199045
   3.1021925  40.1777983  39.4814634  59.1249609  45.5880833  42.9926825
  59.9016380  46.0305357  43.3350849  58.7396336  45.1562881  43.7551165
  61.0366106  59.2299509  60.3354263  61.5881205  59.9612236  60.0573826
  61.4275742  58.9341688  61.1575460  27.7460933  53.3822216   6.0644638
  28.5349059  52.9569103   6.4007866  28.0497909  54.2318990   5.7450068
  14.1367650  38.0241154  -0.0787533  14.5385575  38.8475919   0.1981604
  14.7781301  37.3536513   0.1565373  37.4310354  22.4442604   1.4470541
  38.0804733  22.6476076   2.1201908  37.4299101  23.2121447   0.8755791
   5.6358095  12.4835336  19.5240808   5.7438322  12.0852602  18.6604011
   6.4254519  13.0108368  19.6451259  60.6843857  14.6469572   8.5214197
  61.5361504  15.0571564   8.6713326  60.4873375  14.8327521   7.6033318
  51.8998432  34.7862649  45.8981991  51.3813353  34.0576816  45.5568123
  52.2945213  34.4441915  46.7003536  74.4904375  22.7411914  40.1556206
  75.0769234  22.1145296  40.5793715  75.0562239  23.2354641  39.5624828
  50.5703402  18.7298334  54.3864632  49.9974298  18.1141138  53.9294100
  51.1703444  18.1744194  54.8841953  69.9847698  34.6690893  45.4620600
  69.6761417  34.3995905  44.5969868  70.8922815  34.3667579  45.4974937
  37.1106152   5.8581713  11.9509947  37.2010712   6.8087462  12.0178091
  37.7244476   5.6070927  11.2607777  68.5944060  68.8746454   0.5080378
  68.9495353  68.0603363   0.1516402  69.1613416  69.5590450   0.1524985
  65.4244089  48.8227034  10.7157087  64.6550274  48.7463999  10.1513839
  66.0868311  48.2763481  10.2927172  37.4581245   6.4316109   0.0585329
  37.5446133   6.3169125   1.0048926  36.5149788   6.5019158  -0.0890053
  45.0941372  49.4420719  63.5430861  44.4836807  50.0288582  63.0967045
  44.8017359  49.4405222  64.4545317  69.2039728  23.1273413  47.6164579
  69.7326899  22.4148464  47.2572279  69.0890789  23.7330317  46.8842220
  40.3181271   1.0052017   4.9357712  39.7660688   1.1095503   4.1608059
  39.8292021   0.4053596   5.4991305  64.6991730  25.5030584  60.3548384
  64.3451881  24.9113774  61.0187960  64.9642754  24.9271750  59.6376848
   8.6204124  67.7740099   2.7764094   8.6813283  67.2069361   3.5451424
   9.5110774  67.7999570   2.4267399  74.8912811  39.9052215  26.8433070
  74.3109083  39.4702506  27.4679685  74.3081808  40.2152348  26.1504030
  64.1408300  36.7974472  17.0417500  64.1166496  36.1832571  17.7755189
  63.4679365  36.4786172  16.4402604  54.5812750  24.0025067  58.9468575
  54.1599941  23.3087301  59.4542313  53.9729309  24.1772223  58.2287884
   5.8666750  58.5087633  44.1707802   5.8521887  58.3884048  45.1202726
   6.7383906  58.8588667  43.9870024  58.0913401   6.6527575  58.9104080
  58.5932779   7.3530537  58.4934187  58.1734610   6.8250370  59.8483896
  21.7621275  21.1486030  26.9271827  22.0739313  20.2439237  26.9034290
  20.8426806  21.0783863  27.1839380  54.2122725  63.2757165   6.0021841
  55.1156072  63.1972839   6.3088858  54.1835431  64.1219189   5.5556977
  11.6772410  24.8092937  47.9240656  11.4294382  24.2203736  48.6368084
  12.0173117  24.2301035  47.2420692  68.9610720  23.9979577  54.7390747
  69.6254683  23.3305168  54.9103403  69.4463825  24.8229861  54.7329903
  28.0178237  72.3178293  12.3575127  27.3589397  71.9343998  12.9363835
  28.2132888  73.1695630  12.7481186   3.5974833  15.9413099  42.4448252
   3.0801626  15.1566494  42.2633886   3.2334944  16.6081202  41.8625021
  23.3461424  11.7868900  59.6328545  22.7447172  12.0187163  60.3405046
  23.1449553  12.4092722  58.9340019  40.9760050  11.5673808  31.1153567
  40.8012537  12.5043753  31.0274088  41.8039373  11.5220002  31.5935862
  28.8186336  48.8961138   3.3467018  28.6018348  48.8269796   4.2764580
  28.5378814  49.7773864   3.1001818  68.7378311  15.6928289  42.7524757
  67.9241037  15.9659636  42.3288298  69.4075441  15.8013463  42.0772409
   8.7492605  47.3207045  61.1897993   8.3554693  46.7286110  60.5490303
   8.4934660  46.9595337  62.0385361  50.3763886  64.9987774  52.8421259
  51.2370702  64.6520095  53.0771017  50.5111619  65.9434538  52.7669239
  12.7277446  45.4096057   2.6482022  12.7053094  46.3581528   2.7746403
  12.4283242  45.0495471   3.4830296  67.8469086  48.1773853  62.5875425
  67.8627110  47.9310846  63.5123777  67.9359579  47.3483944  62.1173525
  59.1987944  34.0886521  22.0405793  59.4169283  34.9344277  22.4321342
  58.5213470  33.7275982  22.6123619  75.8784056  50.1302862  22.0490742
  75.4263592  50.5802679  21.3353491  75.4660559  49.2673063  22.0873713
  12.9045912  32.1284175  47.8776217  12.0706793  32.1254706  47.4077129
  13.1626364  33.0498600  47.9017878  66.4411112  19.6222910  60.6458122
  66.8376919  18.8522467  60.2383995  65.5365296  19.6197375  60.3328261
   0.3157374  38.7891269  60.3980494   0.6987282  39.4171405  61.0105419
   1.0690352  38.3808684  59.9713135  58.3318424  36.6170979  61.7273235
  57.7721739  37.0812988  62.3498297  58.8618660  37.3041368  61.3232327
  66.6699509   8.9857319   9.1972124  67.4487404   8.9927557   9.7536909
  66.2331585   8.1602219   9.4069254  24.4167920  70.8368664  36.8391299
  24.9911758  70.1848392  37.2405982  24.6981355  71.6696303  37.2180533
  12.6853224  21.2165880  25.1466417  13.5047766  20.8757901  25.5052257
  12.5547453  20.7232451  24.3368292  73.9316273  60.7573986  51.9820642
  73.7786961  61.5043926  52.5607204  74.6494579  61.0374022  51.4141273
  11.5826392  53.1641437   0.3347170  11.5820861  53.4650912   1.2433779
  12.0236707  53.8627388  -0.1486957  12.6131205  32.4588135   0.1405394
  12.1430019  31.8068531   0.6603205  12.6304463  33.2394150   0.6942522
  13.9220282  23.4802723  40.1823807  14.4199701  24.2955685  40.2422094
  13.4749266  23.4102464  41.0258436  64.0255308  48.3204269  57.9758406
  64.0780163  48.4022903  58.9280891  63.4550142  47.5655222  57.8314257
  62.1837044  40.9641075  38.8176727  63.0707932  41.2038422  39.0856791
  62.2937059  40.5661583  37.9540944  56.3947248  34.0752363  61.8842745
  55.5041027  34.4259667  61.8874168  56.9220734  34.7643065  61.4801502
  61.7881775  12.3084831  54.1231060  62.1974516  12.0342112  53.3024359
  62.4766397  12.7856195  54.5863438  12.2766566  56.7198958   1.2231123
  13.0317712  57.2789254   1.4062035  12.2460914  56.6638817   0.2680409
  72.5767203  16.6010783  63.4711952  72.0799705  16.3800548  62.6833984
  73.3590766  17.0452378  63.1442817  54.5828772  38.7616372  50.7579422
  54.7716188  39.0400362  49.8617840  54.1732311  39.5251679  51.1646891
   8.3628631  54.5669951   0.6098330   8.1840634  54.2325332   1.4886915
   9.1574264  55.0912466   0.7101357  50.7745123  40.8450365  50.6793690
  50.9176445  41.2937450  49.8460579  50.3604460  40.0166702  50.4373169
  39.2739586   0.1127413  16.0245573  38.5099987  -0.2459046  16.4761889
  39.0594534   1.0353592  15.8867419  60.8267832  45.1194668  46.2820721
  60.8187008  46.0744429  46.3467598  61.5840387  44.8505735  46.8021584
  78.5507087  45.4161646  28.1436312  77.9305963  44.7797920  27.7876436
  78.1609515  46.2674912  27.9447233  27.9934124  11.8062762  12.0975792
  27.1530632  11.8638304  12.5522530  27.8910450  12.3723105  11.3324940
  25.7479147   8.1252602  23.4292757  25.8233170   8.2937363  24.3685114
  26.3678459   7.4151924  23.2627833   6.1531492  60.8132219  31.5616417
   6.7196699  61.4724922  31.9624400   6.0244604  60.1587057  32.2481418
  18.4748960  68.8049485  35.7797396  18.7788844  68.3934476  34.9707377
  19.1305995  68.5616614  36.4332640  57.0041418  19.4916594  63.7115097
  56.5881109  19.6881127  64.5508862  56.2798691  19.4617176  63.0864000
  60.3524351  29.6472144  35.6973052  59.9078608  30.1730609  36.3621879
  60.9122610  29.0528655  36.1968803   6.5251299  38.9686537  47.0581245
   6.0479303  38.2362628  46.6681099   7.4431749  38.6993146  47.0284605
  15.4203105   0.8925439  61.2179422  15.8069015   1.7523624  61.0521412
  14.4762874   1.0386039  61.1570168  46.4669609  41.1802149  45.9148169
  46.8170834  41.3703775  46.7851496  45.5882692  40.8381891  46.0796118
  42.2826719  52.6748991  24.6012211  41.3477993  52.7519703  24.4106722
  42.7016592  53.2871628  23.9963937   5.1453730  51.0643196  36.4443183
   4.8184916  51.4321041  35.6232738   5.6140371  50.2719879  36.1820340
  67.9246473  62.0414257  62.5020218  67.5061989  61.3271523  62.9825974
  67.6996279  62.8282595  62.9984999  76.3622618  36.1000562  45.1131153
  76.7115641  35.8455825  45.9672022  75.4137993  36.0103393  45.2058506
   6.9355055  54.4213676  48.5267591   7.1325728  53.6038828  48.9840508
   7.5944277  54.4733715  47.8344154  53.0185127  46.4003658  53.8099718
  53.3963633  45.6952858  53.2843113  52.1582937  46.5554047  53.4198189
  61.3891792  70.5300236  57.4228716  61.4807558  69.9979019  58.2132435
  62.0734787  71.1947489  57.5010490  71.8313599  62.6877260  57.9113054
  72.7415562  62.5370502  58.1663847  71.7837667  63.6278439  57.7376795
  15.7750078  21.4820910  60.3500462  14.9065539  21.2066817  60.6435919
  15.6168219  21.9243455  59.5160055  55.5705837  20.4453781  26.4260351
  56.2369351  19.8481968  26.0860789  54.9382881  19.8749331  26.8630945
  74.3673877  55.3397800   8.2152569  75.1742200  55.4247345   7.7072823
  73.6695746  55.5419590   7.5920307   6.9532037  71.4153292  19.0617621
   6.4124465  72.1311714  18.7280142   7.2127032  70.9268667  18.2805407
  59.8544121  41.6511774  49.3522167  59.0944147  41.9503927  49.8513269
  59.7934866  40.6961346  49.3726587  18.8570190  72.2274830   3.2596218
  19.1922641  71.4371921   2.8362000  19.6400857  72.7330090   3.4775316
  20.0986314  73.9589955   1.0599911  19.6053004  73.1393911   1.0932457
  19.4826007  74.5947387   0.6958925  29.3792415  71.0487344   4.2403710
  30.2986980  71.2934067   4.1356623  29.1959739  70.4803206   3.4923374
  70.2565622  41.6277218  57.0226574  69.7427368  41.3882065  57.7939224
  69.6647549  42.1677256  56.4988327   4.5533510  71.3538313  12.0265615
   4.3765494  72.1256351  11.4887023   4.9651667  71.7021847  12.8173137
  10.3298354  67.1438982  17.9770815  10.0561833  67.9948475  18.3194601
  10.8568263  66.7616202  18.6787760  23.7350631  57.1275486   9.4653523
  23.9327979  56.8008437   8.5876286  23.1263995  56.4843919   9.8288262
  46.7742157  33.9545345  49.9913311  47.5126505  33.6001468  49.4959974
  47.1026516  34.7764611  50.3557491   6.1274382  21.3747787  51.7545748
   6.2746569  22.1426558  52.3067713   6.9981428  21.1401272  51.4335632
   2.0012041   8.4408486  42.0071363   2.9451224   8.3014727  42.0835161
   1.6408201   7.5659215  41.8627214  71.9704179  72.4374153   2.1708643
  72.3923425  72.9718735   1.4981377  72.5326280  71.6670014   2.2521984
   1.6501856  12.9325083   8.5277855   1.3154459  12.4239806   7.7891505
   1.9622374  13.7479046   8.1353771  55.5305199  23.5446814  -0.1393497
  55.8957199  24.1747549   0.4818308  54.6175102  23.4443978   0.1300823
  61.8056965  32.4834394  43.3216619  62.7458525  32.3295569  43.4146929
  61.6984987  33.4197211  43.4893560  53.8528991  68.6427071   5.9169733
  54.0677142  68.8968589   5.0194800  53.9396167  69.4511344   6.4221060
  71.7540073  34.6882892  56.9507742  71.6415787  34.4812489  57.8785276
  72.1785879  35.5461621  56.9465590  11.4116788  54.5397367   5.7651245
  11.7272639  54.9194123   6.5851748  11.5699554  53.6004450   5.8595240
  18.2093406  73.8207938  20.8987581  18.2161927  73.4311010  20.0245058
  19.1052318  73.7103965  21.2172282  15.8963537  35.8452586   0.2815306
  16.3414431  35.4698542  -0.4781997  15.8164358  35.1162699   0.8966934
  77.9589081  56.2032652  44.5594645  78.6817312  55.5862761  44.6738434
  77.7414370  56.1475706  43.6289597  61.2186480  24.0320277  19.4735050
  60.5483723  24.5557380  19.0345383  61.3775253  24.4896078  20.2991009
  22.5840899  56.1604834  31.3349462  22.5681730  55.2156496  31.4874959
  22.1630713  56.5351391  32.1086431  64.1663364   1.8944362   7.7834046
  65.0315479   1.5702966   7.5332653  63.5787396   1.5537766   7.1089279
  20.2814623  56.8834686  49.5821762  19.5367857  57.3188305  49.1672707
  19.8952528  56.3777065  50.2972126  39.5463443  62.1002533  30.2669585
  40.4268718  61.8474152  29.9895155  39.5836520  63.0537154  30.3427946
   2.5805422  48.5416698  50.0492334   2.7554461  48.9902067  49.2219162
   3.4474608  48.3227587  50.3909349   0.7502914  67.6443316   8.1234038
   1.1000610  68.3151128   7.5369322   1.5253282  67.2118546   8.4818947
  12.4453493  37.8177500  43.8838196  12.2037169  37.0205426  43.4123278
  11.9278475  38.5077238  43.4686565  25.6222769  34.9186420  29.9969220
  26.0588213  35.1886272  29.1889811  25.7032820  33.9649153  30.0057507
  74.6539783  46.1693907   3.6866626  74.2261839  46.8367958   4.2231277
  75.5833721  46.2489748   3.9014328  41.3981509  71.1465861   5.2066862
  42.1091724  71.3172175   5.8243954  40.5998111  71.2960317   5.7131970
  64.6459341  54.6343613  46.1668873  65.3317785  55.2759314  46.3519192
  64.9296427  53.8421488  46.6231108   0.8428856  51.9491959  53.9957190
   0.2816483  51.1741590  53.9718485   1.3191935  51.9256496  53.1657791
  61.6140795  49.8758507  42.8090668  61.6255236  49.2334223  42.0995665
  62.5008345  50.2360821  42.8203249  68.5324955  39.9964285  61.5044641
  69.3524551  39.5515680  61.2899971  68.0492687  39.3644738  62.0367765
  30.2329687  23.4129408   7.5679123  31.0913614  23.8318995   7.5057471
  30.0162510  23.4480027   8.4995997  62.1239948  40.4114437  20.9190059
  62.5321388  39.7706223  20.3367734  62.3690701  41.2601662  20.5504322
  60.2452091  19.2753485   0.1147473  59.8468021  18.4107760   0.0146734
  60.7045082  19.2317942   0.9534228  19.7998595  10.3030063  26.0536027
  19.2869687   9.8387577  26.7151570  19.2259002  10.3406574  25.2884960
   6.3281751  35.9770818  14.4005406   7.1060491  35.6152279  13.9760315
   6.3245940  36.9001453  14.1472161  -0.1180219   5.1169899  12.4900973
  -0.3775358   5.6324271  13.2537806   0.7821989   4.8500088  12.6760018
  42.6545882  51.8322958   0.2720606  42.0713496  51.5089454   0.9587252
  42.1942210  51.6379609  -0.5443514  72.6996565  27.0110869  26.7850542
  71.9616222  26.4190102  26.6402173  73.1551886  27.0363164  25.9435773
   3.6293006  64.2475249   3.4655535   3.8814712  63.4692790   3.9625227
   3.2304454  63.9027121   2.6666462  61.9441366  46.0691166  34.9283266
  62.5464344  45.8900690  35.6504154  61.0732698  45.9908485  35.3178167
  23.3203550  35.6888032  37.4204826  23.5642382  36.5745020  37.1516156
  24.0317579  35.1359415  37.0972586   5.2063036  22.1856717  15.4772913
   4.7209406  21.3993386  15.2276051   4.5304632  22.8466204  15.6277048
  76.2673903  40.2426434  64.7325706  77.2085619  40.3278685  64.8847866
  76.1821270  39.4558263  64.1941643  54.9459982  26.7860174  26.8897581
  55.7923603  26.4238763  26.6275334  55.1643801  27.5971127  27.3487425
  57.7870703  41.7467785  61.1370802  57.6034546  42.6608086  61.3540411
  56.9437408  41.3938808  60.8533716  14.8571535  26.7382145  54.0496016
  15.5678888  27.3356366  53.8168383  14.1302916  26.9988036  53.4839296
  51.4782572  57.7780724  54.3970776  51.9697809  58.3361006  53.7943792
  50.6287527  58.2103443  54.4848967  74.9693823  50.0603867  34.0187931
  74.0870142  50.1799297  34.3700242  75.2180481  50.9265184  33.6959696
  34.5919422  21.5741042  14.8847019  34.1111616  21.6473177  15.7091582
  35.4915670  21.3808039  15.1484072   4.7259545   6.4207317  -0.0957185
   4.3934035   5.5472804   0.1110049   5.3498769   6.6114284   0.6046992
   9.5292068  26.8595649  38.2599592   9.4284082  27.7930023  38.0735135
   9.4073320  26.7899181  39.2068124  75.5980873  48.5952568  59.2694855
  75.1383495  49.4289160  59.1700602  75.8495283  48.3526373  58.3783388
  16.8830057  48.9875126  51.4663696  17.1048971  49.4170952  50.6402588
  16.5557142  49.6938753  52.0232868  26.1499163  40.8820915  37.2888017
  25.9363123  40.1371717  36.7269278  26.0500380  40.5465364  38.1796765
  59.7379307  41.7562798   8.5745203  58.8869957  41.4683798   8.2439768
  59.5995621  41.8840626   9.5130074  49.2819313  20.5590800  18.2984602
  49.6086935  21.4050845  18.6046183  48.5640673  20.3491810  18.8958323
  39.6819929  20.1947144   7.3086369  40.4773048  19.9174717   7.7634346
  39.8375658  19.9650792   6.3925040  41.3987116  28.0757454  10.8133662
  42.0618919  28.0775431  10.1231348  41.7009691  27.4128464  11.4341986
   6.5218302  47.3271847  52.9839420   6.6340681  46.4607286  53.3749437
   6.5054079  47.9264116  53.7301922   5.7937380  41.9419146  21.2367725
   6.3740393  42.5504160  20.7793760   6.2927672  41.6675711  22.0061469
  77.1035671  74.2095280  33.6001921  76.9921112  73.3853388  34.0740252
  76.7125845  74.0470314  32.7417302  54.5523933   6.5835217  28.6527693
  54.8859982   7.3576334  28.1992304  53.6281590   6.5418080  28.4072363
  75.4616547  70.3651571  55.2628708  74.6443129  70.7468891  54.9427652
  76.1435604  70.7847118  54.7382641  76.4278603  57.1423912  46.9351435
  76.2170362  57.9947615  46.5540218  76.5202188  56.5593529  46.1816406
  67.8527880  57.1954441  55.7539463  67.0499802  57.5445843  55.3668737
  67.6097870  56.9776869  56.6538191  73.6732606   0.3552534  63.2118654
  74.3138389  -0.1132821  63.7469959  73.2115630   0.9205963  63.8311052
  73.5776091  47.4696302  31.0148621  73.1285954  48.2764769  31.2670970
  74.4998169  47.6383066  31.2080264  66.3098148  13.8896969   7.3401081
  65.6163792  13.2922152   7.6200878  66.3261417  13.8076285   6.3865721
  59.3151637  69.4406657  23.5566044  58.3796187  69.5768379  23.4067655
  59.7394916  69.8322384  22.7931595  32.7224354  12.8249291  10.6042444
  33.4666208  12.3696116  10.2104151  32.9951624  13.7416867  10.6418383
  29.7913889  30.0943592   3.5349381  30.0988344  30.7615450   2.9212820
  30.2834562  30.2630452   4.3384611  34.2051673  73.0465700   3.1535542
  34.0540290  72.5900056   3.9811623  34.7380138  72.4400880   2.6392758
  17.9054590  39.1433525  59.3072987  17.0286032  39.4544268  59.5322084
  18.2681795  38.8298154  60.1357651  51.0574392  24.8319224   6.7444670
  51.6954235  24.2528466   7.1614516  51.3403181  24.8819903   5.8313906
  53.0604887  31.7230368  27.8621340  53.6886120  31.2173176  28.3778262
  52.2041225  31.4355755  28.1787395  13.1560084  46.4613914  56.3102293
  12.9285666  45.5379868  56.2014627  12.6079699  46.7591238  57.0363426
  77.7369738  37.3128581  50.4840803  77.4554396  36.6654205  51.1304474
  77.4881506  38.1551480  50.8646917  11.0828634  40.8758354   0.6005528
  10.9517618  41.4795732  -0.1305771  10.3275248  40.2889585   0.5649460
  24.4724032  58.8115835  20.1618195  24.8622461  59.0332651  21.0074592
  23.6192080  58.4377003  20.3820515  60.0148821  57.6084948  37.8449583
  60.7363749  58.1884861  37.6014709  59.5873499  57.3966837  37.0151472
   3.6622282  22.0434690  52.5135469   4.5029112  21.7006445  52.2103119
   3.1256720  21.2648749  52.6623011  78.1357002  39.2306900  40.8334255
  78.8402176  39.5401382  41.4027500  78.0971766  38.2873583  40.9911394
  46.6642809  41.2152433  49.3386316  46.5659475  40.2843809  49.5387697
  45.7689762  41.5284348  49.2098999  33.5555434  74.0451385   9.9017012
  32.9422164  74.5318939  10.4522717  34.2318893  74.6832635   9.6745693
  15.5885264  31.3277245  53.8125324  15.4094931  31.6011953  52.9128742
  15.4247233  32.1108460  54.3380070  58.8511419  23.8366985  63.3949614
  58.0688334  23.6809540  62.8658438  58.9394617  24.7895551  63.4171963
  52.5803999  16.0033444  27.2087538  52.8334240  15.1874522  26.7768538
  52.6099447  15.7987622  28.1433642  21.0730406  71.3792896  45.9080887
  20.7890841  72.2491026  46.1892033  20.3843352  70.7908964  46.2174463
  24.9707512  17.8745249  10.3272974  24.2962889  18.4235981  10.7271111
  24.8771290  18.0267266   9.3869221  43.9907936   6.0318259   2.8127968
  44.1859964   5.0971344   2.8797877  44.2384724   6.2646988   1.9180023
  78.6312771  56.8392229  56.3474941  78.7408400  57.6801300  55.9035254
  79.0778875  56.2095833  55.7815218  11.2500139  68.0524540  58.7681055
  10.8157679  67.8326082  59.5923185  10.9059855  67.4179173  58.1394339
  65.3493977  35.4060030  28.7619853  65.1941156  34.5156956  29.0773773
  64.5234585  35.6621790  28.3515811  67.5197987  35.9890107   3.7971651
  68.1461624  35.2652338   3.8037121  68.0601315  36.7724493   3.6947357
  71.4027119  68.1520939  41.3592768  72.0437574  68.1032705  42.0684338
  70.8583021  67.3732615  41.4744902  42.6648212  74.7887709  12.9623568
  42.8545165  73.8603522  12.8271401  41.7115474  74.8298146  13.0386603
  61.0687447  72.2402287  41.2463665  61.5671635  72.1058512  40.4402924
  60.5763292  71.4275551  41.3617849  43.3489776  65.3227856  11.3773310
  44.2144847  65.7236101  11.2968981  42.9658675  65.4027774  10.5037987
  20.8070418  69.0692806  33.7174749  21.4939924  69.4898272  34.2346621
  20.4282900  69.7796488  33.1996346  27.7729078  42.9129982  10.3852952
  27.8427740  42.4866486  11.2394488  27.4794241  42.2193003   9.7946358
  69.7011375  60.3563976  34.5834827  68.8677979  60.8022356  34.4317937
  69.8042154  60.3586292  35.5351114  32.6728388  29.2928839  23.9169216
  32.7034136  29.4289160  22.9699302  32.9904410  28.3984470  24.0407872
  11.2151571  60.8731222  49.7592592  11.8434187  61.4236832  50.2265978
  11.2720152  61.1643219  48.8492012  54.4049835  57.3948050  57.0266533
  54.6542120  58.0972528  57.6272297  54.1173363  57.8480577  56.2341547
  19.2759272  29.2681456  36.1670899  18.3188578  29.2770290  36.1543655
  19.5081564  29.6753597  37.0016432   8.7462279  22.3599648  53.9865017
   8.8831755  21.4640641  53.6785460   9.2300078  22.9035687  53.3646679
   8.7685466  66.9453408  12.2572768   9.4405627  67.5769712  12.5135338
   8.2275796  66.8403913  13.0399477  75.3849888  38.1232834  35.8405757
  74.9283218  37.3635101  35.4794192  75.0964022  38.8566947  35.2973866
   0.4063126  46.3354635  48.0798769   1.0947653  45.6873465  47.9308558
   0.4269549  46.4941216  49.0236139  47.3646021  38.1568813  62.5213623
  47.6096344  37.4681067  61.9034767  47.3772907  38.9605474  62.0015669
  28.5970167  11.7465952   7.2489607  28.8079266  12.2407225   8.0411637
  28.4974150  10.8432797   7.5495159  76.0556130   3.6236170   8.1373894
  76.7210201   3.9702824   8.7317669  75.2262119   3.7802580   8.5888254
  66.5497828  56.5144539  46.4752150  66.8416548  57.4260283  46.4843082
  67.1683455  56.0706902  45.8949709  39.3708233  34.8033694   4.7524178
  39.4492439  35.7522896   4.6542465  39.1081051  34.4938019   3.8855946
  22.2421785  66.7121220  46.8952799  21.9353911  67.0470667  47.7378464
  21.5467592  66.1221457  46.6045046  59.0607595  32.1094394  55.7424259
  58.4994841  32.7402282  55.2915239  59.0046549  31.3157272  55.2103472
  53.0812526  63.2473161  18.4278071  53.4357619  62.7217652  17.7106249
  52.4745345  63.8537790  18.0031550   2.1730276  33.4224033   5.0374258
   3.0485006  33.7252116   4.7964284   1.9687124  32.7438664   4.3939394
  68.0770397  34.2396569  59.9747896  68.9844084  34.2045975  60.2775764
  67.6011848  34.6582794  60.6921148   1.4702555  18.6109281  52.3963356
   2.0078417  17.8469002  52.1877861   0.8572098  18.2980621  53.0615616
   5.4396864  12.1536970  39.0818787   4.6122309  12.3906028  38.6630535
   5.8943506  12.9873359  39.2025518  63.3961968  16.0724285  13.4853279
  62.4960140  16.3178376  13.2716048  63.6321453  16.6416481  14.2178213
  65.3282619  10.0367214  33.0310035  66.1349654  10.4140521  32.6801777
  65.5323291   9.8436214  33.9460468  12.5196529  14.1964961  61.2962914
  12.3908591  13.8355972  60.4191351  11.6431928  14.2099143  61.6808271
   7.5136992  65.8729696  56.5730953   7.8337999  65.9033871  57.4746752
   7.3851725  64.9411392  56.3958788  28.8226275  33.9855460  11.6320860
  29.6055321  33.8750914  12.1716082  28.7033133  34.9335221  11.5743649
  74.1243887  65.7552290  23.0518770  74.3478251  64.9732924  23.5567379
  74.8644352  65.8757114  22.4568582   2.2322985  65.0305367  62.9190302
   1.4654013  65.1548147  63.4781885   2.7477595  64.3587017  63.3653116
  69.7881699  46.0385942  35.0387001  70.2741385  46.2577915  35.8336973
  70.4493618  46.0370922  34.3465614  69.6867180  41.9506788  26.5012908
  69.0009499  42.5731373  26.2594271  69.3856812  41.1134863  26.1481404
  69.5743847  56.7625284  46.1982012  69.3717623  56.0009193  46.7414570
  69.3908262  56.4745522  45.3039932   8.2747889  52.4864128   4.8693430
   7.5145960  52.0380715   4.4987786   9.0143442  51.9151905   4.6619808
  28.5676619  62.5475693  55.9199142  28.0577131  61.7378378  55.8970833
  27.9912611  63.2046938  55.5298042  22.4176642  46.7044735  53.5657263
  21.4954325  46.9572639  53.6082697  22.5235125  46.0651445  54.2702007
  41.7168403  13.8882114  40.2740622  42.6590514  13.8039257  40.4201937
  41.6133762  14.7492362  39.8689055  55.3616428  24.3686342  24.2805958
  54.7093248  23.7500834  24.6093941  55.2638626  24.3365312  23.3289456
  66.4951805   6.4300946   1.6641676  66.2901405   7.3498991   1.4963877
  67.2593311   6.2512282   1.1161577  20.7962155  22.9220057  51.0988379
  21.3568354  23.6469769  50.8225155  20.1358819  22.8535771  50.4092646
  33.9054823   5.8987021  27.2349834  33.6741281   6.3801694  28.0292726
  33.2974505   5.1596379  27.2172356  13.5833736  51.1197256  17.3592615
  13.3100267  50.2061819  17.4426568  14.5265742  51.1032747  17.5215399
  57.0616150   0.9663747  37.8328180  57.5286865   1.6567758  38.3033729
  57.3677683   1.0430963  36.9291496  18.9697906  70.2154069  16.0497189
  18.7897321  71.0389905  15.5963731  18.1052753  69.8734565  16.2775731
   6.8547988  38.9358808  20.0697863   6.5721870  39.5854824  20.7135069
   7.4566245  38.3679724  20.5509436  20.1766419  16.8193626   5.6328791
  20.1701379  17.7287722   5.3342754  21.0866928  16.5404963   5.5315340
  49.0772533   1.4035703  25.0773430  49.6124601   1.7059179  25.8110785
  48.7444258   2.2066694  24.6767282  63.5987377  13.2920659  40.6741428
  62.9800034  12.7713192  40.1620674  63.1877613  13.3744109  41.5346956
  54.1386318  14.6245885  40.7188368  54.3389511  15.2444613  40.0175095
  53.4267139  15.0376582  41.2074852  37.2625657  64.3701850  50.0471210
  36.9547387  65.2029394  49.6893597  36.6654607  63.7172590  49.6819019
  54.8037910   9.9524075  54.4811344  55.4421329   9.3144703  54.1620874
  54.4151211  10.3198719  53.6873198  11.0753962  52.3431061   8.7690592
  11.0847589  53.2823204   8.9535081  11.9868632  52.1290110   8.5700125
  67.0379678   1.4603037  36.4034700  67.6398078   0.9707826  36.9641757
  67.0100931   2.3359796  36.7890167  27.4333262   0.3088561  61.1025333
  27.8596020  -0.4266786  60.6626368  28.1215453   0.6957088  61.6437674
  63.0538467  34.9595316  45.9872496  63.0275063  35.8111997  46.4233649
  62.4702386  34.4063790  46.5065348  47.6818105  65.5280130  38.2510948
  47.9488488  65.2639543  37.3706412  46.7539187  65.2979188  38.2990646
  48.3644009   8.6722124  43.6771393  49.1210842   9.2171198  43.4609509
  48.2386255   8.7992191  44.6175051  58.1052180  70.6629135  58.2175493
  58.0304023  70.0365497  57.4976206  58.0205699  70.1301842  59.0082884
  40.0256824  14.1651452  23.0465460  39.8511910  13.8939476  22.1453047
  39.1856074  14.0639114  23.4940434  73.8222694  48.0777502  12.2340643
  73.4721708  48.6855125  12.8854406  74.7710562  48.1185675  12.3539662
  58.9415237  71.9669549  48.3656120  59.5058890  71.9014274  49.1359568
  59.5391055  71.8806647  47.6228619  19.1900754  40.6064193   7.2350895
  19.9269748  41.1948167   7.0707905  19.0293670  40.1826270   6.3919985
  17.4609017   1.7629661  25.2709198  17.1710193   1.5330768  24.3881106
  18.1884694   2.3696412  25.1337266   6.2052961  35.1334906  48.9481831
   5.3713080  35.6028509  48.9683628   6.3458487  34.9345922  48.0224895
  12.9381029  24.3629655  44.7485340  13.7641375  24.7826859  44.5082700
  13.1877224  23.6847695  45.3762043  35.2862044  59.8832594  30.9318495
  35.0634404  59.4592820  30.1030827  35.3119012  60.8172177  30.7237792
  75.2187490   8.5747415  19.6974790  74.9116182   7.9502451  19.0402830
  76.1651707   8.6195725  19.5614302  21.4660689   5.0814599  23.0514860
  20.5631777   5.2129906  22.7621412  21.4966913   5.4709500  23.9253235
   5.7857748  30.4561019  40.7549858   5.2059122  29.9079633  41.2836981
   5.8426329  31.2803721  41.2382793  27.3584791  32.2664022  29.6376133
  27.0135542  32.7255249  28.8718033  27.7204558  31.4529252  29.2862463
  37.6184913  39.7588562   2.1757802  36.7099973  39.5954631   1.9224529
  38.0527755  38.9125322   2.0691875  59.2637491  11.0376835  47.0894051
  58.4845400  11.5137875  46.8023682  58.9752769  10.5485880  47.8599882
   7.2934791  40.2370690  36.3387823   6.8387290  40.4093479  37.1632528
   6.8524548  39.4678448  35.9781933  35.7986808  61.9492866   5.1132691
  35.9356856  61.3143684   4.4101727  35.4625392  62.7283933   4.6702826
  30.4497548  31.8572806  25.6223774  29.7400924  31.2809847  25.3386593
  30.3537103  32.6402758  25.0802255  60.6981536  69.0026556  39.1327643
  60.3113433  69.3536787  39.9348855  61.6363021  68.9601342  39.3179584
  67.4455833  13.8271606  49.1927481  67.3552465  13.8311815  48.2398272
  67.9066658  13.0109382  49.3861771  19.5869124  24.3091178  42.8361702
  19.7226894  23.9892793  43.7280798  20.1040030  23.7183738  42.2885656
  48.4775134  46.3611148  12.8135443  49.0498420  46.9059371  13.3537710
  48.2801267  46.9042824  12.0504975  13.6904546  60.6457161  25.7897472
  12.8895970  60.4247771  25.3143072  13.5325023  61.5269159  26.1285210
  14.2375609  16.4460802  57.6726723  14.8312231  15.6955218  57.6940584
  13.8194224  16.3963079  56.8130732  53.8687726  41.9329080  62.9521200
  53.4535952  41.4663750  62.2267199  54.3675490  41.2600222  63.4154549
  14.8605677  13.0922234  23.4672785  14.7451063  12.5122762  24.2199802
  15.7775923  13.3629644  23.5119605  30.3563329  54.1349577  22.2240233
  30.2484866  54.8015617  21.5456128  29.4645854  53.8503502  22.4240685
  26.0845804  17.8303730  36.6525555  26.7787361  17.7638066  35.9968495
  25.3626442  17.3169267  36.2900496  75.5910540   6.4576203  50.8945084
  75.5996799   5.7195842  51.5039825  74.6803474   6.7522478  50.8880091
  15.5264135  20.2922726  40.3848505  15.2212187  20.4394126  39.4896173
  14.7263094  20.2680278  40.9097147  50.5159855  31.6812062   8.0681252
  50.1814127  32.5196576   8.3863884  49.8601055  31.0411477   8.3444959
  72.6414204  18.3488715  27.2785234  73.0075550  19.1817784  26.9811344
  73.4038687  17.8298271  27.5344372  74.9516296  10.0888360  34.8251653
  75.2364779  10.0352836  33.9129019  75.5966234   9.5722234  35.3081989
  73.2949638  14.9323082  32.1771359  72.7616167  15.7196093  32.2863626
  73.7409830  15.0594282  31.3397980  20.5926653  35.1072955  36.7228389
  21.1138483  34.4170213  36.3128138  21.2348696  35.6591654  37.1692085
  61.5134001  24.3774009  31.8032694  62.0149279  23.6776447  31.3848829
  61.5982914  25.1219511  31.2077260  44.8056889   8.3909416  38.5466099
  45.1222515   8.0023050  39.3620729  44.5408964   7.6426589  38.0116391
  46.1290312  15.4045773  42.8496027  45.7769489  16.2930536  42.7959442
  47.0445776  15.5245817  43.1018066  46.4361906  16.5563858  24.9867177
  46.7031765  16.5398586  25.9057808  46.9381857  15.8508408  24.5787501
  77.4918747  14.3397510  34.9339056  77.3873854  14.9570751  35.6579375
  76.5968847  14.1287076  34.6680379  14.0714403  28.4681082  64.1129446
  14.2973562  28.2476497  65.0165987  13.6826464  27.6673174  63.7610817
  40.6542274  56.5704797   9.4928557  40.0977632  57.3373710   9.6287143
  40.0452109  55.8721863   9.2526060  64.5342894  43.7476429  62.0607800
  64.1139480  43.7079260  62.9198301  65.3650423  43.2871201  62.1791066
  15.9127589  45.3693389  16.3303554  16.1455842  44.5610546  15.8735156
  16.7521449  45.7918237  16.5124750  45.3670788   6.8553549  29.8121309
  45.3661060   6.5158826  28.9171505  45.7038212   7.7475488  29.7295117
  47.1379328  16.9196916  17.7710450  47.1477127  15.9972894  17.5154889
  46.5752125  16.9478846  18.5448539  32.9837394  13.0762136  50.1969767
  32.4421644  12.3132432  49.9949741  33.1289792  13.4978473  49.3500042
  53.6737796  57.5551902  28.0703306  53.6299773  58.1815551  28.7928152
  54.4955512  57.0848356  28.2106018  51.2697124   4.6516469  56.4040661
  52.0632982   4.1978464  56.1203098  51.4825726   4.9837530  57.2762060
   2.0223566  22.2809100  45.5820227   1.4344259  22.7091622  46.2042522
   2.2224756  21.4357424  45.9843540  76.0571643  74.2286921  40.2254915
  76.5165587  74.9303703  40.6868362  75.2635928  74.0829070  40.7404852
  28.0352040  66.2658243  27.5822067  28.8105317  66.0383295  28.0953813
  27.6004764  66.9475912  28.0944920  38.6300222  69.3499657  59.2971486
  38.7154619  69.2100140  60.2402005  38.2353823  68.5416624  58.9698410
  44.4271946  16.2673247   7.5320494  45.2512646  15.8851016   7.8337848
  44.0166712  15.5740643   7.0152390  76.6864109  19.6786451  23.3462620
  75.7339334  19.5844352  23.3581877  76.8819618  20.0249195  22.4755812
   2.1661039  64.1406892  27.7807665   2.4858018  64.8590039  27.2348285
   2.0900317  64.5206128  28.6560392   6.9582506   5.0000751   8.2884979
   6.9678923   5.0057888   9.2456323   6.0346552   5.0997293   8.0576760
   0.1761051  73.0093846   5.9189969  -0.1032618  72.5752732   5.1129377
   1.0895010  72.7451719   6.0291433  56.8145800  31.9797945  17.6843119
  57.4530649  32.1569824  18.3750916  56.7939091  32.7838039  17.1652997
  10.1937815  38.7758017  37.9210019  10.0926157  37.9173303  37.5098753
  10.7765432  39.2559242  37.3326993  46.9392797  70.0158964  45.7373190
  46.7936774  69.0910517  45.9365463  47.3356935  70.0136919  44.8660612
  76.5274668  54.4444727  29.3331409  77.1353245  54.1184329  28.6694837
  77.0854115  54.6772741  30.0752544   3.8679572  73.7630313  27.0468163
   3.2340117  73.4580268  26.3977242   3.5879680  73.3539987  27.8656769
  62.2236204  32.1474266  35.6073928  61.6743469  32.2125745  36.3885999
  62.6980209  31.3232088  35.7162118   6.7375418  59.6173143  58.0773401
   5.9789797  59.9270296  58.5721970   7.3928400  60.3063202  58.1873226
  62.1696615  25.7627392  49.8382139  61.5903854  25.3135443  50.4537630
  62.3342991  26.6146588  50.2423906  37.9963180  67.3031376  12.0989728
  38.8348456  66.8692027  12.2564709  38.1639882  67.8869616  11.3591957
  60.9715053  69.9178802  36.6208172  60.4832049  70.7277964  36.4730811
  60.6597014  69.6014796  37.4686956   5.5579039  40.2691126  55.8482838
   5.5274531  41.1387587  56.2470627   5.5835577  39.6658158  56.5909863
  31.9905420  10.8788335  43.4803629  31.1607023  11.1251628  43.0718231
  32.6436373  11.0074663  42.7925014  60.7372141  28.9885807  26.1032438
  61.2216234  28.7568879  26.8956447  59.9537754  29.4356227  26.4235616
  52.9559803  38.5929179  46.3860989  52.6549625  38.7229443  47.2853851
  52.2776461  38.0515289  45.9823799  74.7137880  10.6832945  39.7745943
  74.0873480   9.9836820  39.5892549  74.8755932  11.0914397  38.9240241
  40.2175474  10.1945031  28.7437415  40.7934713  10.3490067  29.4925213
  40.1214647  11.0542488  28.3340621  26.9678803  57.0561682  27.6430845
  26.3143846  57.6469897  27.2687745  26.4748164  56.2687479  27.8735042
  54.2375442  72.1401942  32.8740239  54.4731589  71.2205117  32.7519512
  54.4571944  72.5563873  32.0404959  32.9698440  65.7103454  54.3129539
  32.3199197  65.1879315  54.7829676  32.7082702  65.6480925  53.3942938
  76.8737439  42.8799577   9.3186772  77.1616868  43.4848775  10.0023377
  76.0934571  42.4614270   9.6822989  69.6796656  22.6498175  40.1696157
  69.2730713  23.4962773  39.9840999  70.0790834  22.3889542  39.3397689
  72.9658890  19.4327474  47.8287458  73.3072948  19.0981197  48.6580181
  73.0320692  18.6919963  47.2261333  33.3003970  66.9632863  43.2311583
  32.8997918  67.6456080  42.6924753  34.1723748  67.3008816  43.4358978
  18.3945724  65.5227636  11.2457454  19.3461104  65.5423604  11.1436629
  18.2359048  65.9396969  12.0926356   8.3040758  36.6971397  62.8641748
   9.0039107  36.2081838  63.2970428   8.7575098  37.3903418  62.3844814
  70.4739448  68.0237971  24.5633435  71.2186500  67.5302874  24.9069858
  69.7068473  67.5193153  24.8340750  64.0745640  40.7426739  59.5869684
  63.7155056  40.8483219  60.4679585  64.7600365  40.0818586  59.6853495
  71.4240789  18.7421441  60.0407124  70.7051134  18.5905051  60.6541681
  71.0083437  19.1482604  59.2801428  73.4190587  36.1848807   3.0793059
  73.4731654  35.5115714   3.7575066  74.2752389  36.6124988   3.0974924
  39.6780892  61.6067658   7.8728950  39.2340203  61.4527284   8.7067479
  39.3796750  60.8944117   7.3074436  18.1872507  19.2856979  36.9596958
  18.3683725  18.9259470  37.8280306  18.9301535  19.8617148  36.7793512
   4.0083452   4.1314909  53.5044956   4.8945566   4.4704381  53.6309004
   3.5758349   4.7890943  52.9597759   8.8883921  24.9855995  47.4358654
   9.3668696  25.6203198  47.9691839   9.4239947  24.8814607  46.6494083
  41.8199253   6.8570369  22.4166822  41.5180159   6.0034961  22.1059561
  42.1674585   6.6841817  23.2916498  53.6182404  11.2332070  52.4526978
  53.7484455  12.1648157  52.6298475  53.4307194  11.1916411  51.5149641
  32.2901869  21.7178559  60.1942062  32.3691010  22.0504045  59.3001080
  32.3819017  20.7691646  60.1058674  71.9040775  29.7234321  64.0668011
  72.8350782  29.6924424  63.8465738  71.4676380  29.9126768  63.2361746
   5.8401104  55.5409013  35.0638533   6.4726158  56.2499260  35.1798368
   6.2379404  54.9702107  34.4063759  37.1243545  58.6487614  27.5546908
  36.3904353  58.2368015  27.0987511  37.1866294  58.1758462  28.3845735
  62.2691870  36.3637519   3.2590371  62.4101448  36.6046667   2.3434372
  62.1549702  37.1993756   3.7117192  30.3091737  64.6571474  55.2996635
  29.8990365  64.8393946  54.4542027  29.7806474  63.9531075  55.6754541
  63.9988184  16.4351845  26.7642403  63.5801935  17.2497272  27.0426369
  64.3335772  16.6253018  25.8878684   0.7636210  53.0634069  50.7900000
  -0.1876310  52.9867554  50.8639956   1.0919615  52.1914959  51.0095263
  32.3518535  52.9146932  19.7165263  32.7562352  52.3621868  19.0476131
  31.4688417  52.5596212  19.8187327  10.2633234  11.8288696  42.9112387
  11.1206671  11.4205182  42.7910662  10.1956984  12.4593413  42.1941853
  60.2799865  60.7596801  30.5429196  60.1132079  60.1831828  31.2886167
  59.9620601  60.2690040  29.7850299  31.0600516   3.6682850  47.9700756
  31.4472719   4.4572636  48.3492947  31.4058443   2.9520214  48.5026407
  69.4896773  56.9493367   5.5835402  68.7152699  57.1327044   6.1154282
  69.9714450  57.7763249   5.5688393  64.9923325  52.8175974  34.2754197
  65.8108282  52.4516010  34.6105909  64.5821524  52.0935345  33.8024282
  48.4646034   3.7481827  20.2237272  48.6491346   3.9439088  19.3051028
  47.5513124   3.4616429  20.2287817  54.1098642  17.1279418  63.0356741
  53.3597565  16.5476525  63.1654358  54.6288443  17.0306981  63.8340664
   0.9296271   1.4220582  29.6075726   0.2273365   0.7754430  29.6776628
   0.6153914   2.0470831  28.9542484  55.7771492  49.5719814  13.6294830
  56.6483879  49.8232317  13.3228123  55.1838684  50.1823235  13.1916165
  54.1050788  66.2324683  15.1934087  53.7878390  65.4602473  14.7251487
  54.1645881  66.9120596  14.5219588  76.5381193   8.0851769  28.2543898
  76.4792824   8.9781839  28.5939622  77.1891594   8.1374264  27.5546432
  73.4331274  32.8233314  43.3683634  74.1765881  33.3683681  43.1106138
  73.8304949  32.0232940  43.7122631  12.4085947  41.3090897  45.6998873
  11.8302675  41.7854595  45.1041937  12.9658266  41.9855642  46.0847282
  53.6715889  11.2948954  49.6258974  53.0686808  11.8831384  49.1712523
  54.3238544  11.8760467  50.0171041  31.5412661  16.7079210  50.6517410
  30.6906744  16.4265609  50.9887266  31.3691469  16.9547963  49.7430801
  25.2684160  37.7102399  30.2918744  25.4978129  36.7916369  30.4324937
  25.4106852  38.1255531  31.1424661  67.7411938  24.7608590  18.6718214
  68.0217409  25.2068949  19.4709313  68.2343435  23.9404750  18.6697054
  62.3940543  45.4485293  59.0710413  61.9742731  45.3641434  59.9271357
  62.0901064  44.6857949  58.5790217  78.4807491   9.9206519  62.4713802
  79.3962717   9.6605957  62.5734329  78.0821466   9.7323763  63.3210278
  60.1674338  52.7871989  31.9926143  60.0946303  52.3740052  32.8529644
  59.3145534  52.6405715  31.5835524  31.8204618  11.3641918   2.0178227
  32.1940303  11.5567017   1.1578123  32.4636173  10.7914102   2.4355589
  47.9386040  62.3255154  62.7308439  47.4040123  62.4699041  63.5116103
  48.7697526  62.7582165  62.9262759  62.5549269  13.5048163  43.2188797
  61.8592548  13.0188799  42.7759981  62.2562742  13.5780072  44.1253471
  69.4540691   1.3886315  43.5361195  69.7840738   1.5274297  42.6483870
  69.1817474   0.4710862  43.5496807  10.7395260  45.4909393  58.4547305
  10.1259462  46.2231174  58.3942187  10.7230274  45.2403262  59.3783933
  15.5536433  66.9617604  28.8149643  14.8388167  67.0638393  28.1866050
  15.8352252  67.8566788  29.0048718  47.5219317  72.0341705  30.7306385
  46.6282197  72.3380162  30.5719233  47.8913947  72.6805854  31.3321996
   6.7265459  44.2668437  62.2546387   6.6355797  44.2180036  63.2062531
   6.7304297  45.2044939  62.0622110  67.5042629   6.7767048  23.8430166
  66.7256355   7.2703093  23.5854793  68.0834866   6.8292749  23.0827737
  37.4276563  51.6417693  15.3441536  36.6494866  52.1883439  15.4534352
  38.0779620  52.0313190  15.9286034  47.4220276   7.4619597  36.8891811
  47.0552063   6.8762434  37.5514579  48.2195044   7.8074706  37.2902894
  33.5393977  67.2281601  16.7371619  33.4048629  68.1374385  16.4700567
  34.4864631  67.1002390  16.6830122  12.8847643  15.5869818   5.3388214
  12.5257059  16.1220002   4.6309602  13.3055731  14.8516047   4.8934329
  45.9037161   7.3530203  59.8325205  46.7481899   7.3808765  59.3827248
  45.8104038   8.2228988  60.2208996  72.9675742  62.8948544  32.3832202
  72.4326297  62.8674017  33.1765127  72.5166389  62.3144184  31.7700505
  68.7072515  25.5014110  42.3384047  69.1701174  25.8143449  41.5611935
  68.5625887  24.5699215  42.1721745  64.0407058  73.2496160  17.8190899
  64.2525550  73.9023769  17.1518159  64.8223468  73.2079215  18.3700371
  49.6213504  67.0976286  16.4006042  50.4855844  66.6936194  16.3224494
  49.1799279  66.8796288  15.5797184   5.2692457  14.3552971   7.0079023
   5.2895113  13.6932945   7.6989698   6.1904951  14.5200753   6.8069822
  34.6047350  19.2090130  51.3337612  33.8178297  19.6500039  51.6539812
  35.2428766  19.9127996  51.2167645  10.0461762  22.2484240  64.1774792
   9.8197167  21.4435360  63.7115358   9.8496477  22.9487511  63.5552655
  74.7520447  15.8941233   4.6710256  74.5238161  15.1572764   5.2377707
  74.4908142  16.6689384   5.1686746  63.3250141  16.1121893  29.5512104
  63.5917377  16.8574965  30.0893641  64.1333485  15.8189476  29.1306901
  38.8875341  15.9875584  43.1515312  38.5988259  16.4400268  43.9440966
  38.0762506  15.7457745  42.7047729   8.8057657  31.1920404  53.9887047
   9.1577860  31.8402553  53.3786774   8.9097544  31.5936828  54.8513174
  71.2772369   8.7154877  45.8332443  71.9028711   8.7556201  46.5565729
  71.0131121   9.6249712  45.6942844  57.5013737   1.5252736   9.5487320
  57.1363644   1.4126733  10.4264128  56.8054585   1.2321452   8.9605009
  75.3088713   4.4735342  52.6169538  74.5364428   3.9316142  52.7779150
  75.5743837   4.7760829  53.4853983  68.7298175  62.3060440  47.7374411
  68.3067008  61.4743053  47.9505491  68.0861255  62.9714452  47.9806137
  28.4767100  65.2061653  18.2903218  28.0976339  65.3613567  17.4251938
  27.7563616  64.8435450  18.8059139  77.6850796  13.2495117   6.1457461
  77.9536724  13.8335800   5.4365522  77.8993464  12.3724389   5.8278358
  16.7582937  39.8486257  19.0816247  17.2102209  40.6831026  18.9565599
  16.9879481  39.3335915  18.3081734  65.2856922  48.8719225  29.0195251
  65.0511646  48.4718037  28.1821871  66.2395716  48.9462042  28.9906549
  10.3236668  67.8422352  37.9446066   9.9385349  67.6454994  38.7985385
  10.9177486  68.5737273  38.1125963  39.5704123  20.0702667  16.3781023
  39.4077154  20.8764195  16.8678772  40.4619261  20.1688600  16.0438657
   2.6805826  36.0263443  44.0551424   2.2302576  35.7957339  43.2425785
   2.0966288  35.7184958  44.7482872  29.2590714  19.6170461   9.5884168
  29.9647474  19.3631160   8.9936286  28.5350323  19.0323770   9.3644512
   7.0896574   4.8324168  47.9684210   6.2764784   4.3308827  48.0270195
   7.7422663   4.2819971  48.4012985   9.6844717  51.7107773  48.2126474
   8.9537378  51.8157721  48.8219261  10.4472109  52.0274401  48.6965799
  77.7996778  35.9366465  32.5781894  77.0812273  36.4458084  32.9534411
  78.4230232  36.5939093  32.2688746  78.6120939  47.1746969  52.9874420
  78.3536577  46.7924023  52.1488142  79.5643187  47.0800114  53.0105400
  69.5427418  52.3267365  38.3803225  69.9913359  52.6711130  37.6080537
  69.4151402  51.3976240  38.1887507  52.5709200  43.1175518  43.2219458
  51.8843555  43.4203959  43.8162041  53.2514048  43.7881756  43.2805729
  19.2396454   1.8694285  14.1692030  18.7126497   2.6681569  14.1459048
  18.7667517   1.2540391  13.6089432  68.9092636  45.5890846  40.0588942
  68.7663794  46.4553261  39.6775341  68.4560966  44.9889565  39.4666743
  73.4643678  65.3008153  27.6282561  72.7886132  64.8378779  28.1235087
  73.8965968  65.8577778  28.2757151  22.4762007  29.7258234  32.9240870
  22.4634501  28.8238335  33.2442188  22.1518370  29.6656680  32.0255303
  39.0365577  26.7587687   9.7994292  39.5937133  27.2791566  10.3782189
  38.2191825  26.6521491  10.2860129  17.7858206  20.4305124  54.0299177
  17.5793501  19.5065379  54.1708946  18.5437723  20.5948615  54.5909262
  27.2352739  40.6311035  12.3759377  26.3342520  40.6813478  12.0567775
  27.1520659  40.3359318  13.2826805  68.5889006  44.5825100  45.0021076
  68.3660078  43.6892891  45.2642202  68.7221766  44.5282221  44.0557861
  61.4532185  35.5869508  43.5845613  61.8713856  35.6261468  44.4446993
  60.7117271  36.1886120  43.6510897  17.6369902  21.8620443  40.7894611
  18.3103510  21.2449169  41.0757780  16.8731924  21.3150549  40.6060457
  52.0087385   5.5847615  28.8091540  51.5985727   5.2928156  29.6232581
  51.3115501   5.5276060  28.1557846   5.6534239  12.3898447  61.4457512
   5.4199263  12.4066103  62.3738861   6.4371248  12.9361784  61.3860321
  48.4348059  23.8042974  21.8258595  48.3229160  22.9023910  22.1263242
  47.5949812  24.0293026  21.4254928  10.9564921  21.1880302  46.6787004
  10.0966402  21.5983820  46.7708969  10.7924505  20.4030061  46.1561489
  16.3664290  26.0545349  63.8707352  16.3402601  25.8504009  62.9359198
  15.6913420  25.4964352  64.2567539  76.2079191  32.9812264   5.7416540
  75.7265139  33.0582714   6.5653902  76.6064644  32.1116853   5.7775819
   8.6561056  38.9314389  40.1744938   9.2527720  38.8244963  39.4336915
   8.8164183  39.8227763  40.4844141  18.1187292  24.6351480  31.2610722
  18.4799048  24.4285011  30.3990531  17.2947928  24.1493678  31.2982631
  60.7322693  21.1851215  43.6153841  61.4227247  20.5233693  43.5755491
  60.7518768  21.6038227  42.7548409  76.5820122  53.7616682  45.9341669
  76.9473791  52.9776525  46.3441086  77.3470640  54.2645168  45.6547546
  20.2422281  37.5310111   4.5704412  20.3758093  37.4646068   3.6249369
  20.9795996  37.0535564   4.9506265  60.7944536  50.0199890  55.8844233
  61.0117960  49.0939426  55.7774830  59.8380041  50.0393009  55.9171343
  66.4462614  24.2944884  53.7538528  66.0293293  23.4337044  53.7919426
  67.2187185  24.2114186  54.3129969   2.5622603   1.2513234  24.1405678
   2.9639288   1.8187267  24.7985530   3.2939097   0.9607410  23.5960746
  33.6095568  30.6945157  21.1693501  32.9262968  30.1003599  20.8589268
  33.1342932  31.3871455  21.6282797  69.0459776   7.1150625  45.5821609
  69.9212265   7.3489118  45.8911753  68.8234234   7.8003526  44.9520159
  10.8585974  66.2022124  54.1672611  10.6459161  66.8228416  53.4702539
  10.2373239  65.4841344  54.0463638  47.6277065   3.3657897  30.4926014
  47.1866417   4.0581101  30.9849286  47.8129196   3.7590793  29.6398115
  54.0238094   4.9902961  40.6359863  53.3309937   5.6423175  40.7413673
  54.4765234   4.9834177  41.4793348  76.9758415  23.6218095  50.6873751
  77.6271915  22.9402518  50.8530617  76.2909174  23.4614229  51.3365173
  70.3127956  37.8182340  54.5391178  70.7520580  37.6938248  53.6978102
  69.9657631  36.9535017  54.7583055   7.3787638   3.9055806  11.1648512
   7.3456141   4.8119903  11.4707184   8.1196734   3.5215405  11.6336787
  50.3741932   3.8272443  40.4427147  49.5413065   3.3996376  40.6419134
  50.8250904   3.2145143  39.8617792  70.9283070  21.9598273   3.9117968
  70.5124477  22.1000746   4.7624600  70.4800705  22.5670365   3.3230603
  10.3663210   5.8213881   3.6977398  11.3221101   5.7750157   3.7211811
  10.0986651   5.7097033   4.6099436   0.3822228  41.9214773  23.0399179
  -0.4445413  42.2997952  23.3392024   0.3057667  41.9030666  22.0859528
  64.7210352  68.4645483  54.3805504  64.4678919  68.6285993  55.2889759
  65.3087084  67.7104828  54.4281137  46.8077087   7.1538186  46.6950750
  47.0598125   8.0755943  46.7499018  47.4611855   6.6949821  47.2229719
  77.4652147   2.0755748  22.5941062  76.8524313   1.5709813  23.1290007
  78.2739353   1.5637401  22.6091385  19.4958826  32.8272557  22.8298783
  18.7908503  33.0465603  23.4390259  19.4285914  33.4858465  22.1385288
  72.4111053  69.4632034  32.9963970  72.9694911  68.6863278  32.9663515
  72.3872920  69.7761653  32.0921183  69.1413546  40.1210833  24.2839265
  68.7677479  40.9278584  23.9293003  68.3838797  39.6162009  24.5798206
  54.7588778  12.8417480  59.4057894  55.3298998  12.8289914  60.1739073
  53.9286423  13.1905043  59.7303152  63.0330324  31.3623285  20.3599620
  63.3390236  30.6679106  20.9433889  62.7449942  32.0600653  20.9485459
  13.2353541  36.6134715  56.8770933  14.1745802  36.4708161  56.9943380
  12.9561945  37.0458889  57.6841307   4.2058035  25.1131082  46.3757277
   4.7557684  24.5946717  46.9630909   3.4164282  25.2954745  46.8854904
  50.1890612   4.0747625   8.5167271  49.2535830   4.1549078   8.7029755
  50.3999662   3.1671220   8.7356788  68.4680077  55.6293353  61.0207728
  68.1157204  54.7566411  61.1955068  69.0720364  55.7932159  61.7450121
   3.8780924  28.1780362  22.8043151   4.4050451  28.1024122  23.5998201
   3.0061384  28.4196210  23.1166840  27.1508642  41.2148666  24.0310335
  26.6591498  41.9473362  23.6596251  27.2572657  41.4417410  24.9548507
  49.7814961  62.9712783  17.1078408  49.0213367  63.2696281  16.6084671
  49.7575875  63.4889601  17.9126179   2.9009100   8.7976074  49.5422888
   2.2664496   9.4799507  49.7616005   2.5552031   8.3964568  48.7449169
  61.0207605  29.7779202  23.5363150  61.8250561  30.1343012  23.1590438
  61.2545681  29.5627999  24.4392467  66.8839268  15.5343130  12.3407233
  66.2109856  16.1915568  12.5179493  66.4506916  14.8941258  11.7761910
  74.9113560  31.1022520   1.9286123  74.8182917  31.9690728   1.5334010
  74.1713476  30.6016731   1.5850434  57.4410248  23.1949663  35.0966668
  58.2066917  23.3443117  34.5419788  56.7262411  23.6424518  34.6438098
  53.9893822  16.0566357   2.5550234  53.4827236  15.2950743   2.2729599
  53.3299069  16.7040518   2.8043902  68.2545280  46.6422844  32.5162029
  68.3542109  46.1783075  33.3474803  69.0544605  47.1615458  32.4343109
   5.2385088   6.5949464  49.8519468   5.2917238   7.3476321  49.2629957
   6.1443945   6.3007832  49.9471331  27.3272105  73.5729815  32.5829554
  27.0755645  72.7732912  32.1210051  28.2843276  73.5617260  32.5773358
   7.3180147  45.3611803  36.8164396   6.6621824  44.6780252  36.6770744
   7.6225325  45.2215099  37.7130961  11.7210337  54.0325832  41.6889811
  11.7048880  54.9131727  41.3141060  11.6275736  53.4497404  40.9354639
  46.7499201  70.5955645  50.3882218  45.9272711  70.8950969  50.0012267
  47.4158136  71.1692640  50.0091636  70.4456902  -0.1584426  55.7434559
  70.9709215   0.6403780  55.7908678  69.5499945   0.1334161  55.9131241
  59.5885420  44.6522522  35.7494926  60.0190020  44.2142773  35.0152493
  58.7478113  44.9424934  35.3957129  71.8281845   9.5023278   6.1756575
  72.5156216   8.9304045   5.8342421  71.9920353   9.5375613   7.1180689
  72.5317955   8.1730336  33.0720210  73.1585360   7.6472253  33.5689616
  73.0754328   8.7471652  32.5325203  29.1362520  40.7458735  33.7681007
  29.6413752  41.3685751  33.2452965  28.6536451  41.2909460  34.3895626
  33.5349441  64.2850925   0.8901560  33.8447642  65.1887299   0.9508097
  33.5898280  64.0751435  -0.0421226  74.0408897  26.8609118  49.6804428
  73.2608795  26.3154387  49.7817802  74.1322374  26.9748378  48.7344456
  62.0796871  16.0842538  47.2921038  62.2861814  16.7762387  46.6638136
  61.6403389  15.4116070  46.7717695  17.6774001   1.3896038  28.0154228
  18.1593490   2.1348907  28.3738995  17.7767110   1.4738895  27.0671272
  19.0031779  14.8676574  30.0209498  18.6455381  14.9607801  30.9039307
  19.8550880  14.4508326  30.1503205   3.3928820  10.2777052  33.1457543
   2.6532694   9.6983975  33.3290648   3.1437918  10.7378447  32.3442197
  22.8723189  49.0935612  28.1158805  23.5085627  48.8131523  27.4580073
  23.3761736  49.1494799  28.9278173  24.9120164  68.2240679   9.3174135
  24.8175311  67.2993400   9.5458472  25.5601192  68.2317712   8.6130440
  66.1306143  27.0397639  43.3882189  65.4870987  26.3378000  43.2914543
  66.8954182  26.7323160  42.9016161   9.0148398   3.2839885  32.9309583
   9.2845102   3.5141137  32.0418310   9.5359846   2.5106290  33.1467128
  10.9024167  67.2899749   5.2308285  11.4763570  66.5291979   5.3205216
  10.0841117  67.0233824   5.6498015   4.8642775  50.4419708  58.7273455
   4.3173834  51.1997271  58.5200882   5.5078264  50.7749510  59.3528032
  50.0244971  64.3139683  28.6121154  50.9013673  64.6449636  28.8064599
  49.4941159  64.5868527  29.3607545  77.9002170  61.0122778   1.1415684
  78.7571553  61.0918834   0.7225764  78.0888490  60.6433513   2.0044386
  19.2662665  31.0264015  14.0857124  18.7007757  31.2701082  13.3528674
  20.1346537  30.9272146  13.6954796  66.1774492  45.5452728  49.2743826
  65.4250097  45.8074713  49.8047781  66.7892456  45.1589489  49.9010372
  11.9132944  38.5809040  46.3298178  11.7339083  38.1929135  45.4733610
  12.0103022  39.5166659  46.1532640  39.3831607  67.9364775   2.7331591
  40.2075454  68.4154521   2.8180307  39.6360465  67.0863561   2.3731956
  36.9521594  34.9795910   6.0804569  37.7788138  34.7008829   5.6864989
  36.3878608  34.2084934   6.0238373  59.4882059  18.5741365  45.6429434
  59.1678238  18.8741016  44.7922897  60.3729296  18.9339972  45.7061386
  18.1385489  68.4793036  39.3729997  18.4579392  67.5780426  39.3288493
  18.9291831  69.0087848  39.4768047  21.3581988  17.0089078  55.2575827
  21.7256495  16.1823702  55.5707026  20.8237501  16.7626750  54.5026207
  38.7368488   0.5528060  42.8895807  39.2344952   0.2296930  43.6406994
  39.0030408  -0.0127917  42.1646881  34.3182540  -0.0943945  25.9928775
  35.1260352   0.3764583  25.7878733  34.0110088   0.3009845  26.8086648
  75.5759954  54.4856882  52.5397444  76.2632799  54.3729544  53.1963730
  74.7744703  54.2050409  52.9813623  52.2109032  27.5200558  60.8734512
  51.7765903  27.4939132  60.0208569  51.7462540  26.8688059  61.3990068
   9.6077295  38.6421299  57.8477001   9.6509310  37.8733087  57.2791243
   9.2855784  38.3042383  58.6833334   0.1402681  15.2733253  64.1087688
   0.2517144  14.3625901  63.8360621  -0.0717242  15.2200673  65.0406788
  62.4081326  31.2409759  30.0481343  62.1418858  31.6363502  30.8782101
  61.5868950  30.9711647  29.6370435   2.6024290  18.6308444  55.6944370
   3.0738112  17.8213513  55.4975939   3.0248305  19.2930627  55.1473808
   9.2390677  32.9619837  21.6412687   9.3441340  33.5108471  20.8641315
   9.9405810  32.3142648  21.5736580  57.3682594  24.0562963  37.7179337
  57.5333214  23.6256933  36.8791437  56.6306400  23.5752344  38.0930662
  76.6473436  31.3339281  42.4362898  76.5487194  30.7496953  43.1880713
  76.6474152  32.2131801  42.8146362  62.1430397  32.2901082  32.6341701
  62.0091105  33.2091331  32.8658843  61.8396568  31.8032384  33.4004259
  74.5522983  28.2388496  28.3972263  74.0257839  29.0053582  28.6241150
  74.0543029  27.8022432  27.7061367  70.9323692  35.9187603  22.8320336
  71.1872959  36.0583329  21.9200206  69.9983883  36.1271262  22.8542328
  67.9744005  37.0940638  45.6610584  67.7649641  37.7702713  46.3053513
  68.6989450  36.6063070  46.0526705  19.4034267  62.4774053   1.4606344
  18.9550328  62.3234083   2.2921717  19.8990321  63.2840945   1.6015684
  61.1602306  12.5075173  32.9142046  61.3769245  11.5786552  32.9947758
  61.6599321  12.8049600  32.1539021  69.5400115  13.2467769  64.1952347
  69.1816207  12.3861526  64.4122960  70.4853889  13.1479285  64.3080381
  70.5909157  45.0595713  29.7662354  71.0873461  44.9506664  28.9551091
  69.6888781  44.8487997  29.5251060  61.9242259  18.2649348  56.4771927
  61.9743796  17.6244996  57.1868134  61.9136878  17.7372621  55.6786400
  20.8198524  66.8781783   3.7279475  20.7369065  66.0482933   4.1976702
  21.5166640  67.3455526   4.1886484  17.8730913  21.6821742  11.3968349
  17.9987188  21.4841032  10.4688168  18.7463232  21.5987277  11.7798996
  64.2299891  28.4366846  48.1430435  64.8820925  27.8331923  48.4991121
  64.5218658  28.6031437  47.2467566  47.5847264  64.5321916  15.8036029
  46.9639369  64.1217505  15.2016151  47.1184321  65.2952139  16.1450660
   2.5693079  31.5579176  43.9871550   2.4737021  30.6148362  44.1201687
   2.4134298  31.6848207  43.0512953  65.4441714  50.1340674   7.8932583
  65.2343845  50.9876011   8.2723391  64.5947039  49.7087596   7.7759916
  58.3793688   8.0548537  21.7857194  57.5936031   8.1464696  21.2468243
  59.0163803   8.6447167  21.3825941  72.5754547  37.3014641  37.3108244
  72.5959349  36.9855857  36.4074802  73.0003119  36.6086388  37.8165126
  58.4449720   4.4236168  36.6603231  58.3695889   5.1980203  37.2178602
  57.5482988   4.0985611  36.5793753  13.3409735  38.1376863  25.7988334
  14.2703482  37.9555225  25.9377527  13.3163496  39.0496349  25.5090523
  29.9162201  14.6651343   5.2700341  30.7409433  14.5919588   5.7503569
  29.3350605  14.0339688   5.6944334   3.2909533  26.1167550  28.5598087
   4.2024275  26.2683535  28.8097262   2.8448912  26.9366646  28.7719584
  72.1781921  38.0899334  62.0241642  72.0733547  37.9508519  62.9653835
  72.1138239  39.0385437  61.9135904  60.3031206   5.8796525  35.2850556
  60.6124163   5.8436096  36.1901903  59.6222591   5.2085209  35.2376986
  57.4282074  29.9742770  34.8441648  56.9649124  30.2743363  35.6261873
  56.8260765  30.1590586  34.1233826  25.3094526  29.4831395  29.9865890
  25.1190325  28.6745667  29.5110011  26.2166449  29.6868348  29.7591043
   7.4561926  27.3977876  46.4715099   6.8372866  26.9349670  45.9067202
   7.5927206  26.8068719  47.2120571  67.7536964  56.8325424  29.6004796
  68.3016872  56.3951492  28.9488482  68.2255268  56.7187214  30.4254961
  51.0455009  68.8783221  50.1708508  51.1176892  69.7430734  49.7668362
  51.8695470  68.4426908  49.9531174  61.2956476  53.5195923  53.1692266
  62.1497011  53.6838961  53.5690117  60.6680965  53.9165258  53.7732649
  25.6747957  33.3661056   6.5154797  25.7144114  32.8139758   7.2963876
  24.8768278  33.0881143   6.0658246  62.4197932  73.3245598  36.3635993
  61.6052314  72.8343414  36.2522173  63.0636378  72.8397356  35.8472157
  45.2604910   1.4691988  29.3933105  45.3314921   2.3627500  29.0575171
  45.9406325   0.9833042  28.9268947  43.1026888  24.3417168  62.1072483
  43.9773321  24.6906805  62.2788572  42.7079535  24.2477846  62.9741955
  75.7277918  58.8671494  21.3415790  75.3189707  59.5647573  20.8292890
  75.0347281  58.2170868  21.4569640  63.4080219   8.1516618  39.3702769
  64.0148497   7.7687216  38.7367582  63.9412737   8.7709731  39.8685980
  75.5021620  29.1989708  12.4573648  76.1664009  28.8396549  11.8692243
  74.7312260  29.3193603  11.9029319  58.2278347  27.1446872  45.1976204
  57.5008678  26.8889356  45.7653666  58.9643955  27.2738814  45.7951355
  72.8654575  28.8406086  43.0978823  71.9401121  28.8137150  42.8544760
  73.3340073  28.7238312  42.2714138  25.5445834  66.3527565  43.2418251
  25.1112195  65.8430319  42.5572777  26.4792319  66.2421547  43.0673933
  54.0214229   2.7059890  26.8005228  54.3041492   1.9192554  26.3343143
  53.6606193   2.3793127  27.6247406  11.6645380  36.5206933  27.2890520
  11.8610426  36.6935396  28.2097793  12.1798750  37.1685195  26.8084502
  59.5474529  47.2591639  62.2827196  59.8989820  46.6497803  61.6336393
  59.0733624  47.9113579  61.7668629  13.1617685  20.0578570  15.8292818
  13.6143252  19.3901825  16.3446784  13.2914587  20.8687568  16.3210666
  69.8865958  73.1467216  24.2130256  70.1060840  72.6213843  23.4435606
  69.5971747  73.9860907  23.8553548  65.6267977  45.6447124  34.1551709
  65.9376812  45.7996273  35.0471258  66.2997866  45.0906324  33.7598038
  13.1574484   7.0877540  14.6959269  13.0871626   7.8299809  15.2962518
  12.8303572   7.4230629  13.8611722  15.0951334  52.9810333  31.4176726
  15.5916353  53.7097454  31.0452580  15.0165125  53.1950855  32.3473144
  46.0312148  65.0304167  19.0181208  46.5624066  65.5852471  18.4469533
  46.0039683  65.5009477  19.8512423  30.3038665  63.8470636  45.1081467
  29.3751451  64.0690015  45.0414181  30.4456445  63.1997059  44.4174528
  68.2301331  30.0264978  11.1905801  68.4567833  30.7508826  11.7737842
  67.7778673  29.3982387  11.7535841  68.6676025   4.7837049  38.2451749
  68.4824944   5.6945062  38.4741020  67.9917049   4.2804962  38.6992359
  73.8073778   7.7011484  38.2050610  74.7175360   7.4610978  38.3789039
  73.4852886   7.0132023  37.6226354  30.0681158  15.0685227   2.5378555
  29.2018553  14.8143661   2.2196957  30.0119826  14.9718380   3.4885043
  10.9448572  46.0806513  44.8023796  10.1826807  46.5918112  45.0744724
  10.9832140  46.1948204  43.8527870  62.6890850  37.1671438  57.4356508
  62.8616571  36.3544726  56.9602394  62.2843647  37.7428699  56.7868280
  64.7369719   5.1607621  33.9665699  65.2909040   4.5657176  34.4718575
  65.3430557   5.6099552  33.3774018   1.7295762   3.3887599  62.3866573
   2.1148892   2.5602339  62.1015144   0.9945389   3.5290549  61.7897743
  68.1037235  37.4076486  22.7258229  68.0089045  37.0696878  23.6163425
  67.2798061  37.8634334  22.5536251   0.2431862  31.8823233  51.1046040
   1.1407368  31.6050347  50.9208977  -0.1183660  32.1068373  50.2472222
  66.6321039   0.1092906  22.2440052  67.4718285   0.4422475  21.9274068
  66.0429430   0.8622459  22.1973491  70.9920402  67.0291444  53.2113672
  70.1493355  66.6356203  53.4376860  71.5039345  66.3065526  52.8479684
  60.4251051  18.4822047  18.1009555  60.7069683  18.5221338  17.1870673
  60.3521347  17.5463831  18.2884252  67.8572893  12.9016721  32.7578163
  67.4309063  13.4257185  32.0797276  67.9550123  12.0345712  32.3643446
  52.1313067  68.9681594  38.9653420  51.8068334  69.8490508  39.1523743
  52.4699136  68.6545728  39.8039365   9.6536394  17.8333950   4.7620267
   9.5595690  17.4818897   3.8766867  10.5980154  17.8399527   4.9180344
  70.9571429  73.0303742  33.8917041  71.8674823  73.2180289  33.6630082
  70.6778976  73.7886553  34.4047928  58.0043364  20.1977873  37.7839994
  57.2043085  19.8526621  37.3876715  58.6674690  19.5313251  37.6042199
  24.1166636  22.7054238  27.4847484  24.1598841  22.5643468  28.4305072
  23.3095595  22.2678304  27.2139502  72.6090308  67.1003984  49.9355221
  72.3086711  67.9986428  50.0739861  73.5577842  67.1778999  49.8350716
   5.3008028  21.9791794  18.2576573   4.5344683  22.3743224  18.6733854
   5.2243658  22.2216344  17.3348331  26.8169205  60.5060002  56.5788365
  26.5797083  59.6045658  56.3611704  26.0009424  60.9008071  56.8863172
  34.0782329  43.1070040   5.6182027  33.6595126  42.2540806   5.7340723
  34.3994161  43.3365820   6.4901942   6.9454905  17.1763277  49.0551138
   6.3392779  17.2205210  49.7945690   7.6413389  17.7944529  49.2785931
  46.7254563  69.4664143  38.0777669  46.7883178  68.8992344  38.8462639
  47.1263000  68.9588980  37.3720884  73.2656384  23.4502983   5.0290781
  73.1568289  22.7663016   4.3683660  73.6220264  22.9930425   5.7907456
  10.3379961  19.4132340  35.4769492  10.8090063  20.2462983  35.4966402
  10.7431360  18.9259303  34.7595692  20.7831717  14.5587015  60.2323771
  21.4091372  15.1595628  59.8281908  19.9740970  14.6869409  59.7372150
   3.0055785  27.0427632  63.2686186   3.3136669  27.3670268  64.1148853
   3.2849872  27.7090120  62.6407051  62.5251619  43.9139318  53.6272669
  62.0709649  43.4668398  52.9130936  63.4545843  43.7910652  53.4341097
  72.2506044  58.3490181  52.0055151  71.8295775  58.8394213  52.7115393
  73.0052070  58.8839483  51.7592287  26.1140092   6.9827059  27.8898203
  26.0180648   7.7240351  28.4876978  26.8461736   6.4801339  28.2470190
  66.1184283   8.1206063   6.3070738  66.5524741   8.6369732   6.9861901
  66.1388143   8.6803416   5.5308592   7.6090781  57.8419115  12.1098292
   7.4120072  58.7704160  12.2334063   7.0541719  57.5747444  11.3770687
  15.7800154  56.7067173   3.3954823  15.2631811  57.4880913   3.1991064
  15.4019598  56.3671044   4.2066347  13.0165128  73.9219334   6.9497502
  13.1102935  73.8535692   7.8998863  12.8384141  73.0266716   6.6616213
  72.2484193  49.1933346  35.1271272  71.8899826  49.8703194  34.5531511
  72.1062133  48.3754206  34.6506548  51.0003917  12.8812722  30.9068167
  50.2838497  12.8769997  31.5414679  51.5491284  12.1390084  31.1601221
  77.7805980   7.1169616  61.5640926  77.9813226   8.0508567  61.5025949
  76.8243797   7.0760490  61.5497684  26.4054230  63.0672457   1.3148558
  26.7681871  63.8283588   0.8617127  25.9607527  62.5694849   0.6287539
   5.2052933  33.3426642  52.9099989   4.9117345  34.0469599  53.4879494
   6.0139447  33.6744070  52.5197935  31.1148531  70.9323408  26.5465033
  31.8321613  71.3491275  27.0239794  31.3202912  69.9978353  26.5734446
  61.0587181  19.0506295  29.7423136  60.8048441  19.7603968  29.1523897
  60.4727759  18.3287886  29.5146143  45.8892766  57.1425821   0.5404484
  46.5780333  56.7972066  -0.0274933  45.7007483  58.0118706   0.1868593
   7.8018002  42.0212725  54.0002405   7.4244002  41.7879704  54.8484003
   8.7069348  41.7135790  54.0480482  47.1477488  69.4606091   6.0930741
  46.4991192  69.0391066   5.5292952  46.6453437  70.0967385   6.6021502
  21.1383748  65.5472517  56.8489695  21.8596983  66.1579418  57.0005512
  20.5382490  66.0231781  56.2748861  28.2041911   4.5366193  63.5123444
  27.3865140   4.8656560  63.8856649  28.2309377   4.9071981  62.6301956
   5.5150131   9.8961619   1.0408318   6.0492400  10.6578282   0.8156597
   6.1500792   9.2163351   1.2661230  17.9775766  32.0348767  16.0700571
  17.4394421  31.2499455  16.1726534  18.6233810  31.7972401  15.4047072
  70.5402060   0.6664971  24.5727312  71.2968631   0.7380560  23.9908564
  70.2493842   1.5695766  24.6996176  74.9092887  42.2216654  62.5268745
  75.6411094  41.6180182  62.3992872  75.3097073  43.0908871  62.5080109
  35.2787659   8.4562351  54.1776848  35.9152804   9.1455127  53.9880371
  35.1221065   8.5273601  55.1192951  34.8609114  41.5331745  64.1883087
  34.8247075  40.7480621  64.7346735  35.2315617  41.2310505  63.3591127
  41.2960196  30.2877426  62.3705959  40.7123995  29.9795198  61.6773319
  41.8623447  30.9280372  61.9398642  17.9088163  61.8364477  25.2351761
  17.2755921  61.1223078  25.1626325  17.4849236  62.5773382  24.8020196
  10.5799631  14.7629908   8.9923680  10.5010966  15.4813126   9.6200859
  10.4972390  15.1829270   8.1361925  13.1360888  69.1492987  53.9353085
  12.9974067  68.8381195  53.0407858  13.4750104  68.3868027  54.4043064
  61.5185870   1.2194279   2.7933895  62.4171580   1.2204698   2.4635422
  61.3961293   0.3404597   3.1520664  38.2340689  10.5673245  12.0338499
  39.1823895  10.5890778  12.1620905  37.8966244  11.2379149  12.6277172
  70.6171989  12.1927297  54.4421816  71.4209795  11.6992211  54.2790318
  70.5237055  12.1900845  55.3948021  37.8284697  61.7598488  32.6114332
  38.2726065  61.8944408  31.7742598  38.4316579  61.2158253  33.1178248
  71.0159631  14.8403433   5.0452101  71.7371710  14.7366312   5.6659615
  70.8798595  13.9630154   4.6874344  34.5647573  46.4709425  63.1855726
  33.7479043  46.2623119  62.7323055  35.2368951  45.9923649  62.7003670
   9.0983085  31.5778378  38.7958967   8.8373951  31.0880545  39.5758116
   9.9664597  31.9208458  39.0077746  21.3593292  44.1967344  59.4434166
  20.5164123  44.6322632  59.3167734  21.1330819  43.3321571  59.7862816
  12.4448884  37.6408100  51.8125153  12.6823890  38.4681892  51.3938618
  12.0714724  37.1135473  51.1062670  63.1492742  29.6117190  11.3785994
  63.6970742  29.4682530  12.1503269  63.7668987  29.8511485  10.6876242
  29.4798688  38.6865893  16.3837301  29.0651489  39.5455478  16.3035452
  29.1532526  38.3394783  17.2138273  69.7497101  27.7690676  43.6753332
  69.8250027  27.1893719  44.4333040  69.5988436  27.1792105  42.9367220
  70.0260480   7.0892743  32.1812117  70.9287544   7.0079878  32.4890196
  70.1075633   7.2661570  31.2440359   8.5977435  21.1646581  50.7116508
   9.4703364  20.8052063  50.8716726   8.3934832  20.9064841  49.8128462
  52.5414167  25.5338648  14.7419750  52.1888499  26.3337735  14.3520081
  53.4754065  25.5574301  14.5337927  71.9621654   3.7795571   1.6800511
  72.5000925   3.0754879   1.3179028  71.2387402   3.8713911   1.0600054
  14.6206287  22.4783114   4.1199457  15.5430178  22.6218966   4.3316281
  14.1690973  22.5414494   4.9615919  11.6584615  74.4324948   2.9221308
  12.3062710  74.1497542   2.2766602  11.3233344  73.6182930   3.2976258
  33.1453534  37.3972872   0.2946532  33.9153750  37.4757889  -0.2684963
  33.4933348  37.4494007   1.1848366  71.3452382  38.3126858  14.4365036
  71.7287763  38.6964730  13.6479342  71.8002136  37.4771479  14.5418751
  18.6415327  45.2721357  60.4344034  18.2858634  44.3978453  60.5936098
  18.0112302  45.8652306  60.8432913  18.8330066  20.6287718  61.1402464
  18.5713518  20.4781890  60.2319002  18.6639965  21.5594244  61.2870455
  48.0072526  56.3704302   4.5849383  48.8201002  56.6202392   4.1454994
  47.9961590  56.8959679   5.3848850  67.4777515  15.8202151   1.0286963
  67.7135618  15.9088591   1.9521487  66.6667552  15.3118304   1.0363257
  64.0844754  66.6828014  14.9118674  63.5146049  65.9209325  15.0169241
  64.1036490  67.0888783  15.7784521   3.2721261  22.5072268  42.7271902
   2.7047018  22.4903944  43.4978926   3.1503419  23.3824185  42.3591769
  29.9372534  65.3989790  29.2018437  29.4900183  64.5547704  29.1424870
  30.4370646  65.3484718  30.0166249  26.8902269  47.2008463  14.2772829
  26.2577269  47.1122416  13.5643160  26.4878907  46.7394211  15.0131142
  16.2278521  25.0903010  55.9704447  15.9486449  25.3001523  55.0792408
  17.1757185  24.9749374  55.9035683  62.2499217  23.7113646  42.0268404
  61.7831250  23.0486706  41.5177500  61.6216005  23.9872530  42.6941645
  24.4428039  57.1465826  58.3242798  25.3253198  57.3951292  58.0492830
  24.1576147  56.5107536  57.6680660  33.6406282  10.2281121  23.9734232
  34.5595793  10.1581982  23.7148249  33.6638741  10.2782992  24.9290240
  58.1662162   0.8292154  12.2451508  57.6082365   0.0518444  12.2693693
  58.2490029   1.0932592  13.1614792   0.6000217  32.3699713  58.0983162
  -0.1048854  32.0195603  57.5537539   1.3915184  32.2461271  57.5744581
  23.6026434  72.3636915  21.1148226  23.9427603  71.4707710  21.1717951
  23.0677826  72.4669291  21.9019091  35.0551692  62.3781301  32.9666197
  36.0106687  62.3263575  32.9426920  34.8012594  62.5401594  32.0580446
  60.3841714  66.2096931  15.2414429  60.9159235  66.3656976  16.0219157
  59.8837594  65.4199030  15.4465067  53.5989675  10.2461937   4.5073282
  53.2244362  10.4959992   5.3520500  53.7402330   9.3020991   4.5777523
   5.5228428  33.6799458  23.7309229   4.6803788  33.7836150  23.2884943
   5.4606465  34.2461232  24.5002138  71.3100509  67.5445296   4.4063294
  71.2156896  66.6928937   3.9796602  70.6816939  67.5217773   5.1280463
  47.1696214  73.3403398   3.2953179  47.6913194  72.6083066   2.9663956
  46.9422916  73.0892469   4.1905844  54.1293004  16.1089543   9.0529263
  53.4964708  16.0058335   8.3422053  54.7430475  16.7701987   8.7330734
  33.9592645  58.0794551   0.4796231  34.4227592  57.6482393   1.1975777
  33.7813637  58.9618542   0.8051312  37.3619977  68.3345510   7.1027815
  37.9688982  68.8110258   7.6692354  37.6163069  67.4166443   7.1976816
  65.8566256  19.0450505  26.6426909  66.2146683  19.6111420  25.9588969
  64.9113174  19.1901663  26.6031325  13.7691597   9.2308501   5.7553780
  14.4924263   8.6888483   5.4401886  13.3847813   9.6025923   4.9614680
  18.8589761  71.4118435  35.6080115  18.8158415  70.5225350  35.9594500
  18.2973901  71.3906743  34.8331511  11.3861048  65.6051302  33.2982349
  11.1905193  66.1441755  34.0646625  10.5314136  65.4288769  32.9049587
  52.4851560  13.0784634  22.0572817  52.2995616  13.1132582  22.9956686
  52.3420850  13.9741448  21.7514670  52.1215299  45.7065344  62.9499292
  51.7223672  46.3146639  63.5720873  51.3793234  45.3000402  62.5025797
  68.2923396  31.2893132  23.8399279  69.0837200  31.6745213  23.4636843
  67.6261480  31.9700554  23.7449896  12.5163877  71.0966110  61.4973831
  11.6045618  71.0454082  61.2107086  13.0180085  71.1810064  60.6865263
   6.9268922   0.9130171  52.8833735   6.4818172   0.3053883  52.2926676
   6.3282255   1.0087446  53.6240923  20.2834201  10.2347696  58.1417036
  19.5470560   9.7061813  58.4492636  20.4767919  10.8235681  58.8711929
  77.4294527   9.3381813  39.4525492  77.3594006  10.1531819  38.9554465
  77.6530369   9.6175888  40.3403342  52.2010423  27.4872807   6.2147772
  52.6940123  28.2406023   5.8896315  51.3715497  27.8565482   6.5177881
   8.0458035  12.7332954  23.5870516   8.6588867  13.4249668  23.8359606
   7.2055616  13.1814556  23.4902251  68.1346174   2.5349429   3.5269320
  68.4162195   3.4359911   3.3686650  67.3680242   2.4213985   2.9650843
  24.1580586  14.9536875  42.3606264  24.8511652  14.2967013  42.4254572
  23.4701590  14.6345595  42.9447329  53.4456361   7.7540615  21.1983645
  53.7768619   7.2083882  21.9116366  52.8100004   8.3349064  21.6164744
  65.7876809  15.9257296  33.3430350  64.8545046  15.7757262  33.1916582
  65.8209975  16.4208916  34.1615259  63.8630195  23.0408886  12.8295862
  64.7746952  22.7890137  12.6824915  63.9168783  23.8905552  13.2670748
  74.2414148  37.7835587  15.5722868  73.6197575  37.1257237  15.2607977
  75.0917609  37.3455599  15.5362189  13.0313472   5.8286074   3.9836800
  13.7448696   6.0798386   4.5701945  13.3282570   5.0124768   3.5811722
  78.4235151   6.2396935   2.0336973  77.6256402   6.7136553   2.2681963
  78.1655319   5.3179482   2.0412504   9.4005406  58.9346075  46.5537643
   8.9554477  58.3363724  47.1539593   9.1328925  58.6426878  45.6823397
  11.5862242  48.8686265  19.7936308  11.5535692  47.9691770  20.1194536
  11.7479435  48.7774934  18.8546049  28.5956863  18.4962061  17.0839178
  27.9480366  17.8001431  16.9731104  29.2444471  18.3308390  16.3998091
  58.9562018  30.3996876  53.5421431  59.6012922  30.7685688  52.9388106
  58.4250040  29.8178986  52.9984724  30.4867841  52.0958557  16.5165293
  31.0546828  51.4358916  16.1188185  29.5987652  51.7821397  16.3455355
  68.1793590   6.1288670  28.8024771  67.7569230   5.7547215  28.0293047
  67.6248701   6.8711928  29.0427363   8.8060510  49.7294521  39.8546171
   8.6055684  50.3391218  40.5647898   8.0965185  49.8542404  39.2243600
  24.2399839  15.2349070  52.3440706  24.1174416  14.4692448  51.7828524
  24.4472317  15.9457854  51.7374956  17.9143456  55.7931485  24.1612780
  17.0368931  55.5557587  23.8613474  17.8091923  56.6642584  24.5438254
  10.9121490  34.3421459  45.2583361  10.0778615  34.8031259  45.1706362
  11.1187935  34.0499067  44.3705702  57.8649159  16.0004977   7.2551739
  58.1188251  15.6211546   6.4138281  58.6878826  16.3015774   7.6402819
   9.7894982  64.3804863  12.0726502   9.4822697  65.2330616  12.3807871
  10.5595545  64.1948441  12.6100361  76.0612328  71.5562250  40.7945120
  75.3035624  71.3971950  40.2315962  76.2768681  72.4777438  40.6512034
   3.7800804  59.6496677  61.9500589   3.4130090  58.9337063  62.4686050
   4.0863881  60.2829647  62.5991678  57.3389033  50.9883906   8.8110506
  57.4241880  51.2544252   7.8955281  57.7752165  51.6832580   9.3040240
  24.5832349  50.0524606   5.4325878  25.0770854  49.5017971   4.8250401
  24.4720293  49.5086660   6.2124312  22.3021320  27.3648003  25.0333750
  22.3132137  26.7283371  25.7482397  23.1065277  27.8702906  25.1502573
  70.0753565  43.9684323   2.3482764  69.3897636  44.6228436   2.4822008
  70.8892281  44.4722107   2.3411333  33.4357736   1.5687086  58.3506727
  34.3271152   1.2418939  58.4728813  33.4816317   2.4903728  58.6049652
   5.1361698  59.7967434  41.3042927   4.9721146  59.1939163  42.0294952
   5.9306067  60.2664137  41.5582848  72.5782819  35.7800463   7.6402199
  71.8785794  35.2083901   7.3242199  72.5894518  36.5097836   7.0208752
  78.0361713  40.8955288  48.2589483  77.3093159  40.3520536  47.9547310
  78.8197257  40.3887081  48.0458546  54.0158967   7.0830966  35.9866619
  53.1053070   6.8493988  36.1667895  54.3572883   7.3831893  36.8290544
  66.8212433  25.1729802   3.1264078  66.8241842  26.0070732   2.6568138
  66.2728568  24.5989636   2.5916111  52.5516800   8.4755184  55.5393982
  53.2975153   8.0934478  55.0768137  52.8097419   9.3828823  55.7016611
  21.8417315  29.1723326  10.0736487  22.6268343  29.1344097  10.6199133
  21.8509392  28.3501175   9.5836413  74.5318897  25.1141671  14.9783766
  74.9210031  24.3064907  15.3137743  75.1400550  25.8026818  15.2472889
  60.9338645  65.0445368  32.7091276  60.7045058  65.6529667  33.4115755
  61.4494208  64.3634369  33.1410277   9.4511179  19.3082598  19.0477431
   8.5625652  19.2679623  19.4014132   9.3345718  19.2465952  18.0996668
  61.1378363  40.1922131  57.4518394  60.2580694  40.5165434  57.6443291
  61.4890293  40.8154345  56.8158436  74.9459823  55.7015351   4.3279183
  74.1657241  55.5505207   4.8614180  75.5205615  56.2248829   4.8866713
   4.8799495   5.7001236   3.2377350   4.0542940   5.7541254   3.7189924
   5.3764323   6.4655760   3.5272467  68.5884408   2.0953657  45.8945656
  68.7976054   1.8779804  44.9861479  69.4399098   2.1656467  46.3261747
  41.5965084  72.9318716  28.7242090  40.7992450  72.5388314  28.3690703
  41.3072602  73.3876731  29.5146620  27.6026607  65.8956957  50.9573460
  26.9622493  66.6043568  51.0198307  27.8549838  65.8816147  50.0341082
  62.9774673  16.1915615   8.8984978  63.4716542  17.0066431   8.8110077
  63.2409687  15.8418921   9.7496903   5.0742964  34.6305922   8.5484946
   4.2291717  34.9920824   8.2814371   5.1984719  33.8686398   7.9825938
  21.3850379  67.1532583  61.5849066  20.4755259  67.1508741  61.8832541
  21.8970156  67.3093176  62.3784781  59.7255363  17.2822693   9.3763315
  60.2545925  16.4995983   9.5304501  58.8724990  17.0735529   9.7571146
  21.5540365  37.8287295  34.3019545  20.9338526  38.1462649  34.9582922
  21.4023117  36.8843058  34.2661917   1.3655162  72.7330639  12.1338093
   1.6115260  71.9381716  11.6606772   2.0732761  73.3504703  11.9490969
  62.1473922  13.6865166  20.5959379  62.2550275  14.6375826  20.5850947
  61.4291097  13.5337475  21.2099135  52.1562032  24.5628120  62.3035145
  53.0586652  24.4827320  61.9946766  51.6447190  24.0387203  61.6871214
  14.9417833  41.4760140   3.8586819  15.7843641  41.5493611   4.3069136
  15.1596121  41.1252049   2.9951298  74.7741206  15.9866122  29.6350538
  74.8907597  16.6755942  28.9808905  75.1594527  16.3469580  30.4337466
  13.7666229  15.6263379   8.7808287  14.6252159  15.7491234   8.3758938
  13.1421665  15.8211974   8.0820334  17.2718000  56.2672138  63.5725737
  18.0053723  56.6196108  64.0764761  16.5246737  56.3195705  64.1686392
  72.3823305  22.8273896   0.7540142  72.3976477  23.7801388   0.8449328
  73.2118662  22.5372198   1.1333573  52.7987436   2.7590038  57.9702568
  53.4029941   3.5012199  57.9550791  52.0877651   3.0407049  58.5459137
  65.6259997  29.9238327  32.5228560  65.6429584  30.8789709  32.5832999
  66.5073975  29.6863869  32.2347700  73.4811719  34.0729025   4.8075354
  73.9607175  33.2848576   5.0629771  72.6281245  33.9823845   5.2322113
  10.8142475  41.9254807  23.6497175  11.2394599  42.5793532  23.0948508
  10.1362208  42.4128655  24.1176569  19.6055019  67.4565506  55.4507542
  18.6548007  67.3541307  55.4944420  19.7834873  67.6502943  54.5304203
  44.0222836  41.3142586  61.7377567  44.9132776  40.9893131  61.6082525
  43.9708328  41.5054941  62.6742458  70.2080007  34.9272612  16.4578116
  69.3528684  34.5233849  16.6056883  70.2217217  35.1228264  15.5209028
  59.0990420   4.2740563  18.5926974  58.2590319   4.1807631  18.1433451
  59.2946340   3.3959177  18.9195788   9.8940909  21.1043811  61.5919590
   9.4520140  20.5086660  60.9870434   9.5287091  21.9656873  61.3897753
   3.5827831  18.5499743   3.2007658   3.1576351  19.3270090   2.8378594
   3.1859879  18.4414843   4.0650666  74.5308407  47.5869587  22.4046957
  73.6792477  47.9461125  22.6537573  74.3233951  46.8824795  21.7907679
   3.2328991  45.9640053   5.7105839   3.1376247  46.6349915   6.3865530
   4.1662196  45.7515648   5.7138502  26.2987137  25.2396488  63.7659788
  26.9595671  24.6289825  64.0924597  25.4829860  24.7389841  63.7784719
  27.2504810  36.2937430  15.4848635  26.9055943  37.0219592  16.0015738
  28.1822208  36.2658480  15.7023871  35.4580951  70.1745939  59.6119261
  36.1410880  70.7799864  59.3233871  35.8202410  69.7607327  60.3953791
  52.2881845  71.1461784   3.8361370  51.7554645  70.4687192   3.4196150
  53.1727008  70.7805659   3.8499415  52.3958308  20.0632409  36.7411577
  52.3283362  20.4514244  37.6135123  53.3321192  20.0808552  36.5429556
  27.1268896  14.4921234  11.1311304  27.8788714  14.6613673  10.5635798
  27.3182062  14.9778775  11.9334233  35.5769727   4.6361400  57.6864481
  35.6167463   4.3289997  56.7807341  36.2671361   5.2967264  57.7458668
  42.3719008   3.4723261  11.4846098  43.0514778   4.1449526  11.4401018
  41.6593607   3.8837508  11.9737398  21.8950677  65.4691362  53.6532593
  21.3274479  65.1043749  52.9742956  22.2256947  64.7047806  54.1251469
  44.7115151  63.4578134  17.1208918  45.4247276  63.7267258  17.6998961
  44.1157953  64.2069795  17.1107924  63.0214127  34.6268299  24.0072596
  62.4627961  34.5501259  24.7807562  63.7085243  35.2401522  24.2679178
  24.0584493  73.3164956   3.5109007  24.4709835  73.9955546   4.0446865
  23.9303786  73.7283828   2.6563942  22.3409788  54.4333519   7.2379601
  22.9261068  54.9979808   6.7329323  22.8554637  54.1794850   8.0041754
   4.4358138  28.1801012  12.8379547   4.8152546  27.4045971  12.4246180
   3.9623384  27.8395298  13.5969460  72.7917297  45.3825024   7.3895514
  73.0766161  44.4736699   7.2941506  72.2699817  45.5535153   6.6054833
  63.7349172  24.9354580   1.7769587  63.9210518  25.2245167   2.6702845
  62.7801068  24.8810271   1.7368805  64.4195218  29.4428233  17.1897089
  65.2440937  29.2496088  16.7436373  64.4421907  28.9026001  17.9795611
   3.6239771  32.2477272  33.3566534   3.6850623  32.7759388  34.1525709
   2.8618149  32.5973872  32.8950464  69.2181972  19.8278773  58.1783533
  68.3783022  19.7725940  57.7225542  69.8117725  19.2917085  57.6525927
  10.4199509  52.6443127  14.2940533   9.7900800  52.6261929  15.0145828
  10.2593187  53.4803418  13.8564694  65.5850466  25.5578068  23.9086497
  66.2606962  26.1405686  24.2552340  64.7875054  26.0870961  23.9119589
  19.3015675  33.9099387  18.1744158  18.7123159  33.2570437  17.7965986
  20.0230459  33.3982256  18.5402643   9.5889572  25.8693770  31.7025149
   9.7978095  25.0889567  32.2158968   8.9672617  25.5625943  31.0425055
  67.5419624  30.4684380   5.5663264  67.8972812  31.0101107   4.8616469
  67.0123120  29.8092106   5.1178705  38.3766587  59.9162796  20.2271998
  37.5246008  59.6783188  19.8616755  38.2095559  60.7187489  20.7215369
  34.6978784  66.6697454  59.9639177  34.6760726  66.1196804  60.7469797
  33.8481164  66.5268707  59.5471191  11.2679482  70.3677702  51.4735889
  11.8837893  71.0289669  51.1576891  11.7211139  69.5352507  51.3402462
  10.8356845  17.6721787  56.0013628  10.3436220  18.4909153  55.9398985
  10.5299282  17.2694111  56.8140841  12.4116135  60.4844666  41.5203476
  12.3425567  60.7479572  40.6027222  13.2653630  60.8142805  41.8006420
  42.4871635  73.4581232  44.0514135  41.6835022  73.1736660  44.4866610
  42.7174377  72.7301693  43.4741020  58.2939342  63.1856801  18.6773264
  57.3505262  63.3113172  18.7794363  58.5851506  63.9507868  18.1813013
  51.9766096  11.3709594  55.6690407  51.1764912  11.7647983  56.0168028
  51.9212822  11.5111209  54.7237778  57.7646287  61.1445263  12.7438986
  58.6963792  61.0028675  12.5765526  57.3296236  60.4068497  12.3163044
  79.1701086  55.2378491  24.8718607  78.7455542  55.6786946  25.6078207
  78.4457429  54.9192456  24.3333304  45.1654959  63.3598518  37.0782065
  44.8132467  64.0440989  36.5090370  45.2652884  63.7847805  37.9300904
  55.1364665  12.7449063  10.0789368  55.2074722  13.5711029   9.6008265
  55.1271227  12.0734719   9.3967926  46.9206905   5.2039993  56.7320967
  47.7006960   4.9907437  56.2199020  46.6900730   6.0918975  56.4588165
  78.0606683  27.3555544  39.2532027  78.2415708  26.4791611  39.5929682
  78.0976446  27.9232243  40.0230181  34.2926073  53.7540483  63.0362129
  35.2264380  53.8716650  62.8619719  34.2621422  53.2635975  63.8576508
  43.2395617  58.8109805  18.6356985  42.2960535  58.9722278  18.6405909
  43.4758333  58.7436201  19.5608389  59.8561640  24.6979884  38.7688410
  59.7174253  25.1190070  37.9204809  59.2086019  23.9935807  38.7954104
  32.8380676  17.0104626   6.0906183  33.6854799  17.1003273   5.6546700
  33.0484481  16.6459111   6.9503128  61.6118886  37.8292635  38.0157721
  60.8143242  37.3925618  38.3147967  62.0734157  38.0628231  38.8211787
  76.4616545  12.5687579  18.9708960  76.4291366  12.5034645  18.0164778
  77.3922379  12.6662711  19.1727316   1.4059166  25.6235722   5.3929960
   0.5206732  25.8314780   5.0940811   1.9713787  25.8823136   4.6653044
  15.5374722  26.7411545  18.4831106  15.7007221  27.5909069  18.0738413
  15.1211266  26.9536570  19.3184149  11.0650623  65.4019260  50.9641504
  10.1629329  65.3242731  51.2745762  11.2047327  64.6165705  50.4350615
  14.9419073  51.0322312   2.1721804  15.2893118  51.0579804   3.0637371
  15.6814007  51.2852028   1.6195690   2.8915481  44.3445233  13.4382736
   1.9596032  44.1577938  13.3249438   3.1184630  43.9335183  14.2724287
  71.1993495  56.3268852  43.0201912  70.8519933  55.4753733  42.7546597
  72.1360073  56.2732220  42.8303862  77.6226573  70.3782082  20.0017667
  78.4538302  70.6735849  19.6300983  77.8640921  69.9669933  20.8317327
  59.1045459  21.0629730  17.1184313  59.1055520  20.2384739  17.6046812
  60.0280841  21.3077049  17.0600092   6.8457294  16.8635894  44.7795916
   6.1133170  17.4734355  44.6908188   6.8239093  16.3444377  43.9757061
  21.2151694  47.5952530  56.7537928  20.6998634  46.8302488  57.0096397
  21.8396497  47.2592688  56.1108541   1.6687605  50.4992056  62.9415894
   1.3693398  51.3883114  63.1315184   0.9755248  50.1238728  62.3986530
  21.9173435   6.3067702  38.4022295  21.3743357   6.0304287  37.6639807
  21.9385008   5.5455426  38.9821589  23.1491427  30.6903437  15.0004446
  24.0661577  30.8288267  14.7635042  22.7101330  30.5170563  14.1676914
  26.9709114  59.3030098  32.6137411  27.3066143  59.7723320  31.8500197
  27.7534298  58.9713696  33.0540907  71.5440269  39.1665247  24.8403418
  71.2846597  38.3365181  25.2403986  70.7459255  39.4911507  24.4233477
  60.5743207  53.9339951  43.2679045  60.3594448  54.6465901  43.8697874
  60.3142269  53.1397274  43.7345183  33.6715917   3.1306220  45.1061249
  33.1902389   3.9497615  45.2224922  34.1679386   3.2572795  44.2975283
  41.3782803   2.6045848  54.4640112  40.4756395   2.8852941  54.6145868
  41.5422408   2.8089334  53.5433626  17.2997749  43.1445551  61.5284300
  16.9168282  42.4424839  61.0024261  16.5467548  43.5975266  61.9079161
  74.1961344  42.6542071  36.1391699  73.4220012  43.1293991  35.8372748
  74.2412765  41.8847254  35.5716383  64.1559640  51.3043404  61.4971685
  63.4320692  51.4876890  60.8983421  64.5400111  50.4920769  61.1670685
  74.2779652  33.0126691   7.5151241  73.7764392  33.8175082   7.6452780
  73.8061551  32.3518419   8.0220109  37.3181951  71.7367090  61.9809055
  37.7681816  70.8989616  62.0901012  37.9183864  72.3815580  62.3553038
  67.3101473  59.3909858  46.5199709  67.3960078  59.7285031  47.4115658
  68.2063901  59.3699108  46.1845064  14.1097692  65.3868677  14.3215716
  14.1798691  66.0240533  15.0324261  14.6198062  65.7681944  13.6069500
  46.9790939  52.3522129   5.4620707  46.6371469  52.6938250   4.6358692
  46.8945531  53.0816044   6.0761320  58.8644923  14.7670868  11.2861645
  59.0519197  14.3956688  10.4241049  59.3080045  14.1822127  11.9005310
  58.5068301  24.0216269  16.2711012  57.6468519  24.2946078  15.9514963
  59.1003779  24.7155454  15.9840262  36.2509823  74.1558768  57.7761173
  36.1272275  74.8332788  58.4409809  36.8672120  73.5403499  58.1731319
  30.3725815  40.1469135  26.2272310  30.4126596  39.3807197  26.7995715
  30.6319642  40.8783007  26.7876101  12.7767313  11.9008291  19.3847346
  12.2325492  11.3414192  19.9389529  12.1782279  12.2271204  18.7127531
  36.2090526  64.9148061  19.4469130  36.1719195  65.7013418  19.9911654
  36.0874156  65.2358558  18.5533964  10.8859479  53.3735132  32.5069928
  10.2632308  53.8818216  31.9873023  11.2535834  52.7413893  31.8893409
  77.5509208  33.5629845  48.8775492  76.6003386  33.5252142  48.9833736
  77.6968958  34.3010616  48.2857990  28.6312240  49.7379066  29.9252856
  28.0407094  50.3672316  30.3393805  29.2514560  49.5017340  30.6150496
  74.4343519  73.6765418  29.2790127  74.7136187  73.8475910  28.3795762
  73.4786224  73.7171052  29.2448759  57.9508688  13.6621121   5.0627911
  57.7757622  13.2060603   5.8859455  57.0845859  13.8200835   4.6875155
  64.5179927  69.4510095  58.5864735  65.1709628  69.8041432  57.9821920
  64.0955210  68.7452541  58.0969238  33.2862544  12.5999236  46.1167669
  33.3541965  11.8788946  46.7426538  34.0080881  12.4549329  45.5050802
  32.6992247  42.3723550  12.1618378  33.0372421  42.6173635  13.0232012
  31.8664668  42.8387840  12.0897972   7.1909767  34.1282129  56.3632250
   7.1052337  34.9062443  56.9141769   6.4555454  34.1845155  55.7531452
  16.7044950   5.9793681  29.5294714  16.7312741   6.5533859  28.7639523
  17.6074255   5.9608525  29.8466563   6.3321610  66.8854146  62.3671007
   6.6751047  66.5659933  61.5324783   6.6454478  66.2521307  63.0128813
  47.9127602  65.7778146  26.7139494  48.7111453  66.3030769  26.7679178
  48.0293993  65.0960662  27.3756468  29.7147560  23.2226133  26.1097383
  28.9767289  23.3018279  25.5053592  29.4679046  22.5080585  26.6968584
  71.1279825  41.0552454  35.3475714  70.4354564  41.4137793  35.9026313
  71.5432057  41.8237686  34.9561715  73.7144355  60.1747682  15.3742230
  74.4896630  59.9065926  14.8809397  72.9906825  59.7099568  14.9542629
  29.7969437   1.9930263  26.7123508  29.7045898   2.0488787  27.6634479
  30.2892065   1.1851598  26.5665436  10.6156540  18.3762455  44.0330458
   9.8276293  18.2161844  44.5523024  10.6691790  17.6256943  43.4414005
  17.9761720  17.0105720  60.8412695  17.3871791  17.6879370  61.1736822
  18.3778203  16.6365123  61.6254854  69.0037969  23.0621934  50.3371048
  68.5942105  22.2003889  50.2611876  69.2655817  23.2825494  49.4431591
  18.6078799  23.2945204  56.6376972  19.3423152  23.8527465  56.8930769
  18.9924288  22.4237013  56.5375614  31.6206626  51.2593021   8.6914027
  32.2043172  50.5015590   8.6539137  32.1413872  51.9420185   9.1144573
   9.3008391  52.9293026  19.4516814  10.2543262  52.9788854  19.3835890
   9.1438035  52.3646428  20.2084696   3.8764119   2.7163741  59.3551683
   3.3857965   2.0462364  59.8310328   3.2463470   3.4243178  59.2207623
   0.7601354  36.9995093  55.2576160  -0.1160183  37.0435572  54.8746729
   0.6531435  36.4565539  56.0386324  18.8726354  26.9995666  55.1202106
  19.7624493  26.6729593  54.9868298  18.6561179  27.4459386  54.3016148
   5.8512366  31.9232035  49.5486546   5.2472079  31.1969519  49.7033787
   5.3811961  32.6963520  49.8609591  73.1712039  18.2430867   9.7833979
  73.1893285  19.1648367   9.5259535  72.2401567  18.0262068   9.8318684
  24.6417880  20.9859729  62.2839117  25.5977511  20.9438992  62.2595310
  24.3555975  20.1682925  61.8768167   4.0368819  36.3199898  21.5322172
   3.6442065  36.4286495  20.6660521   4.9163079  35.9855168  21.3562548
  43.3495490  73.5548188  32.7853358  43.6385707  73.9390685  33.6130202
  42.4070326  73.4294393  32.8956759  76.1482076  57.3642756   6.0820162
  75.6628112  58.1564929   6.3122713  76.9458894  57.6857616   5.6618035
  29.6965087  65.2315213   1.0680878  29.0579108  65.3986289   1.7612707
  30.0706122  64.3782618   1.2876951  74.1576991   8.3255601  53.7415457
  73.2476959   8.0724609  53.5864115  74.3808693   7.9164898  54.5776606
  19.4542134  18.9816642  21.7622542  20.0587845  18.4838450  21.2118888
  18.8789344  18.3196485  22.1456861  36.6737878  73.0562896  32.8069544
  36.2465644  73.0122444  33.6623907  36.6510558  73.9847827  32.5754023
  33.9524571  61.0952594   2.0266354  33.2975892  61.1308696   1.3294184
  34.1787998  62.0109178   2.1896279   1.8774029  69.7633617  61.6038370
   2.5359388  69.1605668  61.2585831   1.3421246  69.9938293  60.8444977
  38.4229712  49.7611405   5.7937395  38.1091169  49.1709663   6.4788830
  38.9749853  49.2109372   5.2380526  65.1102014  12.7430418  37.0491850
  65.7337017  12.9199913  36.3448012  64.5500501  13.5188416  37.0737231
  14.9850515  47.9232861  15.4935229  15.5622200  47.1647348  15.5813277
  15.1882187  48.4681143  16.2538588   4.3272857  10.9479836  11.6918337
   4.7078637  11.7930630  11.9310629   3.9042262  10.6402949  12.4934447
  17.7475071  25.4289818   9.2421812  18.4195173  25.1880527   8.6045396
  18.0932200  25.1243496  10.0811768  64.4128302  49.8910999  42.3386002
  64.4037238  50.7188988  41.8580818  65.1666561  49.4179487  41.9863176
  47.2858743  63.5197546  12.6342928  47.3467425  62.9946520  11.8362963
  46.7106060  63.0154206  13.2095730   9.4259902  51.3900875  37.1154475
   9.2664190  50.9069012  36.3047075  10.3663536  51.2974785  37.2683382
   8.5475206  20.1067114  59.3631649   8.0351555  19.2985773  59.3379974
   8.8199139  20.2459502  58.4561682  63.0784408  35.6581187  60.2625418
  62.5435141  35.9366035  59.5192146  63.0071703  34.7035766  60.2646399
  78.9309399  31.8836021  40.0559855  78.3351811  31.2140536  39.7198200
  78.3567017  32.5964642  40.3358269   6.8566209  32.5444770  60.7157326
   6.1615491  32.1585798  61.2488270   6.5955573  33.4589791  60.6072807
  41.8290281   5.9937823  43.8596153  42.5396442   6.3078666  43.3005047
  41.5965366   6.7497176  44.3988180  74.1985197  23.3702016  61.4770222
  74.8796592  23.1690383  60.8352947  73.8077966  22.5216269  61.6855621
  34.7099153  44.9599083  13.5021126  35.3580371  45.3978069  14.0538513
  34.3308411  44.2861905  14.0665924  58.1995483  19.4078949  31.0293543
  58.6044110  20.2649191  31.1628783  58.4377422  19.1673592  30.1340067
  57.7126316  13.3532001  23.8573324  56.9412927  13.6264421  23.3607352
  57.5568608  13.6829020  24.7423517  59.5363080  73.7655374  26.7403626
  60.0315517  73.8074917  25.9223127  59.8661739  74.5000360  27.2579837
  16.8142438  14.4747913  50.6642532  17.4248552  14.4523752  49.9274492
  16.2782931  13.6892438  50.5551481  35.3892183   8.4405625  57.3465204
  35.5419564   7.5564432  57.0129967  34.6734643   8.3395195  57.9739857
  48.3236031  58.5339095  27.6566183  47.6823286  58.9160635  27.0574915
  48.3637766  57.6106073  27.4073469  63.2384808   6.7711428   6.4001429
  63.6810179   7.0365361   7.2063458  62.4496712   6.3180045   6.6979325
  64.7882982  20.9427670   4.3679249  65.2982707  21.3378170   3.6607468
  65.3567405  20.2573994   4.7191775  11.1170328  63.8822460  63.8515234
  11.4941239  63.1917334  63.3063364  11.3543069  63.6376095  64.7460032
  37.4025996  37.2655896   7.4391377  37.4400897  36.4348677   6.9650805
  36.6957696  37.7518729   7.0147002  47.3238973  55.9843208  14.8171246
  46.7354850  55.4300453  14.3045056  47.6682095  55.4043021  15.4962885
  17.5510037   0.1611382  52.7078485  16.7588818   0.6984603  52.7000856
  17.6541650  -0.1002363  53.6228752  63.7999205  64.6170070  30.4993880
  63.9252261  64.9178078  31.3994181  62.8536514  64.6605279  30.3618586
  16.7276573   6.4089411  43.5707664  17.1968532   6.1201549  44.3535137
  15.9569061   5.8427328  43.5309839  12.0750499  23.1720185  50.1981211
  11.7962325  22.9850459  51.0945225  13.0192184  23.0146956  50.2032280
  78.7884891  23.5262609  53.7037706  79.5074923  23.9872766  53.2716465
  78.7002497  23.9614272  54.5517540  77.4597789  29.8716617  37.8299284
  76.8563300  30.4976273  38.2302380  77.2347153  29.0320849  38.2307935
   1.9612460  57.5800037  39.1384101   1.3045374  57.5992632  38.4422827
   2.7993128  57.6283312  38.6784744  45.1172189  49.6956279   8.0328238
  45.8044807  49.1358890   7.6714432  44.3397860  49.1375770   8.0530846
   5.6401628  30.2515244  53.2620525   5.5495864  31.1527753  53.5715294
   5.3718770  29.7142339  54.0074205   8.0213279  35.0574088  27.4394488
   8.2907099  34.1624212  27.2328997   8.4928787  35.6011391  26.8083930
  19.8249936  45.4601049  62.8989887  20.4042625  46.2200737  62.8430796
  19.5050931  45.3365231  62.0053339   5.7682449  58.4025621  55.7995987
   5.4336941  59.1334343  55.2798510   6.2871665  58.8167429  56.4890957
  35.1041956   0.5671552   1.2932646  35.3050204   0.0246910   2.0559132
  34.1799636   0.7935503   1.3970577  67.7467862  32.0083117  52.1911097
  67.2142164  32.7819753  52.0065975  67.2305790  31.5072179  52.8225088
  24.3807435  12.6328444  55.6296110  24.3330550  12.3049343  54.7315931
  25.1745057  13.1674993  55.6475258  52.3961619  66.2337877  17.3061430
  53.0988101  66.2961342  16.6591227  52.1130423  67.1382834  17.4401629
  21.4176444  63.4178974  27.4816286  20.5555580  63.5743930  27.8670466
  21.9448415  63.0772759  28.2043040  70.5906127  44.7707558  32.6507187
  70.7909337  44.7055244  31.7169905  69.8000804  44.2429638  32.7635241
  11.1935854  61.0589361  62.8506517  10.2412319  61.1223459  62.9229832
  11.3419700  60.2746916  62.3222876  23.9067443  26.2178877   1.0774004
  24.1658171  25.3035334   1.1917269  23.8638170  26.3378409   0.1287186
  65.1041666  14.2102218  43.8927269  64.9423031  15.1022744  44.1997671
  64.2546717  13.9104688  43.5690928  68.2957105  56.2166359   0.6804478
  68.7276439  56.3210883   1.5282404  68.7654714  55.4967274   0.2593863
  74.6742264  39.3450785  48.8136339  74.8591868  39.0709329  49.7118902
  75.5130247  39.2613983  48.3601522  44.4090632  52.5862779  21.0347712
  44.4478528  52.8247239  20.1085627  44.1037766  51.6790666  21.0359633
  24.4379851  59.2194988  33.4855330  24.2566232  58.4216215  33.9822542
  25.3829628  59.1980578  33.3345663  54.8069529  55.4239799  30.3297674
  55.3747658  55.9686889  30.8748400  54.9056796  55.7827117  29.4478380
  78.1361462   1.4533435  55.1977921  78.2544732   1.1257502  54.3062162
  79.0162637   1.7018002  55.4804516  46.4318943  66.2660943  45.9230852
  45.9686100  66.0575347  46.7343235  47.2069251  65.7045661  45.9387255
  28.4539179  48.4435691   5.8833611  28.5457326  49.1151514   6.5592158
  28.7104522  47.6300575   6.3176691  14.8229162  66.8462541  12.1546948
  15.3782240  67.3270776  11.5409577  14.3015818  66.2649061  11.6010916
  15.0567011   2.5270799  26.2349093  15.9144644   2.1318344  26.0791647
  15.1400189   2.9514817  27.0888197   4.4480407  20.4528427  58.6232662
   3.9681202  20.7443738  59.3984556   4.2402011  19.5214248  58.5491323
  57.2812632  74.6071148  28.2598329  56.4584283  74.2066669  27.9790926
  57.9342488  74.2665386  27.6484036  77.1703925  15.8579171  55.9607983
  78.1223921  15.7585943  55.9528112  76.8749613  15.2780163  56.6627026
  17.2613195  64.9766066   7.2022402  16.3339976  65.2095010   7.1567881
  17.2754226  64.0262463   7.0888912   8.1180519  19.2504025  27.8426766
   8.8176411  19.4560409  27.2225809   8.2287449  19.8873985  28.5485220
  67.3890821  26.4748478  39.6677256  68.3044795  26.3328743  39.4266367
  67.2339598  27.4013662  39.4840693  41.8918065  54.6453049  11.4860880
  42.1608845  53.8913001  10.9613907  41.7202214  55.3346064  10.8444845
  70.4547957  60.0841786  12.0033514  70.5828599  60.8665993  12.5396788
  70.3237847  60.4203464  11.1167490  69.9622905  73.7624522  49.9839497
  70.7269156  73.6763811  49.4145870  70.3018904  74.1689674  50.7812262
  20.2596424  44.0759309   7.6850378  20.7341848  44.8959364   7.8215372
  19.5695201  44.0853234   8.3482706  77.8881557  41.3095168  12.2238266
  77.3521789  40.7074479  11.7076170  77.2799833  41.6866711  12.8595221
  40.0340939   7.8920764  61.9641018  39.5120215   7.0904803  61.9974995
  39.9356627   8.2047176  61.0647678   8.6311322  40.7037544  45.3101921
   9.3398756  41.3375759  45.4205847   7.9350138  41.0201597  45.8859825
  15.8911677  37.5338362  64.1125154  15.8780404  36.7112373  63.6232376
  16.2976142  37.3083447  64.9492836  44.7881547  64.0667703   4.0558493
  45.1726095  64.0525248   4.9323332  45.5406610  64.0805556   3.4644329
   0.3879762  61.6698601  36.3811648  -0.0755048  62.0689108  35.6448424
  -0.0929046  61.9641520  37.1547091  16.4603110  71.7107783  62.4950409
  16.9239398  70.9784137  62.9011440  15.5347367  71.5267058  62.6552296
  70.9717659  57.5065660  48.6033058  70.2457759  57.9255724  48.1411362
  71.2460122  56.7956209  48.0240202  43.3926614  14.6417740   1.4333069
  43.9814253  14.9407891   0.7403528  43.5234089  13.6941222   1.4663231
  13.1055510  45.5213356  46.4737701  12.9473710  46.1084795  47.2130108
  12.4165142  45.7366371  45.8451986  47.3134831  58.5901453  11.3179743
  47.7092961  57.7247455  11.2147820  46.6162662  58.6143257  10.6625855
   1.0406939  30.6755900  37.3481011   0.1371663  30.3718114  37.4352121
   1.0101640  31.3177276  36.6389036  33.0367772  52.0838346   5.3613674
  33.2824300  52.7358856   4.7050774  32.5735537  51.4082755   4.8661101
   8.2303623   6.0058357  14.9307120   8.5330836   6.8064643  14.5022523
   8.7894014   5.3163816  14.5724380  66.2854723  51.8421306   2.1275294
  65.8815817  52.7005460   2.0001375  66.0077123  51.3315107   1.3670361
  66.6124228  54.6705641   7.6162922  66.0967807  54.8436250   8.4039414
  65.9627251  54.4546368   6.9473374   0.8131988  55.9078407  58.9453983
   1.0856663  56.2834215  59.7826195   0.5089176  56.6577196  58.4341955
  76.3570976  60.9036182  54.2697096  76.3950372  61.8072628  53.9563084
  75.9768176  60.4131411  53.5409737  41.0244600  51.4287545  21.5262282
  41.7858426  50.8614685  21.4049208  40.8048610  51.3398423  22.4536478
  27.6082710  17.1769691  43.5762119  28.1072000  16.7940545  42.8546286
  26.8433956  17.5704622  43.1562567  47.5272492  54.4748308   7.3384917
  48.0868200  54.0349831   7.9785311  47.6314262  55.4069223   7.5297701
   1.2022804  43.9911032  52.3310232   1.6518448  44.8124599  52.1322918
   1.7090535  43.6078119  53.0469131  63.4817890  38.5438843   1.0919964
  64.0615396  37.9165216   0.6600964  62.5999931  38.2161178   0.9152615
  63.0739526  55.5780007   0.4871762  62.4193791  55.2016892  -0.1011694
  63.7319879  55.9553589  -0.0966251  11.1353481  33.0962944  42.9818106
  11.7497039  32.4355578  42.6620817  10.3358984  32.6065421  43.1748247
  41.5935317  57.5534894   6.1009085  40.9505955  56.9034006   6.3841927
  42.4273840  57.2301115   6.4420092  45.3272823  69.1627075  17.5744211
  45.5389170  69.3725087  18.4840548  44.4295482  69.4742729  17.4593889
  61.2823669  38.3661366  41.4060926  61.0313443  38.7104058  40.5489492
  61.9010357  37.6626062  41.2098122  71.0499171  44.3472433  54.6779203
  70.9228478  44.7417498  53.8151026  71.4615778  43.5023069  54.4966698
  19.2689610  28.2735062  52.4993563  18.3742356  28.6053395  52.5740910
  19.3499649  28.0072975  51.5834951  43.1646816  51.8639364  14.9517739
  42.9484669  51.3085164  15.7007658  43.8106290  51.3590421  14.4577420
  38.6696100  45.7339430  61.9107771  38.4417152  45.9841633  62.8061438
  37.9647779  46.0963774  61.3740396  14.4233648  24.9512472  20.6701147
  13.8333718  25.3566136  20.0346529  14.7249953  24.1509213  20.2403128
  60.2021388  58.7742450  15.1159823  59.2566065  58.9113380  15.0576222
  60.2950529  57.8685023  15.4113257  53.2644536  71.6373853  53.2253790
  52.9219285  70.8734848  53.6894560  53.3170376  71.3585578  52.3112011
  75.4866369  57.9576375   2.8013766  76.3409098  57.7191140   2.4414360
  75.0854595  57.1219530   3.0399620  20.3127674  73.0058600  31.1575949
  20.3958765  73.0799319  30.2068865  20.3205041  73.9106419  31.4699137
  67.0443530   4.3185547  10.4513466  67.5093897   4.1416577   9.6336186
  67.7161045   4.6647147  11.0388481   7.0447010   4.5149302  30.3637958
   6.9681281   4.9064201  29.4936776   7.7802885   3.9070216  30.2890301
  52.2563362  41.1952877  58.0246782  52.5590277  42.0548439  58.3175516
  51.3030577  41.2754202  57.9919338  21.6839767  47.7956511  16.1256754
  22.4917717  47.4641373  15.7335055  21.1742101  48.1221785  15.3842222
  60.0485279   2.8082589  11.6857254  60.7250740   2.2248343  12.0294297
  59.2262854   2.4343375  12.0024740   8.7784103  17.0439795  14.6259367
   9.7306565  17.0598772  14.7218954   8.6258487  16.5240219  13.8368857
  29.4320607  55.1817179  63.6440754  30.1018429  55.6408358  63.1372833
  29.8832703  54.4156837  63.9988041  49.0222885   3.5719708  17.4828303
  49.2181777   4.0470532  16.6752684  49.8322226   3.1051615  17.6885760
   8.4511284  10.2700737   2.4416554   8.5615996  10.8526686   1.6902506
   8.0762080   9.4707373   2.0718872  13.2246184  62.2696543  51.1612272
  14.0331876  61.8538475  51.4604807  13.1489861  63.0593920  51.6967916
  11.3896787  55.8851242  53.3361721  11.0478127  55.7564163  52.4514151
  12.3373771  55.7878160  53.2432652  52.7682972  40.2352381  43.4345531
  52.5762987  41.1570644  43.2624960  52.0297909  39.9312019  43.9621925
   7.8125600  15.4918698  26.9975340   8.5319666  14.9125412  27.2486555
   8.1767181  16.3736466  27.0755827   1.9167103  37.6362491  63.8652897
   1.5761907  37.9496956  64.7031593   2.6819995  37.1110249  64.0991735
  76.9273265  66.2270667  18.4100210  77.2135384  66.4839603  19.2865526
  76.6434892  65.3181340  18.5075342   5.0696091   3.2242945  23.8652479
   4.7860054   3.9488152  23.3076823   4.5812348   3.3435467  24.6798002
  64.4146688   0.8574847   1.8677771  64.8843737   0.9935335   2.6906407
  64.9491604   1.3029388   1.2104189   5.1837194  20.1596093  54.9802446
   5.4082203  21.0779595  54.8303509   6.0011077  19.7583044  55.2753019
  39.3139330  65.8572413  35.2964270  38.4120039  65.6019070  35.1026308
  39.4142238  66.7146923  34.8829710  70.7702656  -0.1787969  18.8127291
  71.5849121  -0.5467698  18.4704172  70.8024128   0.7453731  18.5655272
  12.9862408  29.9362543  54.7646582  13.7772326  29.3993214  54.8122465
  13.0142097  30.4745558  55.5556547  60.0952963  59.7971680  21.3802588
  59.7486142  60.6842925  21.2850916  59.4029263  59.2314913  21.0383951
   6.0303599  18.8981962  61.7885637   6.3494503  18.8188064  60.8896160
   5.1293832  18.5770321  61.7521524  13.9533238  27.2702769  25.2434790
  13.0113176  27.3003081  25.0762808  14.3091015  26.7570761  24.5180285
  56.5102676  73.9604928  22.4418700  56.2559871  73.7663247  21.5397131
  56.2429289  73.1867172  22.9378855  66.4923219  65.6952311  14.0009939
  67.2569255  66.1372091  14.3701327  65.7556609  66.0168149  14.5207512
  67.3574189   7.0636560  11.1527836  66.9652347   6.9322707  12.0160115
  66.8820456   6.4621570  10.5796778  64.0393698  74.3597839  49.4314194
  63.3453953  74.1701660  48.8000107  64.2994141  73.5016511  49.7664070
  66.2109069  72.9593207   7.9124510  66.0106806  72.1930196   7.3749363
  66.9737319  73.3549549   7.4907839  32.5019932  49.5365763  59.1250753
  32.3307896  48.9310980  59.8464108  31.6928530  49.5347691  58.6136866
  69.5592125  29.3105057   1.9157946  68.9830108  29.9375037   1.4786494
  70.4200192  29.7290114   1.9058764  16.8988375  10.5862358  48.8536703
  16.8818955  11.4541081  49.2570841  16.1819700  10.1121834  49.2751086
  72.4197928  60.2225924  63.2013702  71.6909913  60.8273935  63.3402681
  72.4838797  59.7324944  64.0210819  28.8218425  55.0018742   3.9561665
  27.9160465  55.3104224   3.9798987  29.1546778  55.3010311   3.1100237
  58.3677486  73.0324008  30.4759180  57.7925471  73.6780717  30.0654566
  57.7808718  72.3259546  30.7456171  42.0400715  67.0382404  62.4218941
  41.5074253  66.4576054  61.8783951  42.6112461  67.4903536  61.8009377
  49.1275002  33.3530262  11.9988739  48.4836061  34.0588787  12.0572245
  49.1393553  32.9666499  12.8745472  11.6527013  63.8205172  14.9166500
  12.4965850  64.2673852  14.8502981  11.4584986  63.5413649  14.0218889
  42.9988328  60.7353570   7.4260962  42.2636584  60.9169676   6.8406307
  42.6975135  61.0270454   8.2865345  17.9746626  63.7467100  38.6458838
  18.5667745  63.2606508  38.0719721  17.4286524  64.2582108  38.0488360
  76.3691719  24.7920302   2.8106463  76.9102009  24.7838667   2.0210516
  75.6517322  24.1891316   2.6156389  14.1912568  57.3960543  46.9951868
  13.8496065  56.5227842  47.1872854  13.4291017  57.9713440  47.0614719
  71.6449252  46.0470009  63.1659126  71.9127998  46.0034084  62.2479916
  71.8928180  46.9280386  63.4461784  77.0203557  34.3107414  36.4940619
  77.5572228  34.7532654  35.8366585  76.7938100  34.9981213  37.1204948
  64.8194805  31.7670870  45.6361437  64.6187118  32.4488378  44.9949455
  65.4118255  31.1724424  45.1759720  10.9925127  41.5955257  54.3503332
  11.6568685  41.1595774  53.8166523  10.9999049  41.1175108  55.1795959
  36.3216329  36.0296726  60.5690384  36.4694810  36.2109995  61.4972067
  36.3708854  35.0762057  60.5004597  68.3621971  37.5454974  59.0308332
  67.7851466  36.7930460  58.9002037  69.2459873  37.1841621  58.9631176
  48.6123232  55.3098323  18.0499136  49.0930394  54.9331536  18.7869704
  47.7584604  54.8779549  18.0750429  59.8914055  64.5623781   4.1473400
  60.3897051  63.8331749   4.5163834  60.2214459  65.3346898   4.6065151
  71.3333920  69.5525815   7.9400408  72.0536450  68.9332773   8.0580580
  70.6623725  69.2598917   8.5567248   6.3148073  40.6646231  26.6773951
   6.3070134  40.0887564  27.4419462   6.5608863  41.5216330  27.0255339
  73.3194427  57.5650169  21.6917956  72.8366164  58.2992556  22.0712721
  72.8318671  57.3419668  20.8988535  11.5813756  26.7449760  35.8984184
  11.8294740  27.5887489  35.5206251  10.7167244  26.8980956  36.2794232
  54.1164798   6.6025904  18.6284888  54.1267060   6.9123724  19.5341170
  53.7212567   7.3206929  18.1341612  74.8458049  74.5524645  26.8854165
  75.6015975  75.1113653  26.7047501  74.9454904  73.8134623  26.2852716
  78.8397916  49.3910912  13.9337122  78.7482913  49.7758225  13.0620253
  78.2884534  48.6090020  13.9094126   7.7006894  29.7956944  45.2896690
   7.8293169  30.4156637  46.0075331   7.3026305  29.0296769  45.7031918
   3.4674716  42.9647281  19.0779078   3.2008338  42.3101218  19.7233736
   2.6452279  43.3444949  18.7682020  72.3982497   5.2769163  19.5043528
  72.2376652   5.9949759  20.1165831  71.8904384   5.5073861  18.7263834
  14.9658493  16.0478905  15.9839308  15.4962925  15.2669648  15.8257735
  14.2918448  16.0211924  15.3047859  59.3514315  49.4827032  58.7337017
  58.9335469  50.0146246  58.0564547  59.6899847  48.7202072  58.2644367
  22.2168970  25.1416636  50.3923082  22.8947997  24.8174453  50.9852362
  22.6676106  25.7798529  49.8393106  63.1870146  15.8287075   5.9463131
  63.9283903  15.7517985   5.3457463  63.5410281  16.2913636   6.7058241
  66.3369484  32.7878455  20.8631480  66.9050689  33.4868029  20.5392229
  66.1698385  32.2401837  20.0960982  55.9967140  58.1642725  17.5148737
  55.1898579  58.6082031  17.7759039  56.3117389  57.7484896  18.3174479
   7.2663450  53.0124903  54.6855116   7.6961297  53.7307072  55.1499271
   6.3343555  53.1335926  54.8670673  59.6867778  22.1554592  14.3389952
  58.9633449  22.0802859  13.7167227  59.2695214  22.4113015  15.1615965
  38.0689096  53.8909769  64.7836447  37.8957415  52.9532909  64.7000647
  38.0285048  54.2228794  63.8867378  60.0907053   2.4892143  33.0815375
  60.6759729   2.4909953  33.8389551  59.3591531   3.0484990  33.3428061
  44.0409867  73.4334161  22.5156748  43.6223308  73.8042690  23.2924807
  44.1446368  74.1767194  21.9215452   9.4393682  48.8700390  44.3047810
   8.8769716  48.0970287  44.2557859   8.9918941  49.5260525  43.7703228
  11.9388036  26.3845471  18.9490473  11.4515428  25.7849625  19.5141184
  11.6460303  27.2560290  19.2155802  20.7852650  18.2423413  44.1973305
  20.7931638  17.8311992  45.0616980  21.5501523  17.8780520  43.7518263
  59.8806445  56.1648989  45.0181246  59.5015076  56.8866920  45.5196238
  60.4536334  55.7162285  45.6399059  13.6808399  29.8006895  14.5498097
  13.4923247  29.0474060  15.1095021  13.7754873  30.5334834  15.1583206
   7.8372339  27.6356057   6.2692797   7.8965596  27.7171591   5.3174078
   8.7404398  27.7230433   6.5739167  17.8077245  67.2344732  63.7480974
  17.8609920  67.8558111  63.0219221  17.2258627  66.5440273  63.4303617
   4.9728656  61.2995364  23.1234991   4.7947192  60.4186751  23.4530127
   4.1471648  61.7698552  23.2386172  18.4782509  46.9104603  28.0260718
  18.7470345  47.7639893  28.3658755  19.2578367  46.3618496  28.1127417
  64.9069623  56.1420526   5.6618035  64.8929314  56.9852724   5.2090132
  65.5436782  55.6191363   5.1745808  69.2995973   8.0298975   7.4222052
  69.3149014   7.2198943   7.9320061  70.1873382   8.3791474   7.5007593
  15.9623007  17.1247557  30.0446570  15.6641487  16.9087151  29.1611063
  15.1568035  17.2789696  30.5382406  63.0849556  55.7084002  41.5918791
  62.7810482  56.1664202  40.8082354  63.3428244  56.4073088  42.1929228
  11.7622212  41.4145831  33.9319479  12.3236589  41.0170105  33.2663977
  11.2486867  42.0658997  33.4541476  21.5007186  25.1569295  61.3722801
  20.8717370  24.4392657  61.2976408  22.0823336  25.0448370  60.6203508
  14.2122841  56.3162565  54.6652842  14.1704726  55.5200720  55.1949739
  14.3303752  57.0214128  55.3017139  57.4468354  54.4366195   0.3496754
  57.5891451  54.6040561  -0.5819595  58.2201914  54.8018302   0.7795298
   3.3127502  14.2606521  54.9853611   3.5399869  15.1844668  54.8797083
   4.1558370  13.8137519  55.0609684  60.1116077  56.4992762  49.5389652
  60.1470295  55.9735727  50.3380966  60.4850487  55.9334087  48.8632679
  74.1449443  50.0151587  48.4045506  73.7190518  49.3750477  48.9747286
  74.6577290  49.4870853  47.7926445  76.8612154  29.8947266   5.9574902
  77.7140577  29.7575262   6.3698780  76.9562037  29.5218209   5.0810492
  72.8448923  25.5067376   1.2935316  71.9578631  25.8439425   1.4188349
  73.3117660  25.7589463   2.0901787  45.2725069  73.2744648  26.0863650
  45.0479714  72.4464013  25.6619513  44.8554949  73.9429810  25.5428374
  11.4309696  17.4276522  15.8041537  11.3927797  18.3799818  15.7156145
  11.2925462  17.2681597  16.7377627  20.5008197  58.3827686  58.0603790
  20.7226515  57.7330494  58.7273788  19.5501399  58.4751701  58.1228495
  15.5276064  69.5575072  40.8156359  15.7558207  70.3259756  41.3387072
  16.2288205  69.4921948  40.1673567  53.8929144   1.2461213   1.5760004
  53.5249420   1.9094661   2.1597826  54.2718829   0.5930141   2.1642744
  64.6806697  55.4674913  17.6350844  64.5665769  54.7164740  17.0526850
  65.3159718  56.0248019  17.1856081   1.3228921   0.4625800   1.3375389
   2.2543029   0.2487877   1.3922655   1.1999134   1.1631468   1.9780934
  49.8377351   0.5946113  32.9577279  49.0391330   1.0144998  32.6381111
  49.6773294   0.4538013  33.8908291  77.6054285  54.5045710  60.3426647
  77.1324652  54.4230700  59.5144749  78.3140587  55.1198530  60.1542521
   3.6826281  19.6366671  11.0040724   3.5603289  20.1615361  10.2129996
   3.2938484  18.7883023  10.7911026  35.4563959  58.8893155  13.0653298
  36.0395832  59.5932797  12.7814972  34.8160918  59.3218735  13.6302531
   0.5247311  22.6203898  26.2889540   1.4710573  22.7373007  26.2050974
   0.3430037  22.7930287  27.2127497  13.2123637  52.4116516  53.7336206
  13.2364190  53.1494188  54.3430090  12.4430060  52.5762892  53.1884527
  16.9057329  36.1342864   3.9673161  16.9262119  35.2964526   3.5048794
  17.4069949  36.7284446   3.4087967  59.4440889  42.0002079  54.1861248
  60.2584267  42.2096300  54.6435404  59.4393015  41.0446119  54.1309452
  11.7271626   8.8447404  59.2122173  11.6413224   8.3839625  60.0468111
  12.6617622   8.8018107  59.0099430  78.5781820   4.1273001   9.5658505
  78.5447653   4.4329527  10.4723227  79.4032414   3.6457470   9.5057261
  64.9492450  39.4903782  25.5008566  64.7038086  38.9786795  26.2716639
  64.3407138  40.2292422  25.5001509  48.8334371   3.7200716  12.2676003
  48.0697845   4.2124155  11.9664967  49.5826264   4.2502573  11.9958508
  66.6687484  22.0805672  21.0346758  66.2756594  21.5478447  21.7259943
  66.1683770  21.8604592  20.2489149  47.6793333  35.9155968  10.7128489
  47.1020557  36.2648610  10.0338804  47.9394768  36.6821650  11.2236559
  10.7196689  51.0816097  45.6971502  10.6961274  50.2384472  45.2446508
  10.3733432  50.8948851  46.5697479  56.4613870  61.9069242  63.0860758
  55.7893399  61.8862343  63.7673664  57.2457317  61.5620375  63.5127926
  12.3134808   1.4231232  30.4189360  12.3656062   1.4157012  29.4631827
  12.1553711   0.5096558  30.6572878  77.9184325  13.3385542  30.0291312
  77.4604185  14.0283755  29.5489275  77.2629006  12.9925564  30.6347620
  44.4032482   8.9943055  10.4815352  44.0060000   8.7143353  11.3061821
  43.6600451   9.2201737   9.9221956  16.0419548  66.1064386  61.6094017
  16.1583090  66.6441154  60.8260822  16.0451901  65.2060604  61.2845325
  65.5179770  34.3969134   3.4672177  66.1949380  35.0701741   3.5355913
  64.8854895  34.6230963   4.1491472   2.0012073  21.0838774   6.5818941
   1.6109470  21.8833807   6.2287342   2.0887236  21.2541178   7.5197565
  18.3905850  38.5299731  17.4051916  19.0607468  38.3416344  18.0621874
  18.8626454  38.5223260  16.5725291  21.5451288  72.7581358  50.2734661
  20.9062576  73.4699440  50.3109217  22.2191358  73.0077267  50.9056473
   2.0721749  30.3004769  31.3632071   2.1156386  30.1096609  32.3001826
   1.3252143  30.8923128  31.2737047  49.2743540  72.2753620  53.7203264
  49.3839121  71.4142084  54.1236067  48.4676027  72.6187754  54.1043139
  69.6511062  28.8144472  16.7253268  70.5195184  28.7921742  16.3233340
  69.2942520  27.9393748  16.5732157  77.6926116  56.5698983  10.3000414
  78.0855111  56.6268124   9.4290554  76.7836360  56.8406941  10.1709187
  13.1310288  52.3919405  14.9939739  12.2088341  52.6260700  14.8892271
  13.1458143  51.8113746  15.7548678   7.5510430  72.3240449   0.3044331
   8.0018926  73.1056120   0.6239998   6.6597533  72.4061372   0.6436884
  51.4492182  62.3096969   8.6822188  52.3471073  62.1958806   8.9937842
  51.4795951  62.0460607   7.7625382  16.6135955  69.5942928  29.3076575
  16.3096833  69.7574713  30.2005350  17.5386310  69.3691470  29.4068968
  46.3943459   4.7817591  18.4836733  47.1078678   4.1824892  18.2646048
  45.6029900   4.3282441  18.1933176  29.5751909   0.9513715   3.0460751
  28.6785797   0.6190399   3.0027210  30.0403933   0.3152636   3.5893833
  67.7014895  17.0052126  26.8887102  67.1982606  17.8121117  26.7795813
  68.0270620  16.8054322  26.0110247  79.1405828  13.6325673  59.5548308
  78.6116774  13.0313614  60.0792753  78.5888870  13.8417557  58.8011038
  62.4617914  53.7022018  35.1353860  63.3357648  53.3193541  35.0590420
  61.8652324  52.9724836  34.9684763   7.0516318  71.2050295  60.5780172
   6.1326873  71.3659906  60.3638554   7.1138674  70.2539778  60.6666660
   7.3557905   1.2080577  20.5032217   8.0082492   0.5268935  20.3403055
   6.5157703   0.7788709  20.3407442  34.7032523  48.7851143  64.6613359
  34.2165852  49.5264053  64.3009567  34.5393610  48.0695915  64.0470076
  22.2144465  16.1508826   8.4480726  23.0203346  16.6459254   8.3007490
  22.3237661  15.3549460   7.9277146  58.0578236  51.6415228   6.2551367
  57.6303295  52.4332370   5.9285366  58.9933709  51.8121864   6.1462509
   8.6777977  72.9690554   3.0448019   7.8978995  72.4151065   3.0784333
   9.3925146  72.3645427   2.8448641   8.8179568  27.2185257  57.7191412
   8.5749940  26.6045645  57.0261347   9.7751431  27.2191504  57.7138197
  53.8456345   7.0475113  63.0854607  53.7691021   6.2266284  63.5718012
  53.0164671   7.4984562  63.2447147  17.4039328  42.0806456  51.5560150
  17.1483970  42.8667784  52.0386410  17.3667300  42.3418140  50.6358862
  17.6244883  22.1058157   3.9499247  17.6117281  22.9812172   4.3368828
  17.8354458  21.5241602   4.6802723  14.4039869  43.2393408  46.7358017
  13.9204299  44.0614510  46.6549635  14.9412847  43.3535862  47.5196981
  62.1636702  16.2880638  20.8308947  62.6057620  16.6687945  20.0720656
  62.6723553  16.5928343  21.5822851  70.7087544   1.1166383  59.0185261
  69.8857287   0.6653215  59.2060757  70.8958606   1.6142036  59.8145485
  35.9355307  49.7611475  56.7473793  35.3928852  49.0801716  57.1449232
  36.7130709  49.2970657  56.4370775  20.9087348  57.4242592  28.2109833
  20.9340715  56.5233707  27.8885174  21.5410185  57.4393463  28.9294696
  60.2950076  13.0340625  38.3743405  59.7636847  13.2583286  39.1383004
  59.6643595  12.9562808  37.6584744  19.5762304  57.2445324   5.1292860
  20.3300432  57.8137234   5.2842915  19.6075205  56.6062382   5.8419049
  27.2023249  49.5795679  63.2016182  27.3138881  48.7564373  62.7259636
  26.5505934  49.3812037  63.8740206  68.9915303  67.4479391   6.0571396
  68.2461814  67.0020034   5.6548607  68.6578444  68.3162620   6.2827456
  78.7620715  67.8264954   3.2230961  79.2463759  67.1558740   2.7414858
  78.4131984  67.3676183   3.9872610  36.4736128  60.1754856  59.6482706
  36.2822819  59.2958641  59.9736738  36.0558653  60.2086210  58.7876797
  53.9547209   3.2714893  50.5167675  54.6222404   3.6917449  49.9745178
  54.2158679   3.4711124  51.4157581  20.5942015  55.2508953   1.1760628
  20.1631455  56.1018971   1.0971892  20.1858000  54.7118500   0.4986679
   1.1931987  36.2178636  46.6911364   1.3788380  35.3864574  47.1276379
   0.2377320  36.2592649  46.6511202  28.4878162  49.1807488  21.7051661
  28.0310587  48.4079960  21.3728201  29.3798355  49.0948609  21.3687765
  49.4102100  -0.0217389  63.9665747  49.5715407   0.6775190  64.6000099
  50.1716355  -0.5964469  64.0451431  16.6195691  46.7458057  52.9205751
  16.2951589  47.2709608  53.6521482  17.0952988  47.3686457  52.3710442
  32.0926595  45.1291227  62.4451208  32.3915815  44.4372702  61.8550205
  31.7750096  44.6634293  63.2187223  20.0853972  21.6114930  12.8194296
  20.1273827  21.5675190  13.7747013  20.7867912  22.2158364  12.5764334
  36.5766501  43.5101271  60.5336714  36.4288759  44.4471598  60.6615973
  37.0745373  43.2387018  61.3048220  14.8564152  20.7852152  26.5150416
  15.6168369  21.2397126  26.1525213  14.7666172  21.1373499  27.4005759
  61.6559310  15.2960184   2.4774515  60.8111216  15.3874520   2.9180968
  61.4484002  15.3628806   1.5454161  17.3612082  41.7125702  64.4633484
  16.9780123  42.5896406  64.4515896  16.6322041  41.1298227  64.2507696
   2.1656374  44.8892430  31.8310225   2.4598340  44.4902066  31.0122168
   2.4599532  44.2840413  32.5117075  23.1199984  63.8908604  29.6938765
  22.7499155  63.0532196  29.9724924  22.9494433  64.4834355  30.4259932
  56.9821344  41.6129425   9.0697205  57.2431840  42.4172142   8.6211407
  56.2977974  41.8898419   9.6790182  12.1026588   3.8942720  55.1872206
  12.8375363   3.2831813  55.2396727  12.1229673   4.3653633  56.0202217
  68.8794573  38.3331087  27.9383051  68.3899696  37.5144461  27.8581774
  68.2389660  39.0157011  27.7381289  25.6089687  54.5005465  62.2261286
  26.1013532  54.5677805  61.4080381  25.7922983  53.6164951  62.5440502
  65.3429492  14.1781453   1.3728344  64.7177263  13.8934163   2.0393622
  64.8295315  14.2224387   0.5661928  74.1103391  11.4790679   2.1751067
  73.6261252  12.2265102   1.8242495  73.8294820  11.4190151   3.0882019
  37.0986533  60.2084732  50.9406233  37.9189658  60.6560802  51.1479092
  36.7822528  59.8854351  51.7842865   3.3174829  22.0595911  24.8100435
   4.1655759  22.0900563  24.3672716   3.3707241  21.2901095  25.3768694
   4.5105386   6.3967086  58.9561558   4.0438104   7.2174312  59.1136360
   4.3928695   5.8956005  59.7631741  40.1434187  27.9728630  14.1088593
  40.7421259  27.3366335  14.5000040  39.3297152  27.4863461  13.9768851
   7.4608189  73.9169741  51.4912891   7.9731947  73.7334776  52.2787094
   8.0823761  74.3301535  50.8919716  77.5003862  57.0361805  53.0763865
  76.7072964  56.6225100  53.4171534  78.0166817  56.3108969  52.7247715
  76.4794234  60.9207417  23.4698260  76.5655641  60.2012088  22.8444636
  75.8044843  60.6268265  24.0816366   5.1750402  38.2404068  23.3839190
   4.5660357  38.9703682  23.4957182   4.6124438  37.4747780  23.2676184
  53.0788040  42.4389219  54.0094376  52.6350403  42.7300453  54.8060226
  52.5255060  42.7583504  53.2966566  74.3341855  72.4696805   4.0210926
  73.6461381  72.4821450   4.6864235  73.9314012  72.0372893   3.2680762
   8.6762091  52.6120615  57.1180820   9.5461794  52.3446417  57.4145079
   8.8242766  53.4353876  56.6528559  71.9042833  19.0400771   5.7548058
  71.6254802  18.3511475   5.1515829  72.7459784  18.7353781   6.0938370
  20.3243546  14.2031172  23.8414442  20.0859789  14.4070938  22.9371226
  21.2813238  14.2233590  23.8472712   0.5190639  24.4230536   9.6618759
   0.0499252  23.9737061   8.9588654   0.5448011  23.7874201  10.3770935
  15.7739977   4.7086790  18.1634867  15.0099043   4.8302153  17.5999129
  16.4886908   5.1389340  17.6940882  16.5801132  67.3885870  49.7502661
  15.9329617  67.3335552  49.0471315  17.2408974  66.7357254  49.5192432
  12.3752463  50.0340414  54.5572710  12.0697045  50.1008463  55.4619312
  12.7750087  50.8846760  54.3760490  72.8372506   4.2530490  58.6373711
  73.7713984   4.0445949  58.6493349  72.5241975   3.9998199  59.5057631
  28.9708805  10.4907596  61.7783308  28.3963490   9.7285473  61.7063951
  28.5644579  11.0341799  62.4534225  26.5282623  15.8208801  49.3205547
  26.8785838  14.9603511  49.0903425  27.2771900  16.4122440  49.2455673
  48.3627653  31.4949417  60.6966066  47.6767540  31.0544205  60.1950455
  48.5955524  32.2569013  60.1660728  39.2196842  30.2794388   3.5165035
  39.3626161  29.5007113   2.9785549  39.3296512  29.9723605   4.4164145
  19.4784168  19.0863493   2.2398197  18.5279135  19.1870430   2.2912228
  19.7705273  19.1017273   3.1512320  52.9572872  19.8769046  43.4327984
  52.4041990  19.2303993  42.9942179  53.4199623  20.3187229  42.7207851
  35.3653202  11.6817333  44.4476986  35.2243248  12.3496200  43.7766695
  35.6714527  10.9155513  43.9624310  45.6099037  19.6478871  17.1015990
  45.9663300  19.1939143  17.8652155  45.1432423  20.3998783  17.4662554
  46.2930945   9.6540023  29.9193072  47.2440199   9.7509815  29.8686361
  46.0926691   9.7421409  30.8511305  69.4600324  67.5716092  34.7768461
  69.3271092  68.4725596  34.4821417  70.2586106  67.2891476  34.3310702
  38.3969426  34.1242433  57.7525711  37.6279831  33.5661077  57.6367426
  38.1439447  34.9634123  57.3678398  35.9487629  69.1254473  52.9537296
  35.0591707  68.7749720  52.9087782  36.0029745  69.7362566  52.2187424
  51.0230637  13.6151293  14.7742522  50.7357149  14.0593365  13.9765417
  51.9671853  13.5057572  14.6606552  33.1184292  68.6729765  61.4318180
  32.4130034  69.1903162  61.0432720  33.7142992  68.4956932  60.7039881
   7.8327350   9.0629080  25.2975333   7.8673081   8.9073542  26.2413752
   8.4692983   9.7616175  25.1464712  74.9603613   2.0447496   0.3392231
  75.6355317   1.3782767   0.4664671  75.1557167   2.7122143   0.9969151
  55.1592759   1.0388948  60.7286406  55.1771645   0.1105024  60.9610224
  56.0177187   1.2048723  60.3390741  77.1032842   8.8260344  12.5478041
  76.5589841   8.5586432  13.2883894  77.1729024   9.7769144  12.6327193
  73.5257252  30.6030253  19.9056589  73.5975750  29.7321919  19.5148623
  74.1211327  30.5792454  20.6547606  77.4486021  31.1461568  56.8395424
  76.6044108  31.0018563  57.2670364  77.3991211  32.0428181  56.5082026
  26.4912132  50.9794167  26.7560637  25.7225184  50.5880288  27.1709692
  26.1600212  51.7760113  26.3413584  49.3603615  25.8527544  23.4076273
  49.0371088  25.5937270  24.2705595  49.1712812  25.1013735  22.8455794
  67.6579054  33.4701327  16.9239485  67.5145812  34.4101742  16.8143427
  66.9508548  33.1859902  17.5032389  22.0852947  60.0885296  49.6207523
  22.7159190  59.6051502  49.0869999  22.1641827  59.7024870  50.4930925
   9.2875914  22.2067431  40.7848608   9.8974184  22.5917652  40.1554930
   9.8308496  21.9889000  41.5422594  13.6312211  60.4847527  53.7260818
  14.2492986  61.1403465  54.0492105  14.1836560  59.8006392  53.3478880
  36.1593866  56.2939262  20.1709938  35.5564690  56.3128138  19.4277811
  37.0080113  56.5310812  19.7970605  25.8821416  37.7464938  63.2455492
  26.3072538  38.4492278  62.7539444  26.4536619  36.9885397  63.1226444
  22.4071431  60.5162907  53.0604267  23.2384777  60.0742340  53.2327700
  21.7613554  60.0142622  53.5575771  76.5521152   1.0095719   8.5652125
  77.3522718   0.9561470   8.0425942  76.0909207   1.7738441   8.2196486
  13.2252133  32.7509999  53.2456207  13.2958353  31.7964339  53.2386684
  12.5770712  32.9481435  52.5693989  25.4291940  73.2747459  56.3360977
  26.1140871  72.6066399  56.3641691  24.7246146  72.8742170  55.8268070
  53.5900402  70.8794880  50.1548910  53.6299658  71.6892338  49.6460199
  53.9574480  70.2132368  49.5740700  43.4187903  41.8987110   8.6466372
  44.2318513  42.3983172   8.5720694  42.7667637  42.5423220   8.9238751
  47.6816173  19.8303679  12.1866190  48.2326903  19.1983488  12.6482546
  47.7750336  20.6405667  12.6876986  16.9205145  40.0122860  28.7518656
  17.4825911  39.5901802  29.4015753  17.2308353  39.6750954  27.9114783
   9.7370009  50.7459286   3.2126391  10.5903129  51.0513428   2.9047262
   9.6705822  49.8494080   2.8838885  24.0369467  43.0789879  31.6916048
  23.8030151  43.5287407  32.5035441  24.1240028  43.7802151  31.0459006
  24.4096951  48.8828400  10.4017365  23.7542967  49.5539311  10.2111780
  25.2317242  49.3666962  10.4816067  17.3389304  23.6887240  51.0113192
  17.4470592  24.5485830  51.4177513  17.9102933  23.7130594  50.2437401
  29.2912916  22.0848587  10.7446778  29.3699316  21.2175730  10.3473580
  30.1944832  22.3865727  10.8418667  69.2567141  38.3264950   3.8134491
  70.1374789  38.5785702   3.5360634  68.7706681  39.1504887   3.8454640
  35.5785251  69.2014217  62.4244499  35.7636166  69.0942526  63.3574486
  34.6281052  69.1100311  62.3567724  72.4119452  54.4762840   1.0383713
  72.4122313  55.4334714   1.0334694  73.0510453  54.2400231   1.7106592
  37.7109075  65.2353001  54.5103168  37.8481269  64.4216728  54.0251255
  36.7853951  65.2157927  54.7537947  46.0511112  29.9822068  59.9688148
  45.7578278  30.2648997  60.8350182  45.8924532  29.0383029  59.9584770
  17.0297054  20.5180052  20.8486330  17.6187901  19.8138216  21.1194288
  17.4127392  21.3094738  21.2269079  63.9226361  30.9812573   5.2750408
  63.8227387  31.2963274   4.3767178  64.7053464  30.4308251   5.2501595
  64.6686033  71.4301993  47.9294264  65.2116684  71.5035631  48.7142432
  63.8334898  71.0869815  48.2472574  15.1143181  65.3911877  45.1571989
  14.3819118  65.8164644  44.7111607  15.8158958  65.3775406  44.5061731
  57.3982723  17.5520733  40.4949724  58.2505877  17.9517868  40.3217089
  56.7912094  18.0268935  39.9272978   1.7076925   5.8711174   0.4775917
   0.7937388   5.5929974   0.4178297   1.7582063   6.3519123   1.3037359
  36.8427042  33.9926699  10.5513918  37.1483759  34.7106150  11.1057865
  35.9221748  34.1946391  10.3838598  64.7796488  66.3115931  50.8764124
  64.4776297  67.1216154  51.2873554  65.6372452  66.5325832  50.5131960
  67.1520308  25.1815750  57.3866940  67.8830365  25.7282497  57.0985794
  66.3952331  25.7675220  57.3740339   9.0581302   7.7244452  20.6542837
   8.7041763   8.4803131  20.1856577   8.5498003   7.6853684  21.4644110
   4.3996290  14.6997193   1.4085972   5.0681809  15.2797392   1.7730772
   3.6856751  14.7271088   2.0455801  38.2545352  65.0475693  62.3966217
  38.5385442  64.1334724  62.3943567  38.8648915  65.4894781  61.8063593
  28.0670738  65.3125143  47.9866266  28.5705423  64.5072889  47.8667784
  27.4401522  65.3129005  47.2632980  77.7003797  13.2855156   3.0284178
  77.4421962  12.4133948   3.3267176  78.3043940  13.1218365   2.3041212
  13.4573007  56.2388325  63.2884407  13.3327925  55.3049517  63.1193352
  13.8086271  56.2763977  64.1780424  46.9131998  37.7169588   6.8618405
  47.0641331  38.2386902   6.0736477  47.6596979  37.9155520   7.4271166
  19.9744324  27.9596547  14.2943775  19.7466997  28.8728026  14.4691145
  19.1330151  27.5258282  14.1528284  10.6630147  66.2598515  56.9820929
  10.8197653  66.4012909  56.0484695  10.0955367  65.4897404  57.0157051
   7.3514275  46.6431645  10.1029312   8.2792691  46.6478756  10.3381359
   7.2676758  45.9274128   9.4729149  16.0519099  61.6094685  52.0888042
  16.7625856  60.9682846  52.0963621  16.0701334  61.9768095  51.2050867
  43.3017349  50.7524443  62.0512390  42.6919460  51.1646223  61.4392757
  44.0663481  51.3282871  62.0518255  22.2418571  53.8176870  51.9902802
  21.9544053  54.6453047  52.3758268  22.4282336  54.0313148  51.0760260
  68.5034795  25.7146099  26.8680537  68.8131948  25.8403757  27.7649843
  68.0510934  24.8712662  26.8869078   8.7187270  52.5430992  34.1543638
   8.5169939  51.6216591  34.3170702   9.6151022  52.5363854  33.8186610
  52.1167711  56.2215546  19.9544775  52.5523810  55.5673245  20.5007803
  51.3854984  56.5312889  20.4888308  78.7998922  39.3836239  37.9619086
  78.5920747  40.3023079  37.7914393  78.6045845  39.2623118  38.8910830
  11.1832750  71.1866760  40.9394217  11.6711271  70.3704453  41.0489464
  10.5637920  71.0025549  40.2333260  51.8608952  50.2937555  59.7284269
  51.3882446  49.4615269  59.7133446  51.7625809  50.6087875  60.6269360
   2.2451977  11.3494566   4.0150368   1.9134358  11.3655308   4.9127590
   3.0515555  10.8362940   4.0668404  11.6645912  39.6221188  19.2938864
  11.1766533  39.9009064  18.5190165  12.4925236  40.0994757  19.2401564
   5.9994225  52.7396325   1.4417422   5.7876329  53.1872490   0.6225884
   6.4195351  51.9244316   1.1675465  62.8711081  60.7552195  62.5373840
  62.9115915  59.8634052  62.8827286  61.9426155  60.9847975  62.5752258
  33.2197022  58.9781666  56.9243479  33.4223652  58.0710983  57.1532249
  32.2657847  59.0323639  56.9821215  18.9471535  32.4249867  34.6837675
  19.6480087  32.7957514  35.2200186  19.3741659  32.1916321  33.8594877
  17.7739815  22.9144600  25.7242071  17.6800303  23.5494164  25.0141108
  17.1604303  23.2132462  26.3954127  68.0540665  15.7962969   3.6589157
  68.3961029  14.9452570   3.9327156  68.7898429  16.3979367   3.7724840
  19.1725230  15.3870346  62.8400993  18.6999631  14.5617534  62.9489040
  19.7963739  15.2146293  62.1348906  44.0202427  41.8174553  64.3586683
  44.0052223  41.7365313  65.3123236  44.9198341  41.6004038  64.1140223
   4.8092584  29.4824341  19.9169600   4.2186669  28.7939480  20.2226126
   5.6652168  29.2371157  20.2682268  57.2533611  20.2652911   1.8561566
  57.5770477  19.4120053   2.1448958  57.2885326  20.2239350   0.9004986
  77.5520515  19.2686367  55.8908033  77.8266859  19.7905576  55.1368761
  76.6015959  19.1995621  55.8008528  17.2234682  26.9341353  14.8193562
  17.3882345  25.9953383  14.9073231  16.4399723  26.9895676  14.2722761
  28.1354547  69.3191242  41.6916037  27.6762795  69.2103815  42.5244093
  27.4410772  69.3139029  41.0327816  57.6420736  61.5536785  55.7356834
  58.5503817  61.2521124  55.7521200  57.3184299  61.3873529  56.6210222
  22.5465063  18.3529118   5.1433003  22.7630714  17.4283722   5.0226605
  22.7562861  18.7597206   4.3026268  60.1419677  27.0462111   9.4596112
  59.2012455  26.9172600   9.3385947  60.2401610  27.9900673   9.5850289
  78.1947883  32.8588942  18.2873213  78.1613429  32.1319130  17.6655447
  78.9387830  32.6552657  18.8540995  35.8649430   7.1365692  22.3693252
  35.3373573   6.8013050  21.6444230  35.4301522   6.8054534  23.1551695
  43.5620184  39.6323851   6.5508616  44.1364177  39.9069765   5.8360874
  43.2078363  40.4498080   6.9010079  57.0578579   1.9572142   5.7739413
  57.6290325   1.2496808   6.0729182  57.4382214   2.2363642   4.9410927
  48.4177542  22.2347021  55.7558441  48.3470345  21.2908649  55.6129932
  49.2561913  22.4745131  55.3612041   1.9629835  46.7768812  52.2921085
   2.1663472  47.3154449  51.5273666   2.8092387  46.6330910  52.7156734
  74.7267325  13.4423760   9.2958176  74.8585661  14.0118721  10.0537884
  75.2475627  12.6627425   9.4885361  60.9537510  24.9678470  58.4124041
  61.2118653  25.4576446  57.6315689  61.4450649  24.1484119  58.3544111
  78.4296759  11.0090521   4.8448956  77.7242907  10.4296664   4.5568430
  79.0785654  10.9638718   4.1426623  15.5776934   9.4643429  13.9041817
  16.2235550   9.7616366  13.2633173  14.9428848  10.1790455  13.9537060
   1.9284109  61.2407521   6.2970316   1.9136123  60.4260472   5.7947552
   1.6860537  60.9789494   7.1852648  27.5253415  73.0287361  60.3402567
  26.9428802  73.5068178  59.7499943  27.7525139  72.2326756  59.8597288
   9.2748932  23.0495480  27.3563063   9.3840770  22.5043229  28.1354391
   9.2558841  23.9457920  27.6919043   4.5734140  10.4494238  59.8955488
   5.0915349  11.1541092  60.2843952   4.6457374   9.7268212  60.5191231
  65.1336344  31.3090399  25.7209742  64.3890663  31.6475180  26.2182486
  65.1720841  31.8623808  24.9408591   6.9129068  50.5602598  56.6984463
   7.2327179  51.4543533  56.8190718   6.2547129  50.4467678  57.3841095
   6.5602211  44.0958622   3.0089819   6.1734919  44.9695328   3.0670607
   6.6926579  43.9543846   2.0716059  23.5079098  43.2535601  58.3780956
  22.9275441  43.8935041  58.7902594  23.4595537  43.4535408  57.4432659
  74.5053990   6.5429810   7.9996502  74.1701777   5.8434752   7.4387944
  75.3712948   6.7415360   7.6432383  13.6100972  61.7214727  44.8139381
  14.5179510  61.4452124  44.6885777  13.6341023  62.6735878  44.7183990
  20.9178022  18.9569453   8.0682575  21.0500721  19.2640475   7.1713602
  21.0390619  18.0088309   8.0171168  56.3569883   1.8129589  41.3684988
  55.8259229   1.0774471  41.6738176  56.8497900   2.0895482  42.1410751
   9.5740298  69.7825554  10.5235350   9.0434054  69.6060303  11.3003981
   9.6601228  70.7356671  10.5037939  62.5058464   4.0967561  48.4102726
  62.0184640   3.8418628  49.1936731  63.3414391   3.6362888  48.4876537
  35.2147488  39.0553454  11.1095822  35.7632832  39.5522908  11.7165339
  35.6911377  39.0816525  10.2797711  20.7637791  25.0589350  29.9314368
  21.0257582  24.2755059  30.4150069  21.3756708  25.7353667  30.2217257
  17.6561117  48.3014917  19.4237566  16.7897606  47.9741764  19.1818273
  17.7688074  48.0302668  20.3347826  22.4101806  52.3840143   4.4722473
  21.7684007  53.0724408   4.2978394  23.0235219  52.7796652   5.0915253
   5.0941114  67.5231484  29.7774374   4.2890243  67.4986771  29.2602694
   4.9204258  68.1708649  30.4604590  44.7461987  65.9761953  55.5197573
  44.2043257  66.7466450  55.3494024  44.1609240  65.3663015  55.9688807
  63.6846884  52.5041417  41.7272818  63.2572611  52.3163823  42.5629103
  63.3115335  53.3408860  41.4500677  13.3904016  71.2645149  24.7351193
  13.3407903  70.9237719  23.8419986  14.2084718  70.9087229  25.0821137
  27.6218418  37.5732926   6.2270701  27.3375229  38.4687022   6.0436547
  26.9386343  37.0221308   5.8453858  17.5726306  69.6971035  56.4320993
  17.8969729  70.5746698  56.2298489  18.2130182  69.3411398  57.0480776
  15.3897671  65.4094628  31.3933718  15.9320501  65.7807473  30.6974470
  14.4965986  65.4576805  31.0525572  33.4585051  41.5894488   9.4999897
  33.3148102  42.5284317   9.3821156  33.4961466  41.4701775  10.4489815
  64.9565125  61.4747572  37.4782467  64.8363304  62.4238873  37.5088930
  64.8984957  61.1963463  38.3922243  31.1119298   7.6738788  32.3487496
  31.5461431   7.2483684  31.6094065  31.8130795   7.8280879  32.9818702
  13.0932478  73.6276749   1.0112965  14.0200047  73.5532692   1.2389242
  12.8654317  72.7704552   0.6514370  44.8168377  12.9566124   4.4188654
  44.2664484  13.6619833   4.7590887  44.1963629  12.3034314   4.0954554
  18.1776758  57.0091057  59.4828892  17.2439810  57.1348953  59.6520948
  18.4444948  56.3314533  60.1040411  54.6679858   6.6392948  54.5716858
  54.9633721   6.2702991  55.4040480  55.4465965   6.6281940  54.0150213
   7.5003886  11.5048076  13.4572756   6.8821979  12.1819736  13.7320900
   8.3331657  11.9663860  13.3589911  37.4103761  62.7443361  53.2303333
  38.1235671  62.4108934  52.6859093  37.1847343  62.0122480  53.8042355
  26.8491415  33.3498839   2.0188582  27.1150116  32.9549673   2.8492701
  26.0852055  32.8418902   1.7457783  67.7344970  26.2982418  64.1269445
  68.4743766  25.8722450  64.5597649  67.9172543  27.2344734  64.2063141
  24.3570924  60.1996374  40.3043175  24.0423989  60.4951715  41.1586332
  23.7403822  59.5147848  40.0457048  77.2350763  71.8107605  54.0266085
  78.0880605  71.3874292  53.9294624  77.0461885  72.1706104  53.1599712
  10.6559018  49.6274880  15.1356900  10.4210500  50.4488972  14.7039902
  10.0547246  48.9815548  14.7647679  56.1730412  13.3447219  50.1696348
  56.8018583  13.6056377  49.4967747  55.3538588  13.7649490  49.9077511
  55.6326274   1.2140609  44.3124676  54.6990661   1.3316776  44.4881487
  55.9767441   0.8079339  45.1080036   9.7507671  29.9542693  24.1074145
  10.6246285  30.3268603  23.9900458   9.1539554  30.6629494  23.8669646
  16.0970072  15.1323393   5.5626309  15.3014950  14.7135523   5.2339804
  16.1310295  14.8891190   6.4877903  62.7340241  38.4146479  22.9788649
  63.6899109  38.4055642  23.0281412  62.5417324  38.8132075  22.1300947
  62.3330525   6.7634155  48.2708836  61.6302422   7.0359851  48.8607979
  62.3813848   5.8135368  48.3787203  25.5812240   6.2069084  51.7830610
  25.4101825   7.0739986  51.4154482  26.5284753   6.0952522  51.7026043
  11.0561013  21.9184352  36.3415217  10.4216361  22.6094581  36.5317106
  11.8770528  22.3842193  36.1823940  35.3796963  46.4434842   5.0888312
  34.8410801  45.6551579   5.1570952  34.8514656  47.1304253   5.4954254
  39.4237065  54.9524164  23.4309196  40.0270462  54.8304224  22.6978898
  39.2429185  55.8923578  23.4384465   2.9037929   6.0221816  51.6278791
   2.6519561   6.9434024  51.6923809   3.5237336   5.9938194  50.8991098
  30.1080799  49.8249435  57.9877758  29.4520760  49.9361897  58.6758995
  30.0022483  50.5950403  57.4292231   6.4811560  54.8713350  45.0308180
   6.7541834  54.6878147  44.1319227   6.8755480  54.1697121  45.5489016
  75.3123339  20.5229834  13.0078375  74.4427569  20.2094010  13.2562983
  75.2214988  21.4750603  12.9688132  35.1297474  64.4632435  52.3967075
  34.8391509  63.8368797  53.0596161  36.0139203  64.1767788  52.1677828
  41.3293028  67.1296215  49.1630268  40.4042721  67.1281242  49.4091034
  41.7567587  67.6524448  49.8413801  33.3985257  68.2796621  54.2572355
  33.0853748  67.3942089  54.4420004  34.3173528  68.2695770  54.5253563
   6.0112429  47.9880142  62.7359676   5.4069930  48.7302923  62.7241611
   6.2264216  47.8396749  61.8151379   9.4645123  49.7633389  21.7034685
  10.0067596  49.4537857  20.9779513   8.9500097  48.9984539  21.9612849
   8.5519866  22.7434615   2.3869431   8.9908079  22.6147822   1.5460455
   8.9681295  22.1117142   2.9734146  26.7615513  18.8621119   6.6532957
  27.4980835  18.3210495   6.3686907  27.1660379  19.6695355   6.9706118
  33.1193356  24.2407254   7.5570357  33.8441948  24.3959311   8.1626141
  33.4689573  23.6181715   6.9195235  13.6592726  30.6814030  29.5569002
  14.4912962  31.1510638  29.6151125  13.4836630  30.6207446  28.6179030
   5.4677940  13.1549598  14.2743087   4.9047303  12.7931930  14.9586415
   5.6193757  14.0610744  14.5430326  10.6121806  34.6091250  11.7083370
  10.5631379  35.5386189  11.4850390  10.8699016  34.1800574  10.8924210
  72.9402931  38.3452443   6.5124476  72.3771627  38.3602122   5.7385695
  72.6113089  39.0566948   7.0618498  37.2376350  30.0144223  14.4386303
  38.0503515  30.0776509  13.9369023  37.2298626  30.8022335  14.9822533
  67.5995044  18.2419445  51.6455030  67.9929236  18.9248229  51.1022377
  67.9699973  17.4256946  51.3097954  11.6446539  64.2823505  44.9185228
  11.6833826  65.0437641  44.3397474  11.1771246  64.5940638  45.6934261
  35.1422572  64.7770643  55.6105614  34.3341112  64.8043633  55.0983286
  34.9486351  64.1781378  56.3316917  52.7280903  62.8023338  56.8157148
  53.6415815  62.5769138  56.9916296  52.6924086  62.9356050  55.8685112
   9.7312883  62.2710160  17.8899920   8.9768366  62.6809910  17.4669611
  10.1567487  61.7738846  17.1913683  54.4577782  36.2680891   5.2622759
  54.3781754  35.3989199   5.6552660  54.2233247  36.8719605   5.9669792
  30.7471752  66.6982555  60.6678152  31.1823177  66.2345505  61.3832569
  31.0770869  66.2773800  59.8739290   8.2630710  11.1122826  35.9732687
   7.5303535  10.9645584  35.3753340   7.9195813  10.8780459  36.8354666
  68.9246149  22.0975092   9.2183840  69.8063620  21.7467812   9.3438494
  68.9329369  22.4543837   8.3302366   0.5005308  42.4046898  63.1794643
   1.3169809  42.1712637  63.6212254   0.2683731  41.6237926  62.6769352
  27.0008554  10.6398345  47.0211887  27.1662753  10.1996948  47.8549385
  26.2547133  11.2131072  47.1968889  38.3556771  66.8862438  64.6455050
  38.3896613  66.3375378  63.8619232  37.5620079  67.4101686  64.5367861
  25.8890414  67.6152515  49.8107004  25.4401565  68.4416866  49.9888611
  25.5914354  67.3647356  48.9361143  20.9009647  59.6986198  34.6235967
  21.4083934  59.0778351  35.1464510  20.1586962  59.9310732  35.1814818
  31.9491744  73.9319324  59.7801065  32.5431252  73.8426685  59.0347958
  31.8863463  73.0486012  60.1434374  70.2149840  41.6776636  29.2073786
  69.6706136  42.3185471  29.6647227  70.1261254  41.9049576  28.2818091
  30.6221581   2.5284387  50.5597925  29.8121236   2.0927192  50.2947950
  30.4389293   2.8607942  51.4385414  19.3326239  32.6129464  26.4597952
  19.7253803  33.3025196  25.9245741  19.3928866  32.9421976  27.3565638
  78.6495209  61.4438486  46.1263180  78.9995480  60.7957172  46.7375755
  79.1583300  61.3171196  45.3255177  77.7540071  58.6399678  18.8166678
  77.5974091  57.8182057  19.2818796  78.4458502  58.4316758  18.1888163
   7.7849344  63.2581070   2.4281990   7.4249152  62.4857167   1.9922697
   7.0574955  63.6010102   2.9473173  50.3709749  21.3089779   4.9976885
  49.8346047  22.1010807   4.9644005  50.8581642  21.3839272   5.8182156
   7.5846315   0.2078630  41.4410305   7.8273177  -0.7161473  41.3815546
   8.0205464   0.6185295  40.6943274  35.8244395  56.9887972  62.5958633
  36.6284823  57.5049782  62.6533365  36.1234426  56.0795116  62.5903893
  17.8351025  28.1272391   7.5665390  18.1016068  28.1123474   8.4857666
  17.1216444  27.4913004   7.5136816  71.4788933  28.1382063   4.9462139
  72.1907742  28.7376336   5.1701462  71.8313988  27.2678212   5.1316797
   9.0554909  17.3849705   7.4717343   9.5483355  17.6645497   6.7002594
   8.5240726  16.6509608   7.1634209  23.3252684   5.7549526  15.9434319
  22.8962258   5.4351093  15.1497984  23.8653553   6.4868595  15.6453621
   2.8825621   9.5252303   1.3966238   2.8360085  10.4812125   1.3839829
   3.8184742   9.3303517   1.3483917  45.6658176  10.3075245  32.4644148
  45.8633570  10.5986145  33.3546316  44.7103504  10.3301695  32.4114954
  46.9309330  73.7370348  60.6296253  46.4247370  74.5467997  60.5642653
  47.6819754  73.9675379  61.1764717   3.1501889  21.4665462  37.6935005
   2.4858594  21.5691234  38.3749533   3.4811950  22.3525669  37.5464010
  31.5405754  48.0189160  23.8104880  30.7126907  47.5726345  23.6325419
  31.2958244  48.9352826  23.9393389  73.0482701   8.9659835  64.0332937
  72.4025134   8.4302284  63.5726547  73.0973033   8.5820819  64.9087620
  49.9008180  68.4013775   7.9514515  48.9610894  68.3468083   8.1251299
  49.9648927  68.8927296   7.1324932  75.1841620  11.9778778  55.7271576
  75.4846314  12.4914314  54.9773502  75.9871272  11.6369487  56.1211777
  14.2384247  21.7095021  11.2049210  14.3362478  20.7991484  11.4840662
  13.3768848  21.9689158  11.5315544   5.2240376  56.7679718  41.9673407
   5.5881766  57.2997216  42.6750624   4.4636826  56.3374070  42.3581183
  60.6826639  15.3881121  52.1785784  60.5793715  15.5734491  51.2451935
  60.9196568  14.4613886  52.2139597  70.9307794  18.2055999  56.5182352
  70.3874997  18.0081130  55.7552958  71.6555528  18.7238647  56.1684752
  74.6348476  65.5815935  57.5096369  73.6785221  65.5612326  57.5451279
  74.8502445  66.5057516  57.3840618  55.8205656  13.4510471  37.7195883
  55.6607226  14.2358257  38.2438087  55.2860717  12.7734710  38.1336355
  16.3735632  43.2836750  14.8373997  17.1082071  43.1369236  14.2415869
  16.2556366  42.4449614  15.2833616  54.4653337  27.9032114  20.9637320
  55.4173072  27.8595332  20.8738959  54.2238402  28.7334135  20.5530226
  35.7384443  62.5936365  48.7107038  35.0435328  62.1554661  48.2194424
  36.5483856  62.2125435  48.3715916  63.5145807  59.9229240  48.9981174
  62.6851797  59.7028589  49.4222641  63.8730907  59.0797186  48.7211466
  10.0422720  12.1353892   9.4359267  10.1664094  11.7084578   8.5882532
  10.2318791  13.0586794   9.2691386  55.4269409  65.6860352  52.6564121
  56.0115719  65.3516245  51.9762611  55.9927750  66.2127542  53.2208824
   0.0829891  41.7609957  20.3940260   0.6239585  42.3955801  19.9240362
  -0.6539699  41.5930060  19.8067343   7.3447013  12.7959110  41.5901136
   8.2950044  12.7877380  41.4757061   7.0664430  11.9132472  41.3457584
   5.1517242  67.1687174  53.6046267   5.1810592  67.9413509  53.0403519
   4.4776225  66.6124678  53.2142305  25.1533894  29.5404986   0.3882134
  25.1778130  28.6218718   0.6560957  24.9356798  29.5125845  -0.5434835
  70.7613925  48.7490035  56.2503767  71.4338473  48.9034225  55.5869102
  70.4371623  49.6222927  56.4705563  14.8956732  32.4597147  18.5818064
  15.2086214  33.3281163  18.3285010  15.1073269  32.3909977  19.5127833
  59.2550591   1.6559078  54.6401262  60.0859431   2.1303035  54.6686077
  59.4498137   0.8613826  54.1430998  56.2103653  48.5523033  56.8860769
  55.7406902  49.0495157  57.5557137  55.6335211  47.8149462  56.6866112
  66.1730433  62.4834347  24.1474414  65.7610226  63.1954718  24.6367979
  65.4428387  62.0235920  23.7332273  10.4414109  44.4358281  21.8526423
  11.0915379  45.0245407  22.2360289  10.9439615  43.8781765  21.2587511
  40.6510735  63.0227137  16.1562824  40.3415632  62.2659206  15.6585836
  41.1460781  62.6450729  16.8833232  52.8245858  71.1007716  11.5633738
  53.4634165  71.5040233  10.9755671  52.6787881  71.7567923  12.2449982
  46.3986301  65.9577036  57.9405880  45.6521749  65.4015303  58.1635380
  46.0468578  66.5914059  57.3153639  18.2970643   7.0514347  60.4425764
  18.9865422   6.9362594  61.0964823  17.4974799   7.1682884  60.9556437
  70.6066403  56.9299221  55.5448914  69.6889780  57.1768665  55.4302454
  70.5924080  56.2708616  56.2389183  46.9366220  13.8112880  37.4662924
  46.6402844  14.6674968  37.1575475  46.4037708  13.1832363  36.9785881
  51.9442681  17.0175125  60.6520557  51.1320595  17.0177509  61.1585617
  51.9981173  16.1346389  60.2861834  18.5089449  27.6938036   0.2679074
  17.5542454  27.7510289   0.2290547  18.7379507  28.0815152   1.1125767
  13.7949375  59.7925404   7.7930462  12.8683666  59.6002320   7.6491320
  13.7957958  60.6183461   8.2770693  75.7555151  52.1632004  39.7273207
  74.8773813  52.5122690  39.8798275  76.0971260  52.6835012  39.0001202
  56.3177184   8.1486560  31.5405679  56.5963916   7.2863056  31.2324715
  57.1266321   8.5745384  31.8243194  75.8444834  68.4779310  52.5990486
  75.6879807  69.2973757  53.0683565  75.2641964  67.8450489  53.0220842
  44.1771555  57.3874140  60.9498024  44.8854303  56.7467213  60.8858156
  44.1207218  57.5895882  61.8837023  19.6097950  20.3253106   5.2323162
  19.9126867  21.1325148   4.8164999  18.8713411  20.5987242   5.7765257
  32.0281172  60.4968643  54.8615122  32.5057888  59.6848869  55.0310898
  31.3976192  60.2658415  54.1793633   0.8248496  27.8189231  37.4324298
   0.1871085  27.6315166  38.1211972   0.8604646  28.7746288  37.3925805
  24.3654923  49.8069313  21.1535895  24.0242390  48.9215210  21.0278284
  23.6231474  50.3794411  20.9602320  16.3507561  34.2260769  15.1677811
  15.6751541  34.4457415  15.8092940  16.8799881  33.5543278  15.5977785
  18.5668139  24.4120530  11.6665852  18.3385567  24.5952252  12.5779450
  18.4435324  23.4673479  11.5740263  23.2313637  65.2025345   5.6946480
  22.4873213  64.8639229   6.1926090  23.3135132  64.6054867   4.9509966
  55.5068592  65.1546315   2.3926365  56.2429337  64.6620491   2.7556431
  55.0410275  65.4888276   3.1591522  33.8696838  12.0030929  63.3512211
  33.3729148  12.8094341  63.2124424  34.1764045  12.0634414  64.2559385
  72.2369842   1.8114187  51.1317396  71.6387156   1.0836650  51.3010931
  72.1977643   2.3436071  51.9263887  55.1586441  26.1043884  61.6421843
  55.0413636  26.7036964  60.9050941  55.1978640  26.6742183  62.4102926
  36.3641361  54.5249394  11.2200510  36.3274101  55.4166916  10.8741343
  35.5405430  54.1253880  10.9402478  60.8963509  67.1767643   1.9029915
  60.2111305  67.7475098   2.2507822  61.3896848  67.7341011   1.3011420
  48.4743977  65.5934572  59.9348211  47.8871679  65.6875658  60.6848526
  47.9017973  65.6683731  59.1714430   0.3946042   0.3173400  22.7567410
   0.2008891  -0.5398654  23.1360912   1.2030482   0.5932285  23.1886339
  45.4475379  22.6950313  59.6258307  45.8017993  22.6962043  60.5150557
  44.5928931  22.2720767  59.7090530  39.9905876  55.4197815  26.5449488
  40.6100372  55.2319744  25.8397925  40.0029139  56.3733796  26.6269266
  40.6698942  62.3061562  54.4660568  41.0839701  63.1405687  54.2457581
  40.7133293  61.7962742  53.6571264  45.6399206  57.6221684   3.2992995
  45.7648281  57.5298622   2.3547852  46.3429216  57.1001747   3.6860096
  40.2691559  42.8801087  12.7268994  40.1430468  43.2213047  11.8415129
  40.7873015  43.5514763  13.1707632  51.6795301  58.0098867  63.7340403
  51.5440798  57.2454691  63.1740808  52.1779108  57.6753187  64.4796324
  27.3273230   9.9093646  55.1121092  27.8689027   9.2626178  54.6597338
  26.4645696   9.4991851  55.1724386   8.6140326  69.5778944   8.0099022
   9.0436832  69.7051455   8.8557398   9.0891150  68.8511993   7.6068604
   6.0104152  53.0719827  30.8394313   5.4049369  52.4044584  31.1619854
   6.1391064  52.8527807  29.9165988  19.4383117  57.8825985  32.5392151
  19.9854728  58.3391450  31.9001436  19.6199294  58.3241068  33.3688641
  28.7837267   1.9533019  63.4893370  28.4720016   2.7394050  63.9377832
  28.2592463   1.2429152  63.8587999  51.1554960  56.6590228   2.6450932
  50.6302742  56.7397751   1.8489420  51.6972617  55.8839085   2.4970305
  29.6056271  16.3825941  41.6462851  29.7412300  16.2710476  40.7053280
  29.9732113  15.5897868  42.0368862   2.9667898  56.5317761  35.2253675
   3.1881615  57.0010065  36.0297608   3.7313601  55.9832452  35.0499225
  21.7499113  10.8963645  56.1372614  22.5587463  10.9744525  56.6431427
  21.1313009  10.4799914  56.7374182  53.0463237  72.2379924  56.3728237
  52.9099035  71.3126870  56.5763712  53.9970173  72.3326807  56.3141108
   5.3180158  32.5860858  42.6553631   5.0520808  32.2235250  43.5003853
   4.7941670  33.3815837  42.5605106  40.6819264  19.4966807   4.6366226
  40.2184788  19.6084620   3.8065922  41.2662617  20.2530541   4.6884310
  11.1782277   2.2539271  39.5593405  10.2787387   2.5718042  39.6374750
  11.6858041   3.0284995  39.3171930  16.5654775  58.0505358  42.0554113
  17.4873372  57.9146575  41.8364429  16.1964389  58.4788011  41.2829924
  10.2039492  11.1325359  53.5319614  10.0773251  11.4317369  52.6315880
  11.0299635  10.6493759  53.5098696   5.4022928  68.4606700  48.6884260
   6.2973686  68.5131841  49.0235615   5.1494523  69.3713574  48.5369253
   4.3570117  11.0077812  24.0746748   4.5454864  11.8028356  23.5760844
   4.9750380  10.3602578  23.7355768  54.2698792  13.7718844  52.5645113
  55.0810770  14.2011547  52.2926378  53.5908321  14.4315636  52.4232626
  15.0833102  70.3555252  47.3347235  15.2071496  70.5603670  46.4079332
  15.0774785  71.2081330  47.7697611  60.3258784   9.4558314  14.7027457
  60.1598217   9.3548754  15.6400072  59.7420545   8.8217667  14.2864048
  18.2173145   9.8227566  59.8708963  18.4992599   8.9315748  60.0771379
  17.5175107  10.0038230  60.4983711  17.1998807  64.6678965  35.9405541
  17.8424617  65.3727166  36.0214949  16.5090390  65.0357376  35.3894973
  42.8908006  40.4875617   3.4473479  42.8103940  39.5341067   3.4736216
  42.1058194  40.8064841   3.8926852  14.5498359   5.0071657  40.8547735
  14.8817778   5.8989781  40.7512569  14.6566534   4.8185533  41.7871046
   1.2842699  54.0024923  35.6658030   1.6426226  53.6083745  36.4610910
   1.7787286  54.8148798  35.5573177  23.6143970  12.9836500  50.8805609
  22.7059412  13.1096506  51.1545420  23.5615635  12.3623300  50.1543379
   2.2721078  25.4756594  48.5967827   2.5197405  24.9922800  49.3849802
   1.4891753  25.0273657  48.2769680  61.7445554   8.4562758  19.5859205
  62.1682491   7.6008681  19.6565592  61.6679068   8.7609938  20.4900801
  69.9800543  37.7355814  43.7117767  69.4297139  37.5101995  44.4618130
  69.5866350  38.5328197  43.3570051   0.4431006  73.2250394  56.0004044
  -0.3429226  73.1171399  56.5358973   0.9514304  72.4294508  56.1581135
  58.4060029  54.0497208  53.5969877  58.3480958  53.3071899  52.9957199
  57.4954680  54.2836714  53.7770653  48.2396702  25.2502860   6.5471518
  47.8855947  24.8815109   7.3563921  49.1881803  25.2432301   6.6756451
  14.5645857  31.6729546  56.5127230  15.4947448  31.8040991  56.6966724
  14.1632485  32.5238538  56.6891623  28.4379411  22.8345895  30.9440255
  28.1574512  21.9321251  31.0960650  29.0516257  23.0177402  31.6554189
  14.2451513  26.1187220  60.4232073  13.4949791  26.6796660  60.2261925
  14.1482699  25.3726172  59.8314571  62.6697868  50.9422277  50.2409697
  63.2368684  51.7130755  50.2619696  62.1954489  50.9711288  51.0718727
  72.7349770  51.8597244  44.1124010  72.9257297  51.0643385  43.6151981
  73.5651064  52.3359631  44.1301298  12.9986274  18.7370944  45.4330730
  12.1041656  18.5755014  45.1329756  13.0796623  18.2195330  46.2341928
  78.6250234  43.5101102  54.4636774  78.3673119  44.3619917  54.8159790
  78.9029121  43.6959861  53.5667610  25.1822686  16.8087423  22.4061704
  24.6726680  16.9208372  21.6036892  24.9052572  17.5319028  22.9687858
  35.4326616  49.1649332   4.0420019  35.8988980  49.6257390   4.7395098
  35.9672455  48.3902778   3.8677561  27.3201338  66.8305733  13.4617388
  27.9778782  67.0566370  12.8040898  27.3263253  65.8737423  13.4876311
  19.6052718   2.2616372  45.8119345  20.4535341   2.4855202  45.4291010
  19.5920169   1.3045789  45.8217239  44.5050192  14.6546853  53.3070040
  44.8172855  15.3892577  53.8353252  44.4962835  14.9908555  52.4108171
  59.0060985  63.9477550  35.3469253  58.4256303  64.2586516  34.6522093
  59.4368076  63.1790339  34.9730396  24.0028965  23.6104712  62.2289792
  24.2683782  22.6935431  62.1583186  23.1145640  23.5759565  62.5838119
  73.6857287  12.1539009  51.1883402  74.5835427  12.2562277  51.5040779
  73.7811945  11.7842782  50.3105593  31.3360126  29.7781207  18.4213030
  30.8880896  30.4844322  17.9557669  31.1131520  28.9878925  17.9292643
   3.5926887  48.9813350  23.8364649   2.8802892  49.4416426  23.3928013
   3.1579896  48.4638451  24.5143104  46.5301708   0.4187157  24.9775564
  47.3650793   0.0035121  25.1938116  46.7381052   1.3500597  24.9027884
   7.0356011   6.2855369  12.1410835   7.5874925   7.0230389  11.8808162
   7.3888797   6.0086668  12.9865229  52.4921898  51.9994082  15.0176871
  53.0953912  52.3337509  15.6814635  51.8109540  52.6688232  14.9541819
   6.6844511  13.0994248  50.1411867   6.2381679  12.2548938  50.2030754
   7.3126346  12.9866588  49.4278145  29.8055573  71.1732097  64.4057560
  30.6424590  71.0879757  64.8624325  29.9920245  71.7578362  63.6711311
  14.0033400  18.3345997  49.3194675  14.6436667  19.0054536  49.0824652
  14.3978977  17.8789544  50.0630665  16.6516650  29.3694186  25.0521398
  16.7056203  29.1881895  24.1138029  15.7905376  29.0408134  25.3104186
  34.5476065  68.0588414   3.9289105  35.0600598  68.6100795   3.3375036
  34.9613277  68.1758477   4.7841131  50.2263288  26.0451354   9.2832339
  49.7592238  25.3702106   9.7757017  50.6156448  25.5766310   8.5448801
  12.7425146  10.4356980  25.6815314  13.1752706  11.0365307  26.2881231
  11.8272960  10.7160544  25.6788254  64.3730894   1.1815736  45.8805752
  64.8879031   1.9695422  45.7064915  63.7278394   1.4561325  46.5321112
  46.6875414  47.7428998   6.3655293  47.6235179  47.9289522   6.2909424
  46.6397695  46.7925258   6.4691555   9.6225393  13.1119597   6.1390078
  10.4389250  12.6139188   6.0977477   8.9420807  12.4749112   5.9213442
  54.4951085  64.4997670  32.6036894  54.6111134  65.3083302  33.1026900
  53.7326173  64.6674158  32.0498526  66.9897723  65.3462933  21.2775302
  67.2685277  65.9728609  21.9453192  66.0567093  65.2155136  21.4464140
  42.4239540   6.6688174  49.7652197  42.7008533   6.0212910  50.4135036
  42.6046848   7.5133508  50.1779318   3.5471252   5.4523468  22.7554178
   2.9438934   4.7471213  22.9899383   3.4671080   6.0836631  23.4704471
  22.8748108  69.7453596  10.2396929  23.6337978  69.1948130  10.0471604
  22.1304248  69.2599465   9.8840296   2.9704854  11.3453889  28.6686540
   3.7514335  11.0760796  29.1522074   3.0671847  10.9345269  27.8095436
  14.8721552  15.6240666  62.2883987  14.0259683  15.3141153  61.9657087
  14.6817398  16.4769673  62.6789570  59.2338759  66.6390972  38.2322955
  59.8850459  67.2381054  38.5975337  59.6965152  66.1814545  37.5303268
   1.5990826  67.4309526  48.8910007   1.4457937  68.3353351  48.6174536
   0.9206911  67.2600763  49.5443153   7.3943949  14.9171531  64.2576265
   7.2846067  15.8502710  64.0746784   6.7897940  14.7416902  64.9786663
  65.0186789  72.6023039  34.9787116  65.7070267  72.3687384  34.3559313
  65.4647410  72.6428506  35.8246517   0.3784022   0.9449334  46.3542652
  -0.0166061   1.3738069  45.5951405   0.0166663   1.4111862  47.1079159
  77.5247601  74.1682884  60.8292484  78.3834485  74.4320468  61.1598825
  77.4509982  74.6037418  59.9800301  34.2952547  27.0834889   3.9697039
  34.2766110  26.2429478   3.5121262  34.6881334  26.8848302   4.8196518
  53.7039108  67.9406051  40.7590866  54.0997592  67.0857142  40.5896854
  53.3452555  67.8674518  41.6435337  33.9056253  62.4723290  62.4869537
  33.5640216  62.3162697  63.3674002  33.1260800  62.5322901  61.9347334
  63.6801187   7.2430795  56.6178226  62.9417995   6.6976047  56.3465786
  63.3615629   7.7105999  57.3899508   1.9845176  69.8456361   6.2356007
   1.9839215  70.7896735   6.3938010   2.8951812  69.5814325   6.3664543
  36.2235645  28.3895715   2.4421417  36.8741719  27.7554156   2.7434551
  35.3998569  28.0880924   2.8253519  75.3459930  73.7795412  49.5052338
  74.5079565  74.1051894  49.1767883  75.9358883  74.5307926  49.4429731
  16.2540793   4.1178900  60.4588652  16.9190729   4.1500157  59.7711325
  15.5496728   4.6806529  60.1374006  40.2691758  68.9838122  17.2814441
  40.0552177  68.8303535  16.3611698  39.4880557  68.7041538  17.7588058
  67.2735933  17.3377061  40.9176779  67.0778648  16.5986252  40.3417587
  67.4146572  18.0741560  40.3227186  11.6763516  57.3360489  49.6267796
  12.6089188  57.4810575  49.7865391  11.2385675  57.7526604  50.3690815
  55.2350731  63.1047855  42.6693201  54.8289776  62.9333316  43.5189819
  55.9774852  63.6749028  42.8693771  58.7624264  16.9353664  59.1450739
  59.5608282  16.9373548  59.6730661  58.7115955  16.0474885  58.7910652
  76.2560112  11.9140732  52.0039415  76.6095958  12.3989117  52.7496910
  76.2366251  11.0033119  52.2978306   2.9251283  12.8359532  52.6808882
   2.7668563  13.1631804  53.5663843   3.8404775  12.5561273  52.6889944
  11.1935639  21.2087321  29.1444850  10.5184531  21.1252189  29.8178959
  11.6600895  20.3732514  29.1681314  21.7996276  58.4824850  17.9741728
  22.0280720  58.2848646  18.8824618  20.9378747  58.8956119  18.0283892
  18.6538136  13.2493329  48.6794949  19.1048694  12.5686932  49.1790056
  19.3406451  13.8776076  48.4564161  52.3493246  15.0755932  29.6459353
  51.9242696  14.3034698  30.0192892  52.8631810  15.4384829  30.3673899
  32.7409101   0.7175066  47.7470112  33.2044554   0.7551771  46.9103861
  33.1044507   1.4426917  48.2551193   8.5927244  18.2558799  46.2314653
   8.0606981  18.7721241  46.8369961   7.9669043  17.9186928  45.5904627
   4.1025743  30.7301521  64.8612547   4.0212035  31.4327121  64.2162609
   3.7153864  29.9663448  64.4335699  64.5255307  35.9196368   1.2816918
  64.3795351  35.2030619   0.6640875  64.6838430  35.4850366   2.1197188
  73.1436721   1.9210666  48.3885527  73.9408640   1.3940075  48.4426451
  72.8523693   2.0085856  49.2961407  34.9748611  16.3210809  63.9803314
  35.5531812  15.6923676  64.4121838  34.4252658  15.7865381  63.4072351
  67.2959069  25.0770307  51.2177944  67.5133971  24.2100286  50.8753967
  66.7070500  24.9036908  51.9522572   4.2784429  49.7109820  14.6163475
   4.1504550  50.6190636  14.3420517   3.5255218  49.5215036  15.1762020
  57.6463369  33.0945526  10.1257622  58.4329108  33.5666187  10.3990519
  57.9292850  32.5717859   9.3755018  67.2007493  43.9129486  20.3653490
  67.9186706  44.5452471  20.3972876  66.5388707  44.3297388  19.8135912
   7.0398259  26.0263062  41.9096756   6.5884566  26.1324143  42.7470732
   6.3549161  25.7470322  41.3021088  68.5072783  66.4804723  19.1422236
  68.6764363  65.9047868  18.3964312  67.9403619  65.9668137  19.7175467
  29.1279864   9.7341597  57.3240376  29.0962315  10.3748989  58.0344439
  28.4664893  10.0345600  56.7008114   5.1061851   9.2410767  19.5543659
   4.9546528   8.2974476  19.5011330   5.4873180   9.3738657  20.4223156
  33.2897067  33.7354732  62.6994705  32.4944758  33.8234329  63.2249212
  33.6348176  34.6260643  62.6363754  11.7269552  -0.1391641  53.4320307
  11.0542631   0.0017867  52.7658081  11.5425336   0.5194401  54.1017008
  61.3156442  69.0329363  17.0981180  62.0025782  69.1684319  17.7508032
  61.1996154  69.8913314  16.6907751  10.4359233  15.2445722  51.6929579
  10.3959942  16.0418224  51.1647272  10.1451933  15.5187440  52.5627518
  33.7229357  39.8115193   7.6177323  33.8469920  40.3201644   8.4190619
  33.0986277  40.3233244   7.1034109  32.3323703  23.1581259  25.7793498
  32.5095034  23.9574194  26.2753201  31.3786006  23.1296873  25.7035637
  57.7051833  36.9662212  58.4820127  58.0948442  37.3698257  57.7064466
  58.4541428  36.6849135  59.0075159  32.0139710  41.7456226   6.5797341
  31.5549199  41.9040729   7.4045956  31.3156135  41.6231983   5.9366619
   5.5995864  35.2437139  58.5712624   5.1627678  35.6626058  59.3128490
   4.8844683  34.9488258  58.0074549  60.9194926  44.7895940   7.9148924
  61.0994653  45.2622010   7.1021902  60.0569443  44.3977584   7.7781164
  59.3571003   4.0008572  28.0546629  58.4011425   3.9556626  28.0729544
  59.5636781   4.8563698  28.4310305  22.3986135  38.2562717  20.0027907
  22.7238611  37.4670009  20.4357970  22.6988361  38.9754020  20.5586207
  66.7098697  37.3605496  30.5968821  66.5884717  37.0130770  29.7132838
  67.6589973  37.3756365  30.7200110  54.8092794  45.9974718  62.0662260
  53.9764118  46.3644218  62.3627234  54.6545887  45.7604361  61.1518288
  23.8894241  56.6685917  14.6705591  24.1594804  56.1457159  13.9156401
  23.0215461  56.9973053  14.4361079   1.6697487  21.0624170  57.7492857
   1.4160325  20.4653883  58.4531450   1.7767650  20.4981565  56.9835234
  64.3257487  72.0797779  54.7174978  64.6009707  72.8843628  54.2780352
  63.6711860  71.6989638  54.1320419  34.5620608  61.2198162  10.6966305
  33.9116597  60.5633688  10.9462070  34.5876169  61.8254042  11.4374709
  18.7956715  22.3065281  63.9955425  18.1256270  22.5946808  64.6154118
  18.5017085  22.6459002  63.1501722  43.6765222  70.7910253  22.3820841
  42.7605704  71.0649945  22.3351156  44.1710750  71.5582277  22.0939028
   5.5458051  23.1565213  47.6625776   4.9644405  22.4376369  47.9104757
   5.8400136  22.9330087  46.7795658  33.9371768  35.6661399   2.3783552
  33.5198227  35.0811145   3.0106461  34.4726435  36.2530515   2.9122460
  63.3508710  73.4290554  11.8256628  62.7646378  72.7661921  11.4607298
  63.6794094  73.0385329  12.6354658  73.1945236  53.1269862  19.8949396
  73.6472709  52.5256600  20.4862559  73.2667001  52.7156343  19.0336573
  28.9278746  11.7066681  59.1879272  28.2993579  12.3517060  58.8636971
  28.7757111  11.6777813  60.1325130  69.8539142  45.9383869  52.4836588
  70.4469071  46.6348600  52.2016764  69.6755723  46.1335325  53.4036303
   8.2949380   2.2127059   1.3861286   7.4541287   2.2374776   1.8429196
   8.9405111   2.0777300   2.0798504  29.1348290  21.6574574  28.2772326
  29.0300202  22.1880603  29.0669847  28.8434219  20.7830977  28.5357141
   3.9282230   2.5689843  42.7647591   3.6176300   2.1664037  43.5757446
   3.6314815   1.9762829  42.0741940  15.0693381  16.3419461  32.9607058
  14.3654335  15.7471323  33.2194471  15.0138307  17.0648944  33.5856032
  66.1074118  50.0178434  14.3431151  66.2886623  49.0796127  14.3988144
  66.5641002  50.3950598  15.0950300  24.7615147   3.5196224  58.8687086
  25.1548600   3.4101230  59.7344542  24.1532207   2.7850518  58.7873602
  31.4696956  20.2256298  47.8929758  31.7269659  20.4236197  48.7934446
  32.0708323  20.7394385  47.3536539   7.5164171  29.4795275  56.5776587
   7.9794451  30.2769113  56.3207245   8.1521650  28.9914560  57.1009541
  62.3282436  54.8261096  14.9153721  63.1916121  54.6040227  15.2639448
  62.0546679  54.0436234  14.4367230  30.5501533  63.5847594   4.4542420
  31.0114054  63.9206435   5.2227843  29.8250280  64.1958858   4.3240463
  54.2695820  71.7299999  61.9713736  54.2302093  71.2798210  62.8151846
  55.2053252  71.8350791  61.7993975  23.3774638  17.9855371  38.3763695
  23.3152652  17.1217144  38.7840152  22.5934291  18.0500591  37.8310633
  15.2580607   6.4234841  49.6974373  14.6121359   7.0145041  49.3105125
  16.0584676   6.9456613  49.7513866  68.5493048   1.8096164  20.7553446
  69.2154892   2.0209196  21.4094031  68.5476633   2.5618819  20.1634657
  46.8658546  27.4502661   0.0588572  47.3540071  27.9026802   0.7467949
  47.3270468  26.6192831  -0.0551737  27.6785326   8.8241655  18.0601907
  28.4194350   9.4033730  17.8818274  27.4996352   8.9443767  18.9928091
  48.4112310  48.5940075  57.8929758  49.3507195  48.4937096  58.0463552
  48.0184269  47.8212643  58.2989359  49.3474960   4.0716678  47.3611593
  50.1958513   3.7230372  47.0873356  48.9348793   3.3511442  47.8374195
  23.5073495  14.6424651  58.9270973  23.5913038  14.7636902  59.8728752
  24.0894365  15.3013444  58.5485697  47.9177523  10.3266323  55.6812811
  47.9764652   9.5428330  55.1349783  47.3111248  10.0857031  56.3814163
   0.4463542  21.4678216  43.3217573   0.6702740  21.6851020  44.2266798
  -0.4862092  21.2539768  43.3505154  13.3203149  18.1222129  61.6023970
  12.8670037  17.8479540  60.8052015  12.6562548  18.5936391  62.1054029
  15.5474257  19.3980646  45.6121874  14.6122909  19.3007004  45.7918358
  15.7283437  18.7532425  44.9282932  75.0370625  53.0301024  16.1160052
  75.8102159  53.3827044  16.5566122  75.3473977  52.2305574  15.6909716
  14.7634232  21.7915034  37.9963112  15.4126120  22.2603989  37.4719810
  14.5031726  22.4180007  38.6715913  10.2918947  13.2705426  40.1015568
  10.7755589  13.9764619  40.5304861  10.8193338  13.0510640  39.3335271
  26.4162040  21.1439204  59.4889784  26.1019707  20.2452326  59.5882225
  26.4022326  21.5019321  60.3765965  27.2320529  73.2614872  37.6014447
  26.3944884  73.0838572  38.0294228  26.9945451  73.6868709  36.7775083
  39.9905062  25.1314783  49.6134377  40.3581715  25.9782434  49.8664951
  40.7497501  24.5533657  49.5388174  36.9714471  68.2486729  23.2441878
  36.8164273  69.1922759  23.2016182  36.5636655  67.9757957  24.0660667
  41.9110441   9.0123951  35.3701377  41.5226460   9.0754199  36.2427211
  42.7968407   8.6845201  35.5253649  77.6541495  64.8025648  58.3534241
  78.0036306  64.2731045  59.0702009  76.8204236  65.1352225  58.6857986
  32.0137095  22.9522943  38.7184167  31.7629218  22.0715570  38.4397793
  31.9921684  22.9162002  39.6746922  20.5805278   5.3738993  42.4294329
  20.4008794   6.1155921  41.8516350  20.1724577   4.6260282  41.9930840
  34.2197821  43.6571266   2.8480017  35.1307801  43.6844500   2.5554764
  34.2762623  43.5580458   3.7983811  48.0425835  53.4310506  62.4818659
  47.7168524  53.9230870  63.2355452  48.7836146  53.9456295  62.1619987
  31.2721586  20.1943398  37.9322910  31.8799257  19.9368906  38.6255217
  30.9952760  19.3675745  37.5372863   9.4957713   2.6450852  25.8026373
   9.1095189   3.0994585  25.0539076  10.1568560   3.2517842  26.1359751
  21.1080384   1.8202515  34.0086985  21.6115904   1.9842625  33.2113481
  20.2673578   2.2509849  33.8539124  37.7384154  32.7530758   7.8999436
  38.0156950  32.9687985   8.7903416  37.5736336  33.6013644   7.4882567
  51.6540706  14.4927100   9.2780125  51.2221998  15.3188589   9.4952595
  52.5866258  14.7076825   9.2590630  67.2941522  24.8632135   5.7246697
  67.6766519  25.7024218   5.9809077  67.1774892  24.9325134   4.7771370
   9.5416361   0.5242906  51.9718170   9.3989813   0.2623551  51.0622692
   8.7525553   1.0123865  52.2070742   9.6217271  69.3981211  63.2449818
   8.7987968  69.2282461  63.7034130   9.4088312  70.0905155  62.6192808
  52.2367743  22.8240659   8.5059273  52.9905466  22.7703776   9.0934479
  52.2823814  22.0229818   7.9839909  36.9427156  20.3157520  50.4459000
  37.3845339  21.0315418  49.9890947  37.4781561  19.5449328  50.2578163
  26.1386299   5.1508939  37.0739079  26.2885094   5.7296026  37.8214812
  26.3088226   4.2722180  37.4133134  76.3320018  47.1852350  61.6200304
  76.5757988  47.6583719  60.8244562  77.0658412  47.3277855  62.2178555
  29.6251702  24.9660182  63.7801886  29.5128965  24.1744876  64.3065977
  29.2400503  24.7461462  62.9319143   3.3861736   1.7387918   6.0425484
   3.5971049   1.5325263   6.9531500   3.0762891   2.6440957   6.0676253
  63.4430150  55.3578939   7.6674139  64.0005831  55.5732717   6.9197762
  62.5679640  55.6421246   7.4033510  65.3964233  69.1621290  22.0068669
  65.9825516  68.4723716  22.3181891  65.9098327  69.9661769  22.0852876
  38.4374670  57.2117474  11.9144451  39.0996686  57.8601171  12.1538985
  38.2652060  57.3764564  10.9873926  50.1274681   5.9014028  62.3358965
  50.2683115   6.3718927  61.5142870  49.2322206   5.5689049  62.2710657
  40.2313320  58.2675077   0.0074541  40.5271522  57.3742821  -0.1682461
  40.9445909  58.6616160   0.5096209  19.1287808   2.2137335  10.2613175
  18.1796888   2.1684626  10.1455080  19.4492296   1.3690713   9.9449503
  31.7555261  12.3510659  59.9083233  30.8345485  12.4959564  60.1252079
  31.8573165  11.3993561  59.9192953   7.8509700  20.8231854  43.6855316
   7.0583946  20.5818367  44.1649151   7.7188283  21.7418337  43.4513140
  23.8750982  30.3324580   6.6718620  23.7199974  30.2079082   5.7355595
  24.0663910  29.4545221   7.0018166   4.6723151  38.5394083   3.6687577
   4.6767354  39.1032376   4.4422590   4.8567939  39.1315565   2.9396784
  51.4714356  12.0397833   2.4999344  50.6365450  11.5789822   2.5827086
  52.0201682  11.6670636   3.1900084  41.0875551  25.3867080   2.6951468
  41.4208261  25.8385553   1.9199049  41.4957491  25.8418753   3.4316504
  40.9112120   0.5681318  56.8778515  41.1067915   1.3378835  56.3435698
  41.5470123   0.6047498  57.5924492  76.9233111  45.0664612   1.1694491
  76.9571761  45.7961245   1.7880594  77.5679807  44.4413396   1.5008986
  56.3036016  44.0024342   3.7644875  57.0460204  43.4664889   4.0434325
  56.0786895  44.5207771   4.5371258  41.8861270  59.0623056  28.6076021
  41.9936013  59.8839258  29.0867901  42.1718788  58.3870374  29.2228985
  36.5379930  31.3798070  49.1547394  35.7870030  30.8512783  48.8847303
  36.3085103  32.2721601  48.8953590  20.7376313   8.0849195  54.2485762
  20.2307463   7.2788560  54.1507959  21.3419008   7.9020727  54.9680614
  51.8408922  66.9940807   6.8563330  51.2864307  67.4339940   7.5007546
  52.5878219  67.5816848   6.7421019  77.4006423  28.4143615  59.5585346
  78.0749946  27.8381443  59.1987324  76.8214435  28.5964608  58.8185358
  30.4001379   5.1544267  41.1259794  30.4965806   4.6030998  40.3494692
  31.2975430   5.3216356  41.4139652  27.6826093  36.9006871  32.0906794
  28.0892158  37.7218252  31.8138563  28.1712123  36.2223629  31.6244471
  11.5734458  27.3307967  24.0152597  10.9845364  28.0551577  24.2267346
  11.4714015  27.2068262  23.0716228  67.6854646  62.2568070  35.1606369
  67.1839487  62.8274869  35.7429051  68.5852981  62.5759219  35.2291727
  75.3451107  28.6362600  61.2088823  76.1287100  28.3324409  60.7507324
  74.6340100  28.5013986  60.5824757  15.4488957  11.5285552  19.1541445
  15.8840680  12.2299743  18.6695123  14.5152533  11.6779506  19.0050697
  17.5078845  44.2761989   1.3287174  17.3967099  43.7192895   2.0992529
  17.0521951  45.0878086   1.5520298  44.0732578  71.6588666  29.0823519
  43.1757978  71.8718388  28.8265478  44.3551580  72.4053504  29.6110594
  68.4822372  24.5575714  29.8017192  69.0146748  23.8541651  30.1731491
  67.7206186  24.1114473  29.4313884  78.2495134  12.8038728  54.3641901
  78.5122721  13.7039435  54.5567083  78.9127835  12.2636616  54.7936964
  44.5882849  33.6341955  10.5421507  43.7098590  33.9170973  10.7962477
  45.1531652  33.9406284  11.2515461  77.5921563  15.6133987   4.3535053
  76.7136220  15.6306650   4.7331249  77.5514344  14.9280407   3.6865246
  45.0345129  53.7424038  14.4805825  44.3435985  53.2628392  14.9376249
  44.5748699  54.4459294  14.0223122  76.3925055  52.6137175  12.2251951
  76.2218932  52.9953172  11.3640845  77.3433570  52.6616468  12.3242771
  34.7305099  63.0505206  12.8411639  34.8630688  63.9768674  12.6398146
  34.5706955  63.0309917  13.7847245  36.0326982  17.2124374  55.4339457
  36.0732985  16.2621891  55.3261852  36.3154912  17.5616300  54.5887661
   3.3971695  12.3675850  41.1359179   3.9290146  11.5775660  41.2320292
   3.7988619  12.8394535  40.4063856  56.4867452  10.3894877  44.8740864
  55.6128649  10.5981421  45.2042818  56.6306762   9.4799715  45.1354218
  78.5514903  24.6349858  40.3895521  78.2284999  24.5034455  41.2809610
  78.5229397  23.7640332  39.9934983  49.4276718  62.0649173   0.7736504
  49.5690230  61.8561699   1.6970551  48.6143068  61.6136004   0.5478537
  16.3553643  22.1488595  45.2913618  16.8271506  22.3007941  44.4724798
  16.1171043  21.2222481  45.2621365  32.0569992  20.8524203  43.4723520
  32.0015907  21.4715910  42.7444839  31.8091416  20.0105953  43.0900860
  57.9110658  71.7440076  44.7063160  57.0486551  71.6649123  45.1140213
  57.7247774  71.9303502  43.7860966  13.8902644  72.9135396   9.5626557
  14.8149780  73.1499793   9.6349919  13.8660280  71.9776656   9.7621166
  13.5321593  13.0133188  32.4703193  13.6499894  12.8614390  31.5326190
  13.0394578  13.8324571  32.5202227  15.0260619  48.8850786   6.8367016
  14.8120109  48.0561318   6.4086067  15.3223661  49.4526138   6.1251223
  11.0321248   3.9186409  47.7676201  10.1970553   3.6454922  48.1474638
  11.0111141   4.8748606  47.8054857   8.4710375  37.7428609  22.0384085
   9.4213382  37.8358541  21.9712317   8.3442596  36.9927474  22.6193487
  21.1081433  18.1165147  26.7856717  20.2616382  17.7017593  26.9519210
  21.2702107  17.9652512  25.8544993  68.4061797  11.8843058   8.0666840
  68.6522766  12.6594666   7.5619137  67.4618001  11.9723395   8.1956398
  25.3062487  17.6206636  62.7462626  26.1819649  17.8691554  63.0422449
  24.7332358  17.8436041  63.4798765  31.0864496  27.8759646  49.0643072
  31.0782027  28.4798503  48.3216810  30.4736376  27.1835589  48.8167810
   1.1376091  37.2475647  34.1074824   0.3967567  37.4029850  33.5216379
   0.8225866  37.5197600  34.9694014  78.1654578  16.4904654  59.1913414
  78.6988573  16.8600154  58.4876728  77.5755601  15.8798444  58.7493086
  32.4251866  30.1207352  60.5676317  33.0074787  29.6530247  59.9689531
  32.5145626  31.0406947  60.3187943   9.1765934  33.5356212  52.2940111
   8.4336281  34.0421891  51.9659519   9.4368595  33.9853692  53.0978918
   9.5586375  55.0385310  23.4170782   9.0201203  54.2474987  23.4394324
   9.4925026  55.3478541  22.5136530  57.6437572   7.2887295  37.1070027
  58.3541516   7.5992686  36.5456343  56.8706254   7.7612472  36.7984152
  71.0105975  22.6971653  21.5327227  70.1448257  23.0816868  21.6698897
  70.8577223  21.7523363  21.5450537  33.8836026  29.8225117  48.7536716
  33.0153084  29.8993134  48.3582020  33.8073373  29.0835953  49.3573427
  70.7150898  31.7247725  43.0169630  70.3544960  31.2823629  43.7853909
  71.5584401  32.0681500  43.3120632  61.9896118  34.0254283  50.5646086
  61.3108519  33.4398842  50.2289629  62.4531940  33.5039592  51.2198925
   2.4475980  47.7264084  18.9496100   2.5252223  48.5955514  19.3430483
   3.0246425  47.1729000  19.4757998   2.2548175  46.3578387   1.0307562
   1.8077350  45.8719440   0.3377497   3.1759429  46.1146881   0.9378111
  21.0754871   6.1843139  25.6534553  21.3225746   5.6576824  26.4136124
  21.8199420   6.7699975  25.5156350  12.5327885   6.8252045  54.7307301
  11.7571366   7.3341578  54.4950151  12.3484659   5.9436631  54.4064713
  10.7193514  56.1163961  61.9669628  11.5632006  56.0164414  62.4075985
  10.2360221  56.7365025  62.5129414  37.6470590  20.9892297  47.3933840
  38.2729697  21.2601066  48.0650187  36.8623972  21.5066266  47.5746059
   8.7193435  55.0216770  55.5907345   8.1801158  55.8119345  55.6216431
   9.3826383  55.2101278  54.9268389  31.1491179   6.8288565  57.3211527
  31.0505438   5.9297305  57.0079613  30.2696133   7.0828676  57.6007557
  15.5660335  31.1936780   5.7560599  16.4594755  31.0336866   6.0600245
  15.5835108  32.0907595   5.4226362  70.8019876  36.5791702  59.5435667
  71.1316395  35.6995535  59.7275209  70.8243895  37.0252490  60.3901768
  63.8703596  72.0019819  50.8352566  64.5859516  71.5794821  51.3102865
  63.1693256  72.0841988  51.4818048  31.7866254  19.4233537  57.4222612
  31.8661165  20.0124741  56.6720247  31.6941786  18.5530448  57.0346403
  25.7021356   7.5271690  45.9173965  25.8444023   7.6800245  44.9832535
  26.3373971   8.0957365  46.3526058  21.3083426  25.1675262   2.4237025
  20.8175001  25.2810897   1.6098177  22.2153155  25.3591587   2.1851504
  57.7647356  18.9966452  34.3262482  56.8276695  19.1250491  34.1791034
  58.1723646  19.2303073  33.4922957  46.8606806  11.4800763  35.5501676
  46.9532347  12.3728085  35.2174568  47.5718307  11.3857222  36.1838865
  36.2558770   9.2763054  31.6176963  36.9969511   9.6655285  31.1534262
  36.2987971   9.6536195  32.4963450  12.7512070  65.9970252  30.9787989
  12.2685262  65.9519915  30.1534367  12.0953365  66.2562864  31.6259837
  11.6792965  19.5691967  63.3544636  12.2171175  20.3008628  63.6571932
  11.0354292  19.9705923  62.7708960  62.3506502   4.6117139  53.4616518
  62.4743966   5.5433577  53.6431980  62.0577852   4.2422056  54.2946768
  52.8200483  11.2613595   6.8986994  52.3232555  12.0655763   6.7481494
  52.2947407  10.7700133   7.5302553   2.0784780  63.4954117  51.2344694
   1.7650171  62.7589141  51.7593956   2.7235456  63.1096886  50.6417322
  68.8624143  64.3974291  17.0373762  68.0588269  63.8797675  16.9873345
  69.4500983  63.8752352  17.5834274  11.9194269   8.0715293  46.0743809
  11.5994918   8.2497042  45.1900005  12.8208303   8.3935535  46.0723972
  14.6046984  37.1877074  29.8585415  15.4893959  37.0435596  30.1943421
  14.3499267  36.3440776  29.4848943  28.5719299  24.2150521  52.1117496
  28.5744095  24.9094081  52.7706099  27.8549695  24.4473743  51.5216446
   4.7896409  30.6868430  13.8070261   4.8171878  29.8168524  13.4087956
   5.6373334  30.7780321  14.2421543  34.0628910  19.1036081  46.6399145
  33.4040618  18.5797381  46.1841393  34.2830467  19.8013401  46.0227203
  17.1044374  17.1109486  20.5692124  16.1501551  17.1810114  20.5433655
  17.3654437  17.0546281  19.6500099   6.7207205  34.0019631  64.3572426
   7.0776796  34.5942307  63.6954021   7.4741578  33.7650967  64.8980379
  12.1969104  27.2189498  27.7791548  12.0219159  28.1599784  27.7704120
  13.0755401  27.1421695  28.1511045  58.4688357  41.3013076   4.1430723
  59.1855482  41.3183536   4.7773134  58.8145617  40.8002656   3.4043848
   4.1384979  71.4904018  60.4039907   3.5061451  72.1785535  60.1970911
   3.8142987  70.7193868  59.9385214  30.8720393  34.2968838  13.6446965
  30.7303063  34.4500791  14.5788634  31.7415122  34.6580150  13.4719717
  12.7961314   9.5795113  28.7878370  13.0807090   8.9315003  28.1433773
  12.9368305   9.1539514  29.6336102  75.4198273  37.7731159   5.6886542
  75.4223903  37.0998486   5.0082600  74.5313104  37.7511233   6.0440218
  23.0920176  16.7091444   0.8364880  22.7884440  15.8051852   0.9197485
  24.0456728  16.6385964   0.7941353  64.8700642  73.3005592  28.4088755
  65.1769364  74.0493445  27.8976178  63.9660299  73.5192587  28.6349797
   8.1072497  21.0947108  32.9155731   8.5376859  20.2644134  33.1194401
   7.2029603  20.9730697  33.2048750   4.2992914  22.1456885  34.8796988
   4.8635519  21.3767433  34.9607277   4.7746244  22.7304506  34.2894888
  12.4774548  72.9236232  36.8500161  11.5927430  73.2057595  37.0822120
  12.6838966  73.4135008  36.0540056  41.8601799  10.1021421  57.6315975
  41.1338520  10.2832413  58.2281590  42.3345327   9.3802297  58.0439854
  68.7046985  67.1804454  31.6514170  69.2968921  66.5527322  31.2372744
  68.9243630  68.0197408  31.2469923  25.7154850   5.4809502   2.9281771
  25.9300760   5.4863861   1.9953596  25.6052784   6.4045885   3.1539786
  37.3599029  33.2420087  61.8237162  37.0988965  32.5413609  61.2260532
  38.3158851  33.2531428  61.7767715  27.6753187  27.9030037  52.4673510
  28.1622100  28.4061074  51.8146229  26.7795515  28.2347941  52.4061394
  25.8660956  38.5434197  17.5185215  25.3349420  38.0409406  18.1362784
  26.1954852  39.2816638  18.0310965  23.5491200  69.4340937  41.4864111
  23.4685727  70.0413309  42.2219419  24.3910190  69.6523963  41.0866833
  31.6207858  70.0170560  53.4630394  32.3421308  69.4457875  53.7267542
  31.9587203  70.9036027  53.5897970  11.7408633  41.0534932   3.2771361
  11.6392875  41.3425793   2.3703062  12.4503970  40.4117604   3.2458985
  43.2466888  37.4851584  63.7186718  43.9262676  37.6881838  64.3614626
  43.6861753  37.5651693  62.8720999  22.2016478   4.6304604  44.4462156
  22.5312090   5.5096275  44.6324587  21.6463685   4.7413304  43.6744595
  41.4738532  71.2488259  61.8697882  41.3026019  70.5263661  61.2656736
  42.3550769  71.0789166  62.2026777  75.0047997  62.4279334   3.7410557
  75.8310966  62.8021981   4.0466606  75.0643853  62.4633743   2.7863705
  71.5832309  64.2772343   6.2440169  71.7856530  65.1705934   6.5218031
  72.0969418  63.7218596   6.8304455  26.7464304  23.0246472  40.1253843
  27.2840524  23.0221963  39.3334317  25.9339714  23.4568119  39.8619914
  50.0136518  36.2012959  57.1161079  50.8563757  35.7633376  57.2354603
  49.9307919  36.7732668  57.8791380  13.8126377   3.5136536   2.3229134
  14.6176342   3.1747464   1.9313109  13.1139902   3.1831339   1.7582190
  15.9274495  35.7946682  57.2173071  16.3103962  35.3917146  56.4380693
  16.6793609  36.0146761  57.7672672  48.6333609  74.6813583  47.7821827
  48.1431913  73.9211988  48.0954409  49.2016506  74.3333387  47.0950413
  37.6759672   5.8748519  37.6829076  37.5641418   5.0868201  38.2146335
  38.5920310   6.1215997  37.8100824  25.4742074  19.5430231  56.3299894
  25.0350571  19.0094936  56.9923496  24.9769759  20.3607631  56.3128805
  73.2864094  31.5039110  56.7677164  73.2371569  30.6394577  56.3596392
  73.1797647  32.1180964  56.0413265   3.1897950  57.8931977   1.4382946
   2.9288507  57.3974730   2.2144377   4.1035724  58.1279017   1.6000378
  40.7844210  13.2160497  55.0276232  41.3101387  13.0336022  54.2488003
  40.0004053  13.6499965  54.6911097  78.1052239   4.9096421  26.2842619
  78.0062731   5.8614901  26.2636244  77.6137121   4.6011809  25.5230105
   5.6163140  63.1268560  37.9886055   5.9121128  62.4435018  38.5900712
   6.0131141  62.8950571  37.1489334  29.3276906  29.3644333  50.7108021
  29.6811342  28.8096762  50.0154257  29.6396303  30.2438688  50.4974556
   5.0364566   8.6644489  36.5544391   5.6435061   7.9312795  36.4535189
   5.4987127   9.4120538  36.1754441  39.1807270  11.1574066  56.2406158
  39.4065571  11.3334370  57.1539879  39.6771932  11.8062174  55.7418156
   4.3231899  20.1382303  42.5069189   3.9346614  21.0028005  42.6403189
   4.4221529  20.0639820  41.5577459  11.7019594  30.8328795  37.0346475
  11.7253864  31.6444159  37.5416899  12.4365067  30.3192639  37.3706102
  69.5989747  39.9680785  10.3318846  69.1109093  40.7899407  10.3825581
  70.0696309  40.0199202   9.5000040  36.0379386  21.5785551  12.5328231
  35.4877138  21.8028641  13.2832694  35.5413604  21.8815541  11.7726696
  71.0743979  60.6439497   1.1295855  71.9223002  60.4156830   1.5106308
  70.8069018  59.8583819   0.6525576  78.4717043  41.9784478   5.1516163
  79.4200380  41.8519476   5.1814997  78.1567319  41.6261795   5.9840357
  59.5002699  21.3096499  55.8507490  58.6560488  21.7570138  55.9089565
  59.3785715  20.5024743  56.3506365  35.3316454  19.4446591  21.1406767
  35.9045080  19.9159506  20.5357420  35.2116493  18.5853032  20.7365286
  17.1540455  16.6503790  42.4106562  16.3747934  16.9272211  42.8926909
  17.1638540  15.6972531  42.4983084  63.0231237  69.6133184  43.3712912
  62.7760696  70.5010653  43.6303377  63.7522888  69.7353983  42.7633047
  73.1128816  42.6661910  22.0516836  74.0414266  42.8978463  22.0324099
  73.0825643  41.7701613  21.7163527  60.2519274  27.7491403  60.4385138
  60.0756216  28.3620858  61.1522722  60.2271652  26.8862939  60.8521748
  41.0398769  42.8283787  43.4700871  40.5912971  42.5786877  44.2779636
  40.9593010  43.7815762  43.4361696  54.8935795  45.2576828  49.1909027
  54.9739599  44.8402262  50.0485182  55.7716990  45.2017736  48.8140631
  61.7617798  46.9011307  55.5608082  62.6323605  46.9364738  55.1644897
  61.4046574  46.0587168  55.2796745  42.9759026  12.5359070  58.4930515
  42.4353552  11.9205010  57.9977512  42.5358725  12.6136601  59.3395472
   8.3799311  30.2553773  32.7910924   8.4408613  29.3147421  32.9575992
   7.4447104  30.4163623  32.6658797  51.1440086  39.0342832  52.9592800
  51.9916439  39.1009450  53.3989382  51.1822844  39.6914744  52.2643948
  73.2946614  12.8985359  39.9714184  72.5278357  12.4806262  39.5795393
  73.8976125  12.1761276  40.1469707   4.0996309  46.2908554  54.1544676
   4.5115992  45.5972052  53.6393356   3.6473795  45.8286619  54.8602104
  39.0168385  23.2888726   3.3292353  39.5676140  24.0678481   3.2512915
  38.9643816  23.1258801   4.2709934  61.1480240  45.4946281  50.6050158
  61.5558652  45.9462501  51.3438845  60.3221539  45.9584667  50.4670763
   6.8813586   6.2125541  22.4348640   6.6998553   5.4557659  21.8775964
   7.3065829   5.8435108  23.2089543  65.1419735  49.1264105  44.8231745
  64.9847364  49.6833515  44.0607309  64.6087742  48.3474112  44.6647978
  28.6701635  37.9178933   0.5627739  27.9656843  37.9610375  -0.0838220
  29.4175057  37.5654295   0.0795758  68.3750534  50.7026529  63.0617428
  68.1577158  49.7725725  62.9989672  68.0052423  50.9789658  63.9002705
   4.6608874  60.3517103  59.2701769   3.8579794  60.4826260  58.7657642
   4.3685099  60.3164673  60.1809454  25.5863194  31.2438753  14.3134320
  26.2083963  30.5342272  14.1532767  25.9402947  31.9873694  13.8254225
  44.1436172  19.7987796  44.1903639  44.7535586  19.9680759  43.4723425
  44.6498466  19.9797298  44.9823380   4.1446253  55.9044313  50.9416008
   4.1989752  56.4675236  51.7137432   3.7453982  55.0958014  51.2624884
  60.2641896   1.0383464  45.3251362  60.6755570   0.7376005  46.1354208
  60.9361009   0.9138347  44.6548653  58.3151388  54.2668200  61.5443039
  59.0354538  54.8862982  61.6610432  58.7151051  53.5135698  61.1097002
  38.0246091  67.3446369  52.6242256  38.1743598  66.6544914  53.2703686
  37.3529077  67.9006910  53.0190039  39.9542240  23.9391163   0.3082430
  40.2132992  23.2294920   0.8960736  39.6000675  23.4947947  -0.4620683
  72.2776365  67.4360991  43.8565063  72.1937943  66.5712929  43.4548759
  71.4274168  67.5928211  44.2673588  73.4579706  55.3208923  42.1424007
  73.9197874  54.7602177  42.7657795  74.1492939  55.8337784  41.7237711
  10.6433872   9.1718558  18.2333719  10.1111178   8.4396342  17.9222834
  10.0075511   9.8491362  18.4640944  71.7309856  26.0694408  47.3935509
  72.1044111  25.2360511  47.1067667  71.6697121  25.9895205  48.3454370
   6.4868522   3.0316259  59.7619438   6.4293885   3.7065031  59.0855789
   5.6184840   2.6290847  59.7730207  55.4061508  60.5300951  32.1102166
  56.1202812  61.1587143  32.2155070  55.7684183  59.8486948  31.5439177
  61.2705020  12.5032474  27.0968795  61.3553146  11.5674449  26.9143462
  60.4378537  12.5819637  27.5624251   9.5283274  32.2109822   3.3411038
   9.3793992  32.8709153   2.6639521  10.1630549  31.6086653   2.9530775
  56.8268208  39.0146902  11.0372841  56.3414578  39.4303540  10.3246319
  56.7568306  39.6311453  11.7662012  68.3241940  11.1586893  46.6980934
  68.6118937  11.5690911  47.5135851  68.7122345  10.2839518  46.7202806
  20.8909754  44.8834923   1.6261875  20.9091143  44.3952874   2.4493229
  21.6576437  44.5712689   1.1455929  31.1956171  17.8638724   3.7903225
  31.1576752  17.8428391   4.7465384  31.7294077  17.1049622   3.5550511
  14.1145969  27.7968837  30.4030514  14.3503451  28.5832263  30.8953214
  13.5381961  27.3096038  30.9917355  48.0706648  30.7910326   8.8250315
  47.4069170  31.4331845   9.0766537  47.5715927  30.0641039   8.4525645
  41.7060947  62.4604082  56.9729853  41.5440941  62.3005915  56.0432291
  40.8743429  62.2549009  57.3998165  55.7168607  16.9537021  42.7308321
  55.4292182  16.0438396  42.8059626  56.1430935  17.0002605  41.8750334
   3.3039737   5.6013252  47.7959061   3.5059571   4.6806241  47.6293468
   3.8627029   5.8390476  48.5358620  23.7436553   7.8900598  59.9471197
  23.8351747   7.2961877  59.2020214  23.7664434   8.7652228  59.5600724
  52.5319242  66.3669205  37.9237604  53.4443283  66.3246441  38.2100415
  52.2428894  67.2445393  38.1737113  64.2135239  74.0928268  44.4533348
  64.3215084  75.0063992  44.7178268  64.6517372  74.0359068  43.6042404
  16.1399722   2.5034572  48.6068535  16.1364627   1.9331075  49.3755674
  15.2142835   2.6335861  48.4009361  69.2177343  56.0308361  32.9608202
  69.5954800  56.6537619  33.5817122  68.3902788  56.4309740  32.6935458
  52.8406668  51.9070530  50.6533766  53.6714602  51.7360449  51.0969639
  52.5263262  51.0416460  50.3916502  74.2155933  41.9058275  32.9079866
  74.2310667  42.8580809  32.8120208  73.8901711  41.5855789  32.0666957
  75.0080995  25.9740402  54.0964222  75.4830007  25.5499698  54.8111773
  75.6692199  26.1115982  53.4180212   7.3554874   5.7269908  27.9730487
   6.7348218   6.4541961  28.0198073   7.8994250   5.9250022  27.2107148
  66.5604591  73.1430387  18.7779129  67.0713234  72.3542356  18.5961425
  66.5287685  73.1930017  19.7332823  67.3385572  51.7830706  34.5435905
  67.6542759  51.4186573  35.3704858  68.1019640  52.2218847  34.1682458
   1.6539172  38.0543736   3.8365662   2.1399359  37.2651175   3.5976231
   0.8664326  37.7280835   4.2720377  60.9357448  19.0548495  37.6074946
  61.4776828  19.8024920  37.8596174  60.6829025  18.6514500  38.4379065
  78.3621196   3.0162813  40.4719353  77.7949361   3.2362606  41.2109518
  77.8581456   3.2710792  39.6990728  31.5969777  59.4211531  27.9346538
  31.6634202  60.2012348  27.3839355  31.1879253  58.7643194  27.3712063
  57.7851772  58.8753128  19.7665274  56.9795752  59.2981434  20.0639415
  58.1164503  59.4497919  19.0762639  55.8232355  53.5978127  61.7773581
  56.7544985  53.7753963  61.9094181  55.3773642  54.2085695  62.3642206
   8.0661845   6.8579437  31.8248749   7.8239656   6.1267711  31.2565923
   8.9491630   7.0976306  31.5435624  28.7375903   6.7457534  47.3120880
  28.1080032   6.5651180  48.0101061  29.3674731   7.3482372  47.7076912
  39.2315523  63.0964901  27.0344317  38.8435344  63.8959338  27.3901903
  38.9667694  62.4091627  27.6457464  34.1831779  63.0212545  24.3354321
  34.3696761  62.6850224  25.2120137  33.5689425  63.7408876  24.4806051
  48.7409023  25.4787806   0.3243887  48.9182095  25.0906876   1.1812317
  49.1174845  24.8600224  -0.3013551  26.5540556   9.3357447  20.6746638
  26.2311606   9.9677351  21.3169634  26.4769129   8.4882334  21.1128485
  53.2628441  72.7479792  45.4634428  53.2174015  73.6584520  45.7553482
  53.3931208  72.8061342  44.5169353  25.0680594  54.6995476  18.1376898
  24.3065552  54.4509343  18.6616480  25.3395990  55.5446843  18.4957945
  28.5210756  29.9006012  25.7054007  29.2531733  29.3228224  25.9208834
  27.8335098  29.3108395  25.3961050  13.9752352  53.7391472  56.1848545
  13.7927043  54.3282270  56.9169044  14.9150825  53.8336563  56.0299683
  67.3580150  10.3789569  56.3335705  68.2368783  10.5664779  56.6632128
  67.3306397  10.7973339  55.4730797  68.9995909  65.1859236  50.5323410
  69.1961861  66.1210775  50.5877447  68.5434484  64.9881983  51.3503075
  12.2971324  23.4003285  15.0689757  13.0337671  23.1406477  15.6222975
  11.7813567  23.9906100  15.6183207  59.5571232  69.8608732  41.5910530
  58.6166239  69.6897554  41.6400957  59.9646521  69.0399599  41.8671799
  75.7711987  48.3673027  32.0675432  75.4871754  48.8098362  32.8673804
  76.6933731  48.1622914  32.2218096  67.5199795  51.2133312  43.4167242
  67.4648190  52.0884800  43.0329275  68.0674028  50.7184935  42.8070545
  33.4411192  69.6607065  33.0487514  34.0079236  69.5295286  32.2886467
  32.6896191  70.1447582  32.7064443  31.5538669  14.3496944  42.0219088
  32.4048400  14.6447326  41.6978216  31.6653228  14.2936565  42.9709482
  73.9484119  71.0052967  53.0034494  74.6974373  71.3745832  52.5356674
  73.1905508  71.4667082  52.6443005   0.6104513  65.1486683  43.3384132
   0.1452919  64.9104691  44.1403580  -0.0791124  65.4241323  42.7343798
  54.4534782  55.1920060  11.8899023  53.5001234  55.1178864  11.8470013
  54.6961979  54.7067669  12.6784813   5.2645727  73.8411331  43.4427547
   4.3889280  73.5554838  43.7032938   5.2273317  74.7966623  43.4852457
  73.3296589  63.7632969  18.2952463  72.7145866  63.1280259  18.6617911
  73.2827667  63.6238316  17.3494208   5.2749392  71.3780546  54.0155268
   5.2655646  71.5919256  54.9484825   5.3090616  72.2274017  53.5754299
  36.1558557  66.6148472  48.5456848  36.5429449  66.5964079  47.6704407
  35.2146721  66.5303612  48.3931494  38.9603976  16.0508968  63.1672478
  39.7495274  16.5758468  63.3011913  38.7594978  16.1535312  62.2370100
  71.7963437  74.7204091   3.7173760  72.4358634  74.3119242   4.3008053
  71.4293221  73.9918591   3.2166350  61.9464687  58.7530163  12.7630961
  61.5976814  59.6424034  12.7033484  61.6859154  58.4515313  13.6334097
  68.7600994  62.0295954  15.0649548  67.8302288  61.8051481  15.0304008
  68.8286829  62.8436852  14.5661724  42.6747088  19.7849682   1.0113775
  42.0251469  19.0974692   1.1585104  42.2414497  20.5890587   1.2976610
   7.0048479  40.0400856  22.7841818   7.9182700  39.8539618  23.0015528
   6.5254239  39.2670515  23.0821764  19.3993926  73.7870504   9.6307003
  19.7817397  73.4710147   8.8120615  19.9348664  74.5439412   9.8686421
  71.6293343  19.7530726   2.5685942  71.2885817  20.3959111   3.1905854
  71.1473842  18.9499596   2.7660048  55.3776407  71.1446381  45.9378147
  54.6807766  71.7948198  45.8490610  55.5608130  71.1165524  46.8769073
  49.5921469  33.5462403  59.1440725  50.1271009  33.2487273  58.4081793
  48.8228416  33.9433837  58.7358093  77.5084952  25.7208969  33.6293006
  77.7976064  26.2801029  32.9082346  76.7217330  26.1505081  33.9649653
  48.0315975  28.7426880   2.2288000  47.7711348  28.1574992   2.9400980
  48.9672283  28.8882855   2.3688805  53.0209732  56.9967079  51.2918520
  53.0449915  57.9179621  51.5505934  53.9155483  56.8032360  51.0116100
  78.2819700  40.9211349  53.7111044  79.0111351  40.5080366  54.1735935
  78.2575369  41.8150902  54.0524006  -0.3039841  40.2944708  44.8589802
   0.3849264  40.5352306  45.4783916   0.1582762  40.1380396  44.0355253
  42.7117971  36.9298676  16.7701876  41.7714552  37.1038512  16.7287409
  42.7742008  35.9900120  16.9405138  11.9462705  54.3171241   2.8819191
  11.8054938  54.4537522   3.8187992  12.1832776  55.1818230   2.5467264
  59.1394758  41.0287237  43.2332802  58.7348700  41.7768812  42.7942038
  58.4098005  40.5756521  43.6558104  58.4479952  40.7136679  58.0189705
  57.6616573  40.5124950  58.5263443  58.4566021  41.6689634  57.9592228
  59.9693584  56.9355583  57.4934387  59.5926714  56.1032724  57.2077179
  60.8881092  56.7341852  57.6711464  20.7927469  30.4520872   4.6787750
  21.7326407  30.2883175   4.6012461  20.4527477  29.6836785   5.1372254
  26.0479788  26.0446099  14.0191853  26.9868712  25.8590582  14.0023386
  25.7684330  25.7859162  14.8973429  35.8455348   0.2213146  49.9629021
  36.3058162   0.1437332  49.1272259  36.4766479  -0.0865029  50.6134272
  58.3280758   0.1885489   2.0634329  59.1410832   0.0758532   2.5559294
  57.9488663   0.9967068   2.4088490  61.2196016  27.9070210  52.7235508
  62.0866919  28.1605792  53.0399275  60.8571005  28.7098455  52.3489952
  73.5020399  50.4188919  64.6029043  72.8665829  50.6743240  63.9341831
  73.1558990  49.6022224  64.9627161  33.2187291   9.0367530  63.2656412
  33.5322114   9.9291251  63.4126960  33.8142749   8.4867547  63.7746226
  51.9180298  74.3363714  57.5858259  52.5193453  73.6876869  57.2199583
  51.9239330  75.0530958  56.9513941  77.6458577   3.1829359  20.0278187
  77.2105769   3.0236341  20.8653045  77.4280910   2.4178840  19.4953632
  55.4794073  62.7968264  58.3347082  55.6151962  63.0520201  59.2472124
  55.8501291  61.9163847  58.2745266  46.1263994  41.4018896  14.3891871
  46.5407614  41.6755370  13.5708630  45.5358891  40.6933001  14.1333925
  54.9794722  68.9332628  37.2958446  55.7082510  68.6690903  36.7343068
  54.6047831  68.1087542  37.6057220  63.0281548  49.5389870  16.0890448
  63.4489636  49.7244576  16.9285452  63.7105660  49.7019223  15.4378950
  61.8001842  39.1457605  62.6413298  61.7518663  38.5982203  61.8576860
  62.4612379  38.7223196  63.1889915  78.2595662  15.1755859  26.7514563
  77.7298526  15.5915691  26.0713148  78.1904010  15.7646991  27.5027156
  14.6042276   2.0580532  57.6069784  14.0294147   2.6492883  58.0930471
  14.2722869   2.0853330  56.7095900   0.4900078  65.3841066  38.1576133
   1.1811835  65.2290297  37.5138259  -0.1375933  65.9470320  37.7043295
  56.1214495  71.8900013  24.4523406  55.7570982  72.5925016  24.9908328
  56.8835831  71.5826797  24.9431920  53.9589027  56.0839775   4.7642100
  53.3599524  56.0030964   5.5064690  54.2968468  55.1983097   4.6315253
  55.1131280  10.3387337   8.2443583  54.8284419   9.5224075   8.6552059
  54.3020185  10.7574158   7.9562008  12.0896097  57.0251942  40.6829548
  12.7444025  57.1308851  41.3731098  11.3936659  57.6392841  40.9170103
  42.7145914  72.2311238  12.1716940  42.4459890  71.7614582  12.9613125
  41.9599203  72.1668270  11.5863955  78.7298135  16.7240383  29.1341400
  78.7741689  16.3649799  30.0203347  79.6239976  17.0092823  28.9462519
  20.5671525  10.7943012  45.6033325  19.7777057  10.4325630  46.0060263
  20.2700067  11.5946056  45.1703835  17.2057776  70.0128392   0.6769717
  17.1219067  70.9440163   0.8821499  16.8244938  69.9247769  -0.1965845
  75.0080470  23.4274532  52.6319981  74.7048644  24.3177272  52.8101158
  75.1876286  23.0581142  53.4966183  20.4156347  48.5759544  29.1948032
  20.8910605  48.4345007  30.0134540  21.1003729  48.6529970  28.5304046
  41.1657020  27.0981715  51.3671947  41.9419213  27.1894572  51.9198096
  40.8895179  27.9976962  51.1916769  52.0920420  73.5849810  29.8758745
  51.3651657  73.1762171  29.4059801  51.7087221  73.8765383  30.7030964
  25.7388929   2.4574068  13.7525093  26.6110853   2.0648483  13.7901270
  25.8761887   3.3061531  13.3317768   7.8025127  11.6277839  28.3979583
   8.3689523  11.1083366  27.8273892   7.6278615  11.0568763  29.1461492
  17.9073644  66.9934728  13.8386404  17.1753574  67.5643184  14.0721667
  18.6308837  67.5935580  13.6579573   5.3525587  54.4154930  37.7293539
   5.5462786  54.6852255  36.8316078   5.4342028  55.2186489  38.2436562
  63.2204676  53.8480854  30.3785348  62.3293638  53.7899303  30.7231927
  63.7347174  54.2042923  31.1030293  65.6797794   3.9869860   2.4151528
  66.0353283   4.8090104   2.0773756  65.2852635   4.2236403   3.2545483
   6.9198445  67.4506596   0.7231056   6.1016420  67.8932789   0.9486496
   7.5288538  67.7052525   1.4163029  42.1907759  71.7666197  36.7575598
  42.3196507  70.9828758  36.2233615  41.3013411  72.0537376  36.5509081
  13.0728603  18.3588268  34.9602962  13.6318612  19.1094543  35.1610541
  13.5960651  17.5970603  35.2096891  75.5884007   3.0307008  26.5519834
  74.6616153   3.2170774  26.4017630  76.0219935   3.8785364  26.4550018
   3.2052875  12.3588897   0.8417059   2.4572015  12.5564910   1.4052226
   3.8508773  13.0324222   1.0557376  19.3044809  40.9098271   2.2670948
  19.1489081  40.6052998   1.3730633  20.2496819  41.0547760   2.3096812
  72.2495822   1.6059209  56.7611742  71.7582253   1.4370920  57.5651026
  72.5572041   2.5076391  56.8533802  38.3463498  60.0897620  62.6801037
  38.3314248  59.1362403  62.5976481  38.5307237  60.4038642  61.7949015
  54.6935749  59.0117979  62.9781580  53.8287544  58.7783432  63.3155107
  55.2983856  58.7637663  63.6773825  38.0597758   5.7740451  31.5268350
  38.6291003   6.2925483  30.9582806  37.9815459   4.9300767  31.0820675
  36.7129874   0.8376409  17.2297108  35.8567882   1.2533809  17.3312747
  36.9254089   0.5101491  18.1036997  35.8093619  12.1184684  50.3715515
  34.8727584  12.2692920  50.2441120  35.8856368  11.1716033  50.4893255
  59.2339754  46.6558552  52.9087400  59.2223597  47.0963573  53.7584734
  58.6374283  45.9148455  53.0149221  51.3558245  71.7498255  38.1388021
  51.1711311  72.6723671  38.3149815  50.9528589  71.5833759  37.2866607
  10.3591228   1.2379552  55.5839586  10.5750585   2.0898725  55.9632254
   9.4393897   1.1009027  55.8109713  44.6112017  59.2299393  12.4473345
  45.0816874  60.0540760  12.3221314  44.8429731  58.9541748  13.3341658
   3.5347533  17.3583366  62.0911789   2.9812980  16.8705799  61.4812565
   4.1428399  16.7052700  62.4375391   2.6512476  47.5116920  35.7098937
   3.0852648  47.0853424  36.4488721   1.8750425  46.9759464  35.5464411
  75.6625414  67.0741415  47.4339914  74.7916031  67.2585249  47.0822716
  75.6507397  67.4522591  48.3132601  43.4754562  70.3845549  59.1091013
  43.0548716  70.2109528  58.2669592  44.2563200  70.8915854  58.8868332
  20.7903314   1.0823442  53.0856180  20.1949000   1.7151977  52.6841354
  21.2986446   1.5963603  53.7130260   9.7803064  39.4229436  24.1202188
  10.2873369  38.9897585  23.4335589   9.9416681  40.3565979  23.9842415
  20.1693007  53.1656265  53.8922834  19.5151850  53.4994364  53.2783413
  21.0061308  53.4650612  53.5369205  77.1799544   5.9572269  58.8520622
  77.7374009   5.5246211  58.2052660  77.7930621   6.3300086  59.4855928
  38.0693916  28.1871870   7.3400175  38.1448273  27.7597550   8.1931507
  38.7293963  27.7561978   6.7969954  28.8058523  49.2586068  12.7181637
  27.8634218  49.4250039  12.6990330  29.0048937  49.1144780  13.6432802
  29.3199209  52.8336266   0.9545624  29.3147854  52.7549199   0.0006211
  30.2402596  52.7342347   1.1981404  57.8864050  68.0755424  54.5947981
  57.4811506  68.4053755  53.7927961  58.6862421  68.5928106  54.6892357
  63.5724668   8.9440776  44.6282673  63.5701446   8.2801773  45.3178072
  62.8365354   9.5166542  44.8445892  68.2082108  28.5331584  60.1698637
  67.5975446  27.8732254  60.4982090  67.6841954  29.3312122  60.1010323
  77.0620278  35.7195331  52.5588179  77.0427779  34.7720005  52.4244785
  77.1198014  35.8256866  53.5083580  76.9047554  35.4070118  29.2465174
  76.3714631  35.3886488  28.4518492  76.7031510  36.2508896  29.6508181
  76.6486502  72.1026373  64.3155766  77.5502634  72.2320986  64.6097946
  76.7114735  71.4258099  63.6416435  37.1942572  37.5259426   0.1878416
  37.9584507  37.4664906   0.7611668  37.1812872  36.6916731  -0.2812612
  69.4631076  15.9884025  45.5606604  69.3565250  15.9467174  44.6103287
  68.7026000  15.5220844  45.9076500  12.6699817  65.2846098  58.9774179
  13.5689068  65.4013634  58.6699533  12.1293354  65.4489899  58.2048178
   0.7294556  71.1924744  47.2449207  -0.0703148  70.9395838  47.7060509
   0.6634041  70.7576609  46.3947392   7.4160743   7.9480888   1.0634405
   7.4509263   7.0269634   1.3213986   7.8532338   7.9751731   0.2123300
  41.6821341  48.5611752   0.0150978  41.2784676  49.1099766  -0.6572807
  41.0196690  48.4992436   0.7032358  70.7394743  71.7171574  27.0481324
  70.2254963  70.9108305  27.0046353  70.7967281  72.0139837  26.1399198
  58.8761500  14.1009475  40.4679966  58.0699185  13.6998130  40.7925129
  58.7325052  15.0420238  40.5679369   8.9004254   2.4624587  18.2609606
   9.4834876   3.1645347  18.5496795   8.3557391   2.2739936  19.0251780
   1.4628244   5.6796409  41.4211369   2.1138549   5.4557277  40.7561159
   0.6485343   5.2932931  41.0988045  69.7926617  52.6242399  29.9125457
  68.9681196  53.0750513  30.0945640  69.5532036  51.9218302  29.3079662
   2.2742506  60.8621645  57.9922485   1.7559000  61.3865471  58.6026239
   1.8162771  60.0227594  57.9488516   6.3120218  58.8830042  33.7360549
   6.9929072  58.6624861  34.3716621   6.2864920  58.1326008  33.1423593
  14.8413035  72.0750427  59.0325546  15.1965281  71.3224459  59.5054626
  14.2157885  71.6963005  58.4148836  35.9596304  39.4459656  15.6137144
  36.1998228  39.7641686  16.4839422  35.8762936  40.2385119  15.0834715
  51.8958477  55.5851582  11.8456471  51.2901167  56.0728005  11.2875044
  51.3751940  54.8574570  12.1856701  34.4810176   4.2299415  61.1550188
  34.3352580   3.6550809  61.9063663  34.2367053   5.1006652  61.4686918
  15.2088209  41.8864393  33.3496189  14.5087477  41.9348192  32.6986289
  16.0130640  41.8351603  32.8330994   7.7085634  51.2049723  52.4809456
   7.5465437  51.9536066  53.0549955   8.5745760  50.8887672  52.7383614
  72.9001407   6.4516784  45.5174303  72.9000930   6.2098361  46.4435768
  72.4087790   7.2724582  45.4841900  31.6406870  69.2306662  57.4323177
  31.0762429  68.5873985  57.0035553  31.3478208  69.2366457  58.3435965
   8.4553027  22.4702312  46.3806677   8.4181428  23.2279445  46.9643784
   7.9566360  22.7378894  45.6087065  77.5578983  23.0490759  14.4991457
  78.2420643  22.4044064  14.6795666  77.0255692  23.0623654  15.2945578
  73.5844640  30.5625583  44.9437237  73.0663470  30.2838279  45.6987667
  73.4685353  29.8619510  44.3018961  63.7250805  55.8801746  56.2422132
  64.2593098  55.1285839  55.9854364  64.2971087  56.6364431  56.1115599
   9.9914213  44.4199705  64.2464399   9.6276995  45.3040934  64.1988754
   9.5194384  44.0053368  64.9686146  39.8721957  28.5854579  63.9635706
  40.5053878  29.2304374  63.6484528  40.3766227  28.0209876  64.5493650
  29.1248945  59.0555504   6.3546574  28.9687685  59.2867020   5.4390013
  29.6884398  59.7549752   6.6855109  72.4608374  73.8441944  48.5206842
  72.7404737  73.0630445  48.0433607  72.6142979  74.5655060  47.9104519
   0.0986525  61.8594265  21.6888332   0.1996561  61.5505505  20.7884836
   0.3534599  61.1112213  22.2287345  26.6499734  16.2253143  56.7246389
  26.0957122  16.8594600  57.1794891  27.3432231  16.7535545  56.3289118
  10.9941650  12.9221012  45.4656124  10.1400495  13.1887199  45.1255608
  11.5589738  12.8869583  44.6936131  55.7569599  69.0066004  56.1691713
  55.8535910  68.3689690  56.8765020  56.2516928  68.6324215  55.4401541
   1.0484739  51.1164665  41.5887403   0.8205696  51.3252592  40.6828213
   0.8096977  50.1950216  41.6895103  44.4841099  71.4700460  49.0645885
  43.9395905  71.2808228  48.3004379  43.8779020  71.8441677  49.7039413
  60.6766319  50.9853029  52.4962807  60.8109474  51.8615961  52.8572655
  60.1357794  50.5383587  53.1473923  72.0079041  51.2463522  46.8255520
  72.1845388  51.2917471  45.8858871  72.8140545  50.8955812  47.2041273
  10.5067805  59.6239880   9.4932282  10.6936554  58.7244156   9.7617018
   9.8856143  59.9449089  10.1469767  54.5200161  26.8048812  47.6258039
  53.9344911  26.9693519  46.8866539  53.9993934  27.0268108  48.3977699
  13.0155540   9.2486812  34.4617152  12.4503064   9.9791862  34.7128773
  13.6619640   9.6375896  33.8725305   6.2065864   6.0103466  53.2101011
   6.9475579   5.8076431  53.7811565   6.3274121   5.4413845  52.4498940
  37.6763535  64.4090986  30.0987434  38.4924293  64.6628428  30.5298662
  37.7895713  64.6862221  29.1895580  68.4043411  52.6706723   7.8416741
  67.8521446  53.4470776   7.9338610  68.4717564  52.5355652   6.8964541
  12.6454612  60.2682434  23.3120632  13.5556503  60.1695190  23.0327010
  12.2308537  59.4386946  23.0750370  67.2428512  64.4244276  41.8578768
  67.8570235  63.8294457  42.2880125  66.3926458  63.9927422  41.9417238
   8.2335278  71.1345135  21.4427829   8.1109472  71.6992121  22.2058845
   7.5407311  71.3971205  20.8367324  55.6093482  63.3810117  19.3370497
  54.6589927  63.2667615  19.3388808  55.7631830  64.1175224  19.9287569
   5.8029696  45.6279419  47.4017334   5.8645865  46.1485599  48.2026052
   5.4948398  44.7709034  47.6963043  49.7584506  73.1507127  35.5789304
  50.1307412  74.0040416  35.3565335  49.3821355  73.2733676  36.4504671
   0.3544994  53.9777993  45.1013517   1.1413547  53.6348890  44.6776724
   0.5248996  53.8799189  46.0381603  10.9293123  53.8400172  39.0067458
   9.9877139  53.6679028  39.0056920  11.3315173  52.9718231  38.9802027
   7.9978033  48.7069844   4.2142090   7.3383208  49.3382166   3.9263543
   7.7174898  48.4517382   5.0931323  10.6905878  11.8196166  63.8931274
  10.9992087  12.2020209  64.7145605  11.2657714  11.0684705  63.7476110
  54.8601893  38.6424905   3.3385336  55.2084974  39.1932668   4.0396464
  55.5355553  37.9790617   3.1971943  62.3012141   1.6561188  59.5272589
  62.5583092   2.5511673  59.3058491  62.1774725   1.6702889  60.4763174
  40.2523700  37.3888593   4.3265402  39.8692433  38.1548360   4.7540056
  41.1346809  37.3266665   4.6924555  21.6193676   6.6330433  28.7231278
  22.4718118   6.2046051  28.8006568  21.8228149   7.5183135  28.4212375
  21.9775391   2.8370187  31.4344788  22.6457882   2.7856559  30.7510781
  21.9957614   3.7507439  31.7190933   3.3434983  72.5516740  49.9613667
   2.8683945  72.8584169  49.1890860   3.9925667  71.9389992  49.6155739
  15.1493764   4.2672223  43.7138176  15.7214355   3.5967427  44.0872288
  14.2704165   4.0185159  43.9998388   6.8565413  53.9854883  33.0864453
   7.5384160  53.4649871  33.5111260   6.7583796  53.5904883  32.2200894
  58.2203400  73.8004504  38.0455732  57.8080481  74.5596917  37.6335049
  59.1112000  74.0895030  38.2431793  14.2674371  64.2261671  22.2701335
  14.6203919  64.0300439  21.4022684  13.3176776  64.1976975  22.1544695
  38.1007147  35.8331943  11.9871414  38.9207721  35.3984618  12.2211266
  38.1498241  36.6858339  12.4193752  21.8920537  62.6145028  48.7032080
  20.9652587  62.8293918  48.8085842  21.9934341  61.7697702  49.1418171
  49.3016815   3.3012873   5.8654320  49.8627853   3.6522028   6.5569919
  49.3202925   2.3537250   5.9996378  40.9164238  17.2598279  54.5860052
  40.0898743  16.8854821  54.8908234  40.8118057  18.2033229  54.7089052
   4.1956349  70.7487305  63.0526447   3.3360930  70.3295119  63.0117226
   4.3275472  71.1106770  62.1763849   0.2351492  12.3885846  46.5717411
   0.7350221  12.5090742  45.7643747   0.7250682  11.7271435  47.0603180
  43.7229315  37.9782034   2.8618777  44.6720985  37.8544537   2.8627360
  43.4581713  37.7938195   1.9606888   2.4398793  25.1871991  20.5750918
   2.6823890  25.6365085  21.3847494   2.6187766  25.8251953  19.8843038
  48.1254629  57.2918679   7.4065268  47.3007349  57.7697899   7.3190892
  48.7910179  57.9028251   7.0902979  61.1016897   7.3705155  62.4799013
  61.2526647   7.4111098  61.5355587  60.1620392   7.5236893  62.5790358
   3.1190857  45.9852695  24.7779942   2.2326517  46.1143303  24.4406390
   3.0700082  45.1679945  25.2738619   7.4219199  72.5560258  56.4305210
   6.4998718  72.8027319  56.5026093   7.7370068  73.0293585  55.6605148
  73.5136914  44.9426983  51.3415575  74.1233683  45.6284379  51.0690022
  73.6927318  44.8197197  52.2737885  39.1441393  14.7249842  50.2221107
  39.3056178  15.4249454  49.5894909  38.6233711  15.1393771  50.9100866
  67.3558485  72.4603081  30.0567937  67.9216945  73.1628619  30.3768992
  66.5110421  72.8837933  29.9044943   4.6263643  52.4603270  14.2311537
   5.3694888  53.0265020  14.4395852   4.0271135  52.5701402  14.9694419
  22.0528889  16.0455060  31.6113758  22.9438639  16.1888647  31.9305062
  22.0758748  15.1716721  31.2213540  42.2334051  24.9064612  59.1468239
  41.3813162  24.7415042  59.5505190  42.8387403  24.3398213  59.6250725
  14.2578145  74.1035823  24.8379803  14.1497823  73.2290894  25.2119088
  13.4419437  74.2637415  24.3637061  27.6832934  69.1477208  33.4855509
  28.6127206  69.0860401  33.2651091  27.6343843  68.8645099  34.3985844
  23.3580327  11.0622323  46.2947750  22.4314523  11.1565113  46.0738802
  23.7983489  11.7319667  45.7715082  16.8542469  26.2112546  60.7759428
  16.9807732  25.5585790  60.0872946  15.9254479  26.4368749  60.7243729
  38.7710381  28.2469630  20.9228539  38.0081534  28.7875581  21.1277795
  38.6191201  27.4290252  21.3962770  44.0983122  73.8340718  35.7001781
  44.4725370  74.0742216  36.5478325  43.4729892  73.1382948  35.9029055
  69.9606005  23.2949901  45.0093889  69.4207660  23.1177568  44.2390680
  70.8386252  23.0088615  44.7575283  69.1386628  30.6515358  29.4667220
  68.6325121  30.9995507  28.7326050  69.6079183  29.9020814  29.1001916
  49.9888497  73.5506272  25.5088925  49.8430905  74.2690560  24.8933864
  49.1346121  73.4071950  25.9162450  71.4252210  32.2931336  35.3950787
  71.1609256  32.7579497  36.1890101  72.0449579  32.8837155  34.9668598
  14.0182614   7.8626758  41.0571337  14.2807627   8.3835208  41.8161106
  13.7106168   8.5068184  40.4194307   0.1226932  27.8185177  16.8727458
   0.2434307  28.3097291  17.6853752   0.8137352  28.1399703  16.2936425
  13.6461735  12.6562333  55.9449720  14.3191385  13.2582188  56.2627220
  13.0469048  12.5549865  56.6844702  19.3389559  15.3442824   1.3153587
  18.8496888  16.1596584   1.2057618  19.1688454  15.0826669   2.2202626
  48.6791468  14.4924009  52.1530294  47.8240252  14.2415583  52.5024271
  48.6789799  14.1577768  51.2562275  44.7263130  14.3255302  61.8871346
  44.4916662  13.4052774  61.7675272  44.1174944  14.6432277  62.5539476
  60.1571611  21.3934922  35.3476381  59.7703246  22.1799326  34.9628019
  59.4243792  20.9512615  35.7762361  20.4529115  55.0544916  19.9250960
  20.5456706  54.4538663  20.6646061  21.1458274  54.7953473  19.3176877
   7.0786091  45.0137089  56.7750216   7.8713938  44.6006654  56.4327908
   6.9558116  45.7880519  56.2258863  78.2421894   7.0772785  46.3297415
  77.3668656   7.1689713  45.9534025  78.0873226   6.9243652  47.2618723
  67.2491614   3.4212062  42.8461933  67.8682140   3.9611143  43.3376217
  66.4801470   3.3623153  43.4130955  60.6079654  56.6767420  11.4834320
  60.9768847  57.4974396  11.8099129  59.8059348  56.5557279  11.9916975
   5.9481529  56.4577701   5.5699074   6.7697624  56.5454032   6.0531342
   6.2074880  56.4882650   4.6490109  77.8667503   1.0244403  18.4205294
  77.5077801   1.1240412  17.5387967  77.2302427   0.4747166  18.8775790
  25.5573249   2.3114988  33.9173627  25.1134920   1.5041147  33.6577940
  24.8472905   2.9243118  34.1085291  16.9787681  26.0141087  27.8683782
  17.4573398  25.1851320  27.8684354  16.0620165  25.7614160  27.7590871
  59.1229761  68.7082647  27.6999164  59.6635932  69.0479969  28.4130430
  59.7518217  68.3634053  27.0659947  22.5739932   0.2691948  19.6053684
  23.1832552   0.4031596  18.8793623  22.1402431  -0.5600210  19.4041407
  22.7232806  55.5122640  22.4748289  23.1708015  55.8689036  23.2421362
  21.8873853  55.1909818  22.8128969  29.8881698  18.2927513   1.4710465
  30.3488755  17.8071105   2.1552496  29.5121384  19.0471375   1.9246255
  59.0331510   0.8663722  51.5355062  58.7733010   0.1073103  52.0575523
  58.4902696   1.5818858  51.8664885  30.4870626  56.2886964  24.0762949
  30.9449168  56.0751341  23.2632780  29.5630761  56.1367093  23.8778591
  71.8210971  47.9325055   2.4378271  71.3352680  47.7682375   3.2460463
  71.7830205  47.1024917   1.9625792  66.0473839   7.4860936  59.8557901
  66.8297378   7.9626799  60.1333141  66.0227255   7.5988501  58.9055777
  62.8028715  68.5962503  35.2593827  62.9639959  69.0613286  34.4384241
  62.1025187  69.0929078  35.6825471  59.9175477  73.6296238  32.6079607
  59.3072700  74.0577078  33.2084084  59.4665706  73.6353879  31.7636752
  58.8583469  34.1030884  57.5306082  58.8171864  33.1981230  57.2214556
  58.8436604  34.6300316  56.7316437  72.4631178  50.2359198  13.1940615
  72.2906828  50.5598997  12.3100162  72.8958344  50.9661006  13.6365831
  69.8101755  54.0024885  63.8452054  70.1104875  54.8726210  63.5826954
  69.7828384  53.5023591  63.0295123  16.1429358  49.7268653  13.7414229
  15.9106302  49.0890956  14.4163382  15.5765009  50.4782796  13.9168226
  67.6314525  10.8860566  18.5388911  67.5061349  11.4378216  19.3109572
  67.1264104  11.3189628  17.8505957  72.4792842   7.8849488  20.7400012
  73.0908576   8.1457019  21.4286375  72.4119321   8.6549205  20.1753449
   1.5850540  72.5531653  52.6327324   2.4524900  72.4449900  52.2427511
   1.4663931  71.7721842  53.1733036  40.5227709   4.9181509  29.3441415
  40.8541250   5.8143181  29.2865086  40.7955599   4.6172053  30.2108860
  78.3644771  43.2599138  31.5641809  77.6466656  43.6376737  31.0559750
  78.1768656  43.5126446  32.4681520  23.6741468  66.8312906  19.6757269
  23.7468978  65.8803921  19.7577739  24.5503017  67.1171056  19.4170892
  19.6253701  64.9342631  45.5094290  20.1190873  64.1273092  45.3634834
  19.0351029  64.9930970  44.7581959  42.2875968  45.9898128   4.5177471
  43.1113008  45.6183841   4.8336327  42.4762742  46.2615838   3.6195433
   6.1313649  59.4340788  29.2566323   7.0790406  59.4154535  29.1232371
   6.0028645  60.0522338  29.9760795  64.1884625  67.0824514  39.8778105
  63.2967496  66.7385094  39.8250628  64.0803337  68.0331956  39.8527813
  35.9510159  29.6348810  61.2900925  35.5084562  29.4861078  60.4544878
  36.6617084  30.2407575  61.0801840  44.3068123  13.6863184  25.1988482
  45.1175022  13.9195299  25.6512094  43.6178493  14.1175354  25.7044291
  38.6364031  40.4152775  57.9903650  39.2871571  39.7149014  58.0375528
  38.0521464  40.1518536  57.2793913  67.1902160  32.3752062   3.5759175
  67.2109727  31.9471719   2.7200043  66.4290170  32.9541685   3.5357773
  53.8127665   6.0967329   7.2498905  54.4767927   5.4208878   7.3860323
  53.4450561   6.2499979   8.1202519  21.5510774  20.1117873  35.1106215
  21.1488128  20.6483364  35.7936525  21.0725999  20.3402615  34.3136978
  27.1359986  64.0630581  13.5436642  27.6465512  63.2643463  13.4108937
  26.3816335  63.7818219  14.0614187  53.8313703  40.0485291  10.0556051
  53.5641579  40.9402593   9.8327887  53.0176071  39.6093808  10.3029310
   0.3471419   9.1401809  31.4783978   0.6445181   8.2682985  31.2183595
   0.4709680   9.6785140  30.6966710  33.9876413   0.8839015  18.2174385
  33.0662465   0.9602251  17.9695678  34.0496874   1.3453141  19.0537882
  36.4479085  70.6577142  40.8064604  35.5613586  70.8809413  41.0900545
  36.5511676  71.1066978  39.9674249   8.9135712  21.3558412  38.1508374
   9.7265166  21.4909911  37.6639223   9.1619623  21.4702392  39.0681410
  35.6704831   1.1635598  43.4846544  35.0402832   0.7402144  44.0676308
  36.5187383   1.0204346  43.9044285   1.4727589  66.9623946  32.7326369
   1.3806387  67.9148881  32.7102351   2.3429199  66.8145667  33.1030416
  11.5160557  64.4618820  40.2941847  11.3794728  63.5195349  40.1964045
  10.7158133  64.8570500  39.9482250  21.4723607  56.0643374  53.3108330
  21.8399402  56.8898319  53.6265469  20.5562564  56.0888372  53.5872126
  40.3285551   7.6302761  13.5359728  40.9386301   7.9273611  14.2110872
  39.5527577   8.1778580  13.6564791   4.3121982  26.1551310   1.0660660
   4.7440505  26.6072382   1.7908633   3.9615369  26.8586423   0.5198586
  27.7181673   6.3682920  24.6763682  28.1986618   5.7251227  24.1551304
  27.1581483   5.8430964  25.2480149   4.6916619   8.5210508  61.8749285
   4.3517134   7.6281863  61.8161058   4.9103469   8.6336160  62.7999878
  22.8136607  60.4240047  42.5651789  22.3712941  60.5970048  43.3962107
  22.1321174  60.5379318  41.9027948  19.8528564  27.0622730  49.7849846
  20.2253151  26.1933804  49.6348810  19.0567350  27.0766377  49.2537451
  19.5421219  28.1944966  21.5087819  19.8057806  28.8841701  20.8996296
  19.1534472  28.6630726  22.2474289  23.1669688  17.5779760  42.8501320
  23.5154843  16.7256665  42.5887203  23.8510537  17.9575276  43.4016705
  44.1797153  38.8371280   9.3665945  43.9991585  39.4874782   8.6878598
  45.1190165  38.9181044   9.5320856   1.1926218  71.3990747  38.0991340
   1.8781420  71.1005773  37.5014782   1.2171360  70.7735600  38.8232613
  39.4116521  17.5654113  27.7947974  39.3901968  16.6177964  27.9282045
  38.4905076  17.8234828  27.7612734  52.3111391  16.9501841  56.8611336
  53.1753826  17.0164883  57.2672415  52.4286270  16.3211405  56.1492825
  39.4435835  12.9106975  52.1703148  40.3619194  12.7693427  52.4003363
  39.4673181  13.2051897  51.2598515  23.2247993  66.4309673  51.1087799
  24.0372964  65.9297769  51.1787271  22.7729627  66.2715565  51.9374323
   6.4070833   6.2765473  36.1794829   6.6411108   5.9497052  37.0481825
   6.5170377   5.5212921  35.6017900  44.5464659  13.4826624  41.4471674
  45.1469231  13.0897152  40.8137035  45.1058912  14.0256488  42.0025396
  62.8332476  51.8507912   1.0168469  63.1226782  50.9714164   1.2600767
  63.3136538  52.4325504   1.6059124  38.2901219  70.5264737   5.3887331
  37.7663115  71.1202552   5.9265768  38.1766979  69.6689751   5.7986891
  54.3761635  10.9638739  21.5931201  55.3117752  11.1177588  21.7241859
  53.9594936  11.7851830  21.8540215  61.2718433  55.0121270  47.2974730
  62.2272670  55.0441633  47.2487831  61.0726273  54.0969013  47.4947214
  30.9488387  31.8716272   1.6898072  31.8067090  31.6681482   2.0624792
  30.7885108  32.7814146   1.9404328   6.2813956  17.7130127  30.6793451
   5.7346046  17.0247555  31.0582280   5.6902385  18.4586740  30.5756354
  78.0559778  69.8283573  63.2328510  77.7542829  70.3637125  62.4989510
  78.3873963  69.0281765  62.8252935  36.8811822  15.6534266  47.7509785
  36.4536881  14.8441780  48.0313301  36.3996100  16.3472068  48.2015276
  35.5756855  17.9202950  48.6212683  35.0873542  18.4159350  47.9639196
  35.2734780  18.2710803  49.4590330  78.7259722  23.9945579  35.3120613
  78.2782078  24.4966984  34.6311831  79.6412373  24.2673755  35.2480698
   8.1156212  10.0933111  19.3653345   7.5850564  10.4166400  20.0934768
   7.5772375  10.2485144  18.5892630  26.2810493   6.8880266  34.9025869
  26.1493635   6.2346834  35.5896330  26.9764400   7.4529999  35.2394390
  16.5727079   3.7160650  39.3804955  15.8564675   4.1272807  39.8643684
  17.3525453   3.9010552  39.9038172   2.7285358  63.5838567  60.7649040
   2.4474736  64.2905890  61.3460779   1.9129773  63.1999944  60.4428053
  15.2737689  72.9940939  48.1545782  14.5639420  73.4302807  48.6258698
  15.2219963  73.3448887  47.2654819   2.4995256  50.5505790   6.1564314
   3.3058667  50.5318739   6.6718876   1.9783855  51.2491335   6.5522396
   1.3584365  40.2110529  46.9426203   1.9648488  39.5111847  46.7003775
   1.8301859  40.7188988  47.6027536  32.9126692  28.2171774  57.6636982
  32.8835154  27.5326371  58.3321238  32.0051551  28.3066392  57.3727512
  11.4134634   5.9919864  40.6753683  12.1317601   6.2298232  41.2616396
  11.8392026   5.5438888  39.9444890  73.5879135  56.9876395  33.8397098
  73.2587218  57.8483616  34.0985942  74.3270802  56.8275140  34.4264150
  40.0589514  66.6026354   5.0773972  40.4620028  65.9795713   4.4727656
  39.7292280  67.3033047   4.5147496  19.6770211  70.1740055  47.8964567
  19.3796130  69.3258225  47.5672626  19.1833850  70.3030659  48.7063313
  10.1859518   5.3275007  43.9796352   9.4858404   5.3354448  44.6323299
   9.7533461   5.0636518  43.1675577   7.8420993  67.4268161  30.7490230
   6.9533607  67.3971002  31.1032701   7.7398392  67.8088664  29.8773503
  71.8804196  38.4156818   3.7797510  72.4934129  37.6806803   3.7641823
  72.1406917  38.9604013   3.0369389  74.1950631  66.9823121  39.2091346
  73.5680222  66.8230359  39.9146008  73.7024045  67.4837946  38.5594916
  10.7529048  26.5244915   2.6143038   9.9976865  25.9651460   2.4326193
  11.2498263  26.0475304   3.2789910  74.1148996  74.0195179  45.9264612
  74.9261427  73.7742382  46.3713837  73.8507008  73.2284235  45.4567814
  62.1001979  19.9462506  64.5548174  63.0420395  20.0886807  64.4605659
  61.8559404  19.4393775  63.7804473  27.4015260  14.1562021  18.0655611
  27.3988509  14.4623733  18.9724708  28.0289173  14.7269893  17.6219213
  20.1428628  10.6970334  63.5710859  19.4778550  10.2055883  64.0532446
  20.7034469  10.0248337  63.1836271  23.4045526  51.9095777  28.5228634
  22.8401204  51.3251780  28.0167770  22.8924247  52.7123998  28.6199880
  48.1551453  56.5032181  61.9731385  47.7810355  56.3326642  62.8375364
  49.0759011  56.2555966  62.0575574  42.4205875  13.4558713  34.0492010
  42.0671415  14.2354417  33.6207438  41.6658592  13.0582011  34.4833350
  55.1646968  52.0947979  10.4222047  55.3229972  51.2672161   9.9680227
  54.6606608  51.8495797  11.1981249  10.2703186  62.9132544  34.3578529
  10.3404661  63.6204599  34.9990773  11.1555549  62.8205370  34.0057325
  17.8334069   6.9538534  54.4990206  17.5393641   7.6615995  53.9255524
  17.0366526   6.4641207  54.7029257  51.0256700  63.8938453   6.2072289
  51.8553165  63.4276034   6.3098728  50.9000758  63.9535858   5.2601874
   7.1959802  72.1088119  27.9363894   8.0250855  72.1732579  27.4624014
   6.7694660  72.9529254  27.7887797  73.4114388  59.7483565   1.8523705
  74.0448312  59.0458896   1.9993126  73.9457587  60.5371310   1.7597973
  15.1019259  56.9627963  16.1631393  15.8941718  57.3504423  16.5350401
  15.1167651  56.0537635  16.4625895  67.0683443  64.5612107  26.6702342
  66.7953908  64.8690508  27.5345039  66.2484813  64.4092189  26.2001753
  48.8365249  26.4028503  12.3769963  49.0675978  25.7714297  13.0582773
  48.2463769  25.9229769  11.7958939  56.6504744  34.2769595   3.6023295
  55.7087592  34.4390227   3.6583578  56.7456988  33.6691876   2.8689968
  20.8806229  22.6196933  41.1491346  20.4459667  21.8581867  40.7651901
  21.2700534  22.2901249  41.9590473   6.7850667  32.4053669  37.3310018
   7.4313980  32.1973491  38.0057001   6.7381895  31.6153669  36.7925429
  12.4989919  33.7483140   9.8324024  12.8975121  33.0637466   9.2950213
  13.2312898  34.1288369  10.3173506  77.3751306  69.3286823  32.2291398
  77.9448700  69.2788778  31.4615798  77.9769492  69.4041924  32.9696417
   4.7837111  65.7418202  37.6317072   5.3731557  66.4090888  37.9831886
   5.1415607  64.9136464  37.9515600  64.7864584  68.7606861  17.1633017
  64.2950682  68.0317404  17.5419962  64.2263631  69.5245196  17.3014319
  22.9259320  68.7397371  24.5232296  23.7125560  68.5264872  25.0252008
  22.9983779  68.2112347  23.7284541  51.4469385   8.1522799  63.2636213
  50.8562183   7.5711292  62.7845097  51.1871624   8.0555105  64.1798019
  23.7951612   8.2839501  38.8158107  23.7284303   8.6530739  39.6964502
  23.3597064   7.4338663  38.8787937  64.2706740  59.8272394  39.8117208
  64.4272303  58.8873313  39.7206473  63.9125931  59.9260329  40.6939030
  34.0634394  10.7214367  47.9205418  34.9414134  10.7588732  48.3000040
  34.0788460   9.9478304  47.3570442  25.1354074   5.8230644  41.3543844
  25.6919050   5.1791954  40.9162378  24.2806101   5.3970289  41.4180136
  67.1229649  12.3940849  43.6701584  66.3540268  11.8902647  43.4034634
  66.7749691  13.2525134  43.9114714  12.4306127  67.6945524  51.7024851
  12.0599910  66.8687450  51.3911772  13.3765670  67.5835560  51.6071796
  46.1301279  14.0613616  29.1476560  45.8451509  14.8958802  28.7753677
  47.0087528  13.9280272  28.7920308  19.3932124  66.5480726  48.6633825
  19.2003127  66.8987773  47.7938843  20.1084729  67.0946305  48.9888191
  77.6205128  21.1388803  53.8051414  78.4451655  21.6097903  53.9252424
  76.9728572  21.6672254  54.2716455  34.5821404  67.1225171  51.4178610
  33.7136841  66.8369864  51.7015648  35.1146769  66.3274329  51.4397240
  16.9395304   2.5434980  45.0858021  17.8610337   2.7850425  45.1791811
  16.8564808   1.7232066  45.5720711  51.8736124  23.9908314  49.1899157
  51.0288811  24.4161415  49.0423536  51.7181396  23.3981323  49.9252892
  25.8157989  61.5056001  38.4782839  25.4115983  60.7968830  38.9788580
  26.6146298  61.1196576  38.1189013  48.9415836  42.5692749  49.3364477
  48.1481886  42.0348501  49.3025541  48.7562084  43.2312059  50.0025654
  22.2723699  18.0013251  61.1465168  22.4842548  17.6655257  60.2755547
  22.6070452  17.3359048  61.7477179  41.1010504   8.1128043  45.6200695
  40.5366278   7.8237164  46.3370705  40.5887032   8.7824851  45.1670122
  62.7675009  13.0695641  51.4234877  62.5791168  13.1199086  50.4863596
  63.4900188  13.6833024  51.5558624  48.4132576   7.8911418  54.4232321
  48.1548882   7.1919215  55.0237036  49.1953802   7.5545138  53.9859724
  67.1404771  47.2036036  22.0536768  66.4067964  46.5998341  21.9379008
  67.7483872  46.9797351  21.3490069  35.8674812  28.0073786  15.9024346
  36.1207223  28.7942028  15.4197264  35.0212669  28.2273531  16.2920022
  72.7209258  56.3815020  53.8655519  72.0081723  56.5795921  54.4729853
  72.5365019  56.9201349  53.0960751  65.5659656  45.8156355   3.3803141
  66.0263208  46.3518586   4.0258896  65.7961801  46.2056829   2.5370466
  29.0765262  36.1576080  26.8830609  29.6889281  36.7706847  27.2896695
  28.4335566  36.7158866  26.4458513  35.2365613  44.2857265  30.8095026
  35.8427024  43.7140465  30.3383231  35.3230262  45.1351213  30.3767395
  24.3908930  10.9865940  27.3335600  23.7663913  11.0927165  26.6159463
  25.2035832  11.3687491  27.0023084  77.6963258  53.5288476  34.9093032
  78.5848236  53.8421939  35.0784779  77.8074360  52.6063942  34.6791625
  40.7874338  71.3282968   0.4358542  39.9937049  71.3502361  -0.0986994
  41.4246062  71.8422033  -0.0602710  36.8785620  13.2400370  62.8075790
  36.3204551  13.7176025  63.4213209  36.8560243  13.7632978  62.0063782
  68.9282668  58.2950746  40.0355911  69.1349852  57.5321959  39.4956708
  68.5102105  58.9093708  39.4321823  18.5652562  62.1409093  42.8363037
  18.0802413  61.4718209  43.3193254  18.2144662  62.0957326  41.9468451
   6.0441709  54.8840513  16.1517203   6.2290835  55.7825829  15.8784449
   6.4191651  54.8188426  17.0299971  69.2219285  69.3070986   3.2571900
  69.3272428  69.4299247   2.3137629  69.9739341  68.7738110   3.5147154
  49.2136148  51.0305967   2.5213301  48.7015752  50.4486932   1.9596922
  48.8101343  51.8909099   2.4060261  14.5492101  31.5016961  51.1461163
  14.2459393  30.9163976  50.4520798  13.9962494  32.2785759  51.0629082
  78.2200364  52.1484472  27.3458063  77.3377255  52.5163104  27.2964346
  78.1246737  51.3701846  27.8948462  53.7882205  51.3142738  56.6298837
  54.2023798  51.1284610  57.4726045  53.0053445  51.8175694  56.8535555
  56.7566019  56.4444755  61.0595226  57.3206752  55.6751381  61.1380863
  57.2110659  57.0121156  60.4370451  68.7033665  33.6501883  56.6041708
  69.4163287  33.0198811  56.5010738  68.8960242  34.3363522  55.9651995
  73.2799268  45.8060716  28.6655474  73.3055234  46.2540101  29.5110798
  73.5338974  46.4766477  28.0314636  64.5153010  41.1189579  35.8893704
  64.2965376  41.6916107  36.6245198  63.9010060  41.3696598  35.1994276
   1.4785334  64.2846762  21.1821103   1.9543501  64.3665789  20.3555989
   1.0454794  63.4328996  21.1257792  38.8722515  17.6102257  48.4054041
  38.0122566  17.2075260  48.2851028  38.9358282  17.7620637  49.3483448
   7.0997113   5.7290035  58.2532978   7.6564193   6.3962591  57.8519535
   6.3884151   6.2236482  58.6602592  27.9854035  42.3843718  35.5817652
  28.7255716  42.8811026  35.9305334  27.6397014  41.9079733  36.3365936
   9.5680749   8.2414603  47.7058649   9.8881221   7.9155284  48.5470343
  10.2818680   8.0644804  47.0931578  70.4171121  70.0009351  37.0018697
  70.4915631  69.9391522  36.0495710  69.5577919  70.3957932  37.1498132
  13.5725319  11.6394174  14.8498273  13.8252103  12.2571433  15.5359769
  13.3774889  10.8277655  15.3182399  55.5486727  26.2586665  54.5826387
  55.7648659  25.5180717  55.1492167  56.2008762  26.9247699  54.7998190
  18.8619840  33.2598495  57.4073553  19.2474878  32.6442790  56.7839050
  18.6215949  34.0192890  56.8766022  12.9092598   0.9195355  26.9678020
  13.7332654   1.3449061  26.7305112  12.2315288   1.5040113  26.6282439
  56.7311767  60.2341031  34.7926259  57.1435121  60.7635652  34.1100693
  56.3253948  60.8728086  35.3788233   9.3152493  23.8047266  36.4563513
   9.0259272  24.5708585  35.9608078   8.7438589  23.7862754  37.2240782
  60.9322361  31.9386866   2.0584404  60.3464846  32.0536550   1.3101685
  60.6896285  32.6404073   2.6625597  30.9405204  62.3651086  39.5685291
  30.4206296  61.7618881  39.0374303  30.8085605  63.2199131  39.1584945
  58.3181864  62.7320336  53.1883717  58.9138204  62.0067273  53.0002689
  57.9789591  62.5426673  54.0631819  28.0300828  70.5746235  59.2396927
  27.4866982  69.8332735  59.5068312  27.8736707  70.6596147  58.2991934
  49.2582512   5.7548612  21.6992021  49.5535517   6.3480365  21.0084271
  48.8812494   5.0102526  21.2305236  10.3018880  21.5428378  15.5153143
  10.4285121  21.4932110  16.4627993  11.1358094  21.8710997  15.1790869
  67.6158885  39.2601116   1.1591303  67.8845576  38.3618994   1.3521683
  67.1963099  39.2053272   0.3005373   0.2191683  68.5767572  30.1033831
   0.3955527  67.6827853  30.3965282   0.1259371  68.5033582  29.1535664
  29.9886914  73.5126472  55.2269697  30.1734801  73.1323715  56.0857344
  29.2562600  74.1091479  55.3817463  38.2043481   7.1252292  33.9285088
  37.7684259   7.0252275  33.0822206  37.4920058   7.2860372  34.5473337
  62.4304247   5.0096303  62.7452755  61.6829538   4.4118240  62.7328777
  62.0443726   5.8781767  62.6320171  74.1116772   3.3179173  43.0886459
  73.1767509   3.2734987  42.8882170  74.1500203   3.6826441  43.9728022
  44.0499640  27.9581809  50.8582497  44.7714949  27.6153994  50.3308725
  44.2685366  27.7065587  51.7555523  76.4982910  22.6423311  29.5717216
  76.9932806  23.3252931  29.1191936  75.8601562  23.1201839  30.1015091
  19.4763251  43.5516642  55.4833603  19.5696660  44.2115687  56.1704159
  19.0726157  44.0212630  54.7534752  58.6915711  60.2836277  17.6639235
  58.6995701  61.2039639  17.9268896  58.4332637  60.3000810  16.7423784
  27.3356223  11.2124014  44.5517111  27.0834351  11.0188282  45.4545736
  28.0141282  11.8828988  44.6310568  43.9691547  43.8045092  12.7327263
  43.9499263  44.5202090  12.0974028  43.5707036  44.1732766  13.5210669
  71.3818121   3.0091840  20.6689239  72.0749855   3.6296538  20.4436207
  70.9312153   2.8424656  19.8410368   6.2194463  41.2281178  51.7701149
   5.7878228  40.6575273  52.4060059   7.0167752  41.5195869  52.2123146
   7.2597667  67.4312203  39.0541649   7.8125497  67.6906662  39.7912884
   7.4529072  66.5026300  38.9251399  25.3502870   0.7984442  42.0946789
  26.1233044   1.1869119  41.6850853  25.6988406   0.1036988  42.6533127
   5.7542461  31.4748001  27.7999425   6.2326771  32.2135448  28.1762290
   5.3177822  31.0663342  28.5475302  13.0965515  63.9406215  61.3653088
  13.0702230  64.5144962  60.5996704  14.0273162  63.8636170  61.5750217
  39.9747992   6.7140871  48.5187769  39.3106437   6.7705721  49.2057562
  40.7821274   7.0069683  48.9414740  13.9083644  49.7912549  44.9844265
  14.4306394  48.9891456  44.9936199  13.1375929  49.5692228  44.4620800
  52.1601629  19.8409855  52.0229101  51.3467932  19.3363619  52.0265675
  52.4222565  19.8661864  51.1026335  31.9762325  32.5071096  22.5355482
  31.9739985  33.4436226  22.3376346  31.1581874  32.3607326  23.0105257
   6.7104888  69.4452598  14.7837555   6.5914178  68.5426714  14.4881403
   6.7973399  69.3764092  15.7345164   6.0018941  65.7716332  27.5271034
   6.4309474  66.5978395  27.3045540   5.2887102  65.6938188  26.8934274
  39.2089820  15.1493001  16.8487144  39.1169882  15.8900666  17.4479091
  40.1397657  15.1357102  16.6258001  70.2139691  12.7809836   2.7878678
  71.0445718  13.0243828   2.3790991  70.4466180  12.0937969   3.4122717
  12.7182245   9.2954248  39.2342925  11.8341446   9.1762650  38.8872528
  13.2940328   9.1012365  38.4947181  37.6832247  19.3427002  56.1686802
  38.3618855  19.3802202  55.4947042  37.1666837  18.5683274  55.9456015
   1.0728863  21.5261650  40.1411772   1.6619363  21.0810184  40.7503510
   0.1972092  21.3601422  40.4902554  57.2831110  37.1025099  14.9528277
  57.5647596  37.3700069  15.8276713  58.0974368  36.9963630  14.4610560
  58.7746185  63.0633770  42.7840471  58.5506600  63.4990178  43.6064148
  59.5611238  63.5161124  42.4796247   2.9494711  63.6843740  40.8677959
   3.0728718  63.2074319  40.0471067   2.5358935  64.5072077  40.6067705
  33.3234954   3.8047880  14.0603805  33.7803912   4.6354955  13.9284635
  33.0696130   3.5285997  13.1797588  78.4771800  55.7932292  12.7628195
  78.2420826  56.0829829  11.8813407  78.8433409  56.5723275  13.1813467
  54.3742947  14.5608451  12.2495281  53.4241942  14.6066763  12.3564875
  54.4996242  14.2453362  11.3545525  38.5281467   5.6651944  26.1884165
  38.6018300   5.6869495  25.2343035  39.1685152   5.0089478  26.4631939
  25.5631995  14.0087867  45.9731817  26.5120888  14.1242909  45.9232044
  25.3303838  13.5801852  45.1495743  24.0076232  19.3529499  24.1099215
  23.1484866  18.9510763  23.9810276  23.8427830  20.2941227  24.0528798
   1.3706298  15.3673387  49.2004633   1.5438604  14.4305062  49.1078949
   0.5395648  15.4116619  49.6733236  71.0351352  50.0209023   6.7487347
  71.3473348  50.8609154   6.4123642  70.1003770  50.1572456   6.9032156
  42.5777721   9.5249939  24.0569544  41.6875124   9.1910416  23.9467430
  42.5637674  10.3864563  23.6399174  68.7212495  34.0474768   0.9564268
  69.6413735  34.2870938   1.0668623  68.2708005  34.8815732   0.8237374
  32.8197122  26.1472321  50.8061695  32.2195482  26.5563607  50.1827526
  32.2712994  25.9319043  51.5605593  63.9676455  47.5786449   5.6670725
  64.2677120  48.3965983   5.2706587  63.6624459  47.8324499   6.5380871
  22.5865054  14.6832597  56.4380836  22.6181078  14.5542324  57.3860216
  23.1245399  13.9761591  56.0820484  42.8126574  17.5538552  60.5786276
  42.6067638  17.3462403  59.6671772  42.2076750  18.2599211  60.8059931
  14.4648095  65.2650510  38.0977821  14.7197028  64.4932245  38.6032963
  13.6076685  65.0414668  37.7350831  51.0518646   9.9661559  45.3880835
  50.9894180   9.0111315  45.4042101  50.5576372  10.2515042  46.1565542
  57.5948075  52.1209897  38.1833899  57.3503593  51.4444746  37.5518763
  58.5503367  52.1560265  38.1390154  41.6908693  20.5477118  47.5183058
  42.5275040  20.9458137  47.7587080  41.5159369  20.8727694  46.6351461
  12.5136614  28.5641408  59.8414469  12.2184992  29.2373800  60.4545212
  13.2366526  28.9734650  59.3660831  49.3707085  12.2844017  54.6125984
  48.6871624  12.8409767  54.2394733  48.9049721  11.5068483  54.9203873
  67.2677755  70.2988576  37.7522016  66.7681074  71.0515823  37.4360228
  66.7196464  69.5425437  37.5429749  36.3561344  14.7552896  60.4098654
  35.7121897  14.1583920  60.0287104  35.9833384  15.6267548  60.2764463
  39.6168470  26.9089389  58.3174896  39.4998264  26.4014053  57.5144053
  40.5230284  27.2146821  58.2777023  44.3334007  19.6841681  61.7520332
  45.2263784  19.3523765  61.8454742  43.8699293  18.9941061  61.2774372
  54.6577263  13.1399214  45.3900051  55.4827642  13.1120682  45.8745337
  53.9836454  13.1917250  46.0676193  44.3805599   4.5999679  58.7583637
  45.2963257   4.8709533  58.6937571  43.8817596   5.3897882  58.5495234
   0.7275990  10.4599476  48.4377909   1.2954299  11.0548580  48.9275694
  -0.1595461  10.7655740  48.6269951  29.1796398  16.2845886  62.3432398
  28.6133456  15.6842589  62.8281641  28.6398959  17.0626235  62.2033501
  41.7080545  27.0271993  45.4790497  40.8285093  27.4027348  45.5191183
  42.0859957  27.2101045  46.3392448  18.3226573  44.5268393  21.2026477
  18.7123454  44.9067879  20.4152393  19.0544450  44.4384241  21.8133044
   4.4281622  65.6909792  49.1418314   4.5704075  66.6115545  48.9215136
   3.4899541  65.5551927  49.0093088  40.0291256  61.0615446   3.0912697
  40.4087619  60.2786209   3.4901869  39.3692831  60.7253911   2.4847710
  61.6173124  22.6155925  60.8402681  60.7260227  22.4765348  60.5201149
  61.5075827  22.8404427  61.7641878   0.7308718  73.1928814  32.2064662
   1.3752695  73.8914628  32.3203278   0.4990049  72.9332507  33.0981278
  33.1948475  30.6936850   2.9376566  33.3390180  30.5601414   3.8744652
  33.8613067  31.3311096   2.6812327   9.3104017  16.8697238  29.8488569
   8.5031867  17.3779511  29.9284816   9.3254876  16.3198531  30.6322122
  71.2532898  40.9147402  61.4357597  71.7773004  40.9070298  60.6347707
  70.5360504  41.5198385  61.2469340  77.3076328  12.2617292  43.4567547
  77.5968797  11.3599193  43.5957050  77.2558414  12.6349223  44.3366814
  13.6353636  19.8688710  42.4555063  12.9518640  19.7116065  41.8041039
  13.1576717  20.0779629  43.2582045  51.8655157   8.1628615  17.3824549
  51.2001085   7.6387370  16.9366288  52.3713207   8.5608220  16.6739190
  51.0277224  32.3981929  57.2006607  50.7982779  32.2596693  56.2817478
  51.4555550  31.5840936  57.4660492  68.5354424  29.6250963  31.8142128
  68.6763430  30.2315760  31.0871887  69.2584467  29.8009276  32.4163580
  26.5486789  24.6207786  50.2636290  26.8062305  24.0012288  49.5809412
  25.6139421  24.4600296  50.3926897  29.7957468   9.8888910  33.5991263
  30.0856304   9.1479599  33.0669427  30.5906034  10.1962399  34.0349817
  45.4225238   7.9664687   8.1545365  45.1844706   7.0412424   8.2138073
  45.3657504   8.2865408   9.0548527   2.8557754  67.4444940  24.8434603
   2.7032733  67.5414659  23.9034712   2.8777862  68.3416774  25.1763403
  41.8180799  16.1531818  62.4353600  42.3311329  16.6020739  61.7634201
  42.1793318  16.4692271  63.2635212   1.3782811  48.2906010  26.2194597
   0.5274034  48.5811831  26.5477907   1.2149215  48.0552306  25.3061449
  79.2842865  58.4782410  49.6624947  79.1797447  57.9709864  48.8575125
  78.3924818  58.5931778  49.9906874  41.5508366  39.0844560  42.1749544
  41.7919731  38.7589693  41.3076925  42.3856163  39.3018651  42.5898123
  50.5149889  37.3659372  46.1059570  50.6738186  36.4220071  46.1055565
  49.9096107  37.5066423  46.8339348  51.7033529  49.7949696  53.1588697
  51.3985634  48.9621019  52.7987814  52.0875311  50.2528858  52.4112415
  36.4489198  40.8956289  50.9753180  35.5498672  41.1374950  50.7529783
  36.9723988  41.2199163  50.2424860  26.9680238  62.7372815  32.5032866
  27.3810268  61.9718363  32.1035921  26.4245582  63.1069233  31.8074095
  59.7504616  35.4302073  46.3286161  59.0173864  35.0209832  46.7883682
  60.2204657  35.9126186  47.0087671  71.0340261  46.3687754  49.5066595
  71.3095856  46.1059380  50.3848457  70.3703737  47.0423222  49.6554327
  69.9673271  25.9260058  45.5013990  70.0581074  24.9907684  45.3188562
  70.6095791  26.0991359  46.1897087  21.1274982  73.6733033   3.8674128
  21.6213489  74.1618230   3.2088578  21.7977738  73.2732250   4.4213974
  69.1769171  48.9784145  51.7780256  70.1145744  48.8624144  51.9315910
  69.1232586  49.3626547  50.9029770  43.0752897  21.9674182  60.8039999
  43.5835838  21.4313745  61.4127016  43.1233788  22.8521037  61.1662817
  56.2574244  24.2491269  49.3720484  55.5602551  24.0188813  48.7579012
  56.0575342  23.7454510  50.1610851  65.5763960  52.3552418  58.4840059
  65.8557796  51.6670084  59.0877581  64.6246099  52.3867798  58.5806608
  49.4056320  29.9817514  48.8282061  49.8708725  30.6572580  48.3347750
  49.0738678  30.4364085  49.6024513  66.7408800  15.5160475  38.8651967
  67.2709656  15.5700517  38.0700088  65.8621120  15.7720602  38.5850930
  43.7184381  39.2069817  43.8086271  43.8253546  38.7654352  44.6511459
  43.4185314  40.0871325  44.0358400  40.7172966  36.6712165  43.6121511
  40.9864855  37.5481939  43.3388805  39.8308945  36.5734959  43.2643318
  50.3034782  35.7604861  50.1623058  51.2013388  35.7848454  49.8314142
  50.1347971  36.6533780  50.4631758  54.0720987  45.3712654  34.6217752
  54.4285107  44.9626446  35.4105926  54.7513199  45.9850502  34.3421936
  64.0988541  54.8004007  38.3211017  64.2367029  53.8938189  38.0466342
  63.1706190  54.8425484  38.5509729  66.6047049  38.7130380  51.2521601
  65.7783937  38.2901621  51.4858580  66.9390249  39.0591908  52.0795918
   1.9581171  69.3582106  51.4227724   1.7623373  68.4240580  51.4952946
   2.8959795  69.4211054  51.6035843  78.9608812  16.8802094  35.0316525
  78.4565306  16.2248993  34.5495391  79.1080666  17.5827014  34.3983483
  43.5497761  42.2903872  47.1222544  42.8159142  41.6924858  47.2643566
  43.4941530  42.9141521  47.8461647  52.7457762  38.7293124  40.9329081
  52.8488111  39.4804096  41.5172625  52.1474838  39.0361738  40.2516460
  73.1783867  50.3136539  52.7305794  74.0765333  50.5230999  52.4742699
  72.6448965  50.5990553  51.9888496  62.2586870  21.4442706  38.5593963
  63.1574821  21.4914012  38.8852382  62.2771025  21.9299126  37.7347493
  53.6736965  44.6629524  52.0276833  52.8624249  44.1881180  51.8471098
  54.3576908  43.9949846  51.9807482  61.2418938  31.9270587  40.4157495
  60.7823372  31.4925647  41.1342621  61.3322163  32.8354263  40.7037497
   7.9328962  42.9842281  47.1389055   8.5157057  43.7300014  46.9960928
   7.0708128  43.3768368  47.2763538   2.2603460  50.4523659  36.4477944
   2.2628637  49.5421934  36.1514711   2.5189253  50.9562063  35.6760979
  10.3306719  27.5120616  21.5820765  10.2401205  26.6406059  21.1965966
   9.6408793  27.5538492  22.2443962  70.2554417  47.8861618  30.1176167
  70.9015322  48.4933043  30.4784155  70.6425953  47.0202255  30.2460718
  45.6676435  37.9043603  47.4925518  45.6242037  37.9734874  48.4462643
  44.7535467  37.9231739  47.2091675  68.4649420   2.4388607  62.2945833
  68.1521940   3.0020583  63.0025578  67.8937626   1.6715196  62.3288631
  63.4251738  35.0142741   5.3616142  63.2620144  35.6121516   6.0911006
  63.0751419  35.4696059   4.5958602  63.6616993  50.0765419  47.1596193
  64.0398216  50.8387232  47.5981808  64.3640804  49.7513294  46.5964699
  35.4638437   8.5072449   9.2041266  35.4628042   9.3921879   8.8392842
  36.1280254   8.5329274   9.8929131  57.1907377  11.2468219  21.0894561
  57.5800371  10.6028640  20.4978514  57.4863720  12.0921338  20.7514048
  50.4286098  65.8209467  56.7849350  49.7144032  65.2409267  56.5208912
  50.9375954  65.9535360  55.9851933  23.3859774  53.0746984  59.5877266
  23.2534643  53.5207319  60.4242277  22.7680250  53.4966373  58.9907837
  18.1915259  71.3325931  10.0592053  18.4635615  70.7322671   9.3650639
  18.8083720  72.0621516  10.0002730  38.3217406   3.8959123  33.5727143
  38.3917880   4.4465066  32.7928591  37.8900790   4.4525005  34.2208767
  33.5162357  26.4590004   0.9714520  33.0137638  27.2524479   1.1563885
  34.1428570  26.7238358   0.2980721  61.0042381  39.6852231  53.5623741
  61.0941458  39.2844152  52.6977921  61.7975998  39.4252253  54.0305758
  65.3363657  18.5043681  42.6162958  65.5718565  17.9993665  41.8379974
  65.9927654  19.1997898  42.6582432  64.1472912  22.7082968  50.8034277
  64.8393488  22.4525523  51.4132500  63.5063267  21.9994497  50.8576012
  57.6375294  17.2886264  56.2242079  57.5517988  18.1874514  56.5420103
  58.2135344  17.3576963  55.4628420   1.0867830  53.1311989  57.8863430
   1.2455507  54.0406752  58.1390858   1.4391848  52.6159430  58.6119795
  26.0929418  74.3545916   5.1639426  25.5089164  74.4881823   5.9104645
  26.8771291  74.8591544   5.3800308  34.4715408   6.0924080  12.0382416
  35.3555254   6.4505795  11.9574940  33.8998894   6.7917565  11.7214501
  53.9019012  31.2693667  51.6293430  53.6824799  31.1824203  52.5569916
  53.8627195  30.3755164  51.2891531  68.9933395  59.1149235  20.2926874
  69.7097778  58.4959078  20.1520944  69.3366909  59.7370052  20.9340549
  35.1508113   7.4629710  64.5504698  35.6791993   7.7622054  63.8105392
  35.7565900   6.9501374  65.0855044   2.2068545  44.2481995  48.5000896
   2.9070898  43.5995102  48.5715675   1.4828344  43.8755035  49.0031958
  25.7876277   2.6707221  61.1866379  25.7336402   2.7226592  62.1409035
  26.5396381   2.1024801  61.0198641  62.0347261  57.3042870  52.8459597
  62.6415920  56.8752909  52.2427130  62.5979996  57.8011227  53.4393454
  27.2907396  39.0590763  28.9212394  26.5995260  38.4126449  29.0647173
  27.8847071  38.9432192  29.6628618   7.9538580  58.4603643  25.1546383
   7.5456949  57.5948620  25.1780438   7.4459883  58.9815760  25.7764363
  49.4553614  29.2284083  58.8228750  48.6663723  29.2993093  58.2855701
  49.8890305  28.4352636  58.5080910  66.1227179  46.1434078  30.7795763
  66.6790533  46.4074755  31.5123725  66.5170717  45.3319788  30.4597330
  61.8697929  72.2105360  43.8495016  61.4138269  72.0750141  43.0188608
  62.2522068  73.0846834  43.7729645  18.2889219  62.7925777  57.8839731
  18.8975474  62.8944588  57.1522474  17.5129172  63.2872868  57.6207066
  67.3001957  66.3184309  35.9842062  66.9182920  67.0751905  35.5395794
  68.1918335  66.2634611  35.6404161  71.7181301  36.4703178  42.1402311
  71.0898066  35.8408475  41.7863846  71.2417030  36.9165277  42.8403378
  28.3045840  13.8607170  46.2765265  28.1792903  13.8537456  47.2254658
  29.0047908  13.2264568  46.1227226  76.7398262  41.4577961  38.3154321
  76.9534445  41.5828466  39.2400742  76.0885191  40.7563543  38.3128238
  52.8708792  51.0100269  36.0618734  52.7537823  51.3273430  35.1664233
  53.5168362  50.3078842  35.9846163  55.8835125  37.6366210  46.8740177
  56.1793804  38.2737231  47.5242472  54.9715328  37.8730106  46.7047787
  57.9457140  68.0218983  40.2667856  58.2936907  67.5531721  41.0253620
  58.2946205  67.5481367  39.5117712   4.0693804  64.9265051  25.5949163
   3.8580748  65.7454252  25.1466370   3.5384127  64.2659664  25.1499510
  18.8058420  59.8296452  21.1702776  19.6530768  60.1165485  20.8295226
  18.8659998  58.8745117  21.1884570  12.6761937   1.3442089  37.1815634
  12.4532962   1.8698121  36.4132595  12.0470071   1.6172172  37.8492641
  50.1173449  44.5938253  44.5805836  49.9647999  45.5180788  44.7773552
  49.6430635  44.4415140  43.7632179  15.2105471  46.1846113  50.2842379
  15.1137873  46.7320728  51.0634375  16.0703035  46.4170265  49.9334812
  60.6227732  30.8013868  51.3672066  60.7101297  30.4074669  50.4992056
  61.4512682  31.2600994  51.5065336  64.3523502  46.1975718  51.3181353
  63.5881090  46.5289450  51.7896843  65.0859165  46.7065620  51.6631651
  25.0262570   4.6380855  53.9936447  25.4095340   3.8353635  53.6401415
  25.0239158   5.2475978  53.2555962  59.6116590  67.1101952  64.2721653
  60.3274345  67.4864292  64.7843695  59.4420528  67.7565384  63.5868168
  12.3430137  12.3901251   5.4850971  13.0531053  12.8191641   5.0076782
  12.2842077  11.5182904   5.0943577  54.3887663  14.1816461  25.8007050
  54.8733616  13.3933210  26.0455441  54.5208645  14.2602360  24.8559260
  11.9591375  53.2679176  21.3155985  11.7521235  54.0239525  21.8649507
  12.5365301  53.6163568  20.6363130   0.5614325  38.7252593  21.4890957
   0.5007454  39.6430826  21.2242365   0.1577898  38.2409430  20.7688594
  58.3328581  21.5191460  50.3218842  58.4467840  21.7610455  49.4027901
  57.5207329  21.0127401  50.3373766  75.2782917  60.2178383  36.4498448
  75.1508617  61.1378288  36.6813898  75.9152365  59.8962736  37.0879078
  76.3258219  61.7366934  59.6570683  76.8231440  60.9861708  59.3320847
  76.3741875  61.6615486  60.6100893  13.2867181  58.9384365  15.1145935
  13.6643529  59.7213697  15.5153942  13.8494825  58.2228184  15.4102564
  46.0448460   1.8835667  20.6232035  46.4468721   1.0470513  20.3890002
  45.2727036   1.6431740  21.1352885  59.7412157  51.7498827  34.6355176
  59.2253351  52.2626495  35.2577496  59.9216318  50.9288216  35.0932670
  60.9709501  62.2964191  27.2510219  60.4890585  63.1200886  27.1763349
  61.8796301  62.5328255  27.0648718  67.4242020  35.0599194  49.3379688
  68.2481813  34.9355698  48.8669777  66.8123674  34.4588113  48.9130497
  65.4229784  52.4445677  37.9036641  65.3381538  51.8686342  37.1438360
  65.7749462  51.8813753  38.5929871   4.2236400   1.9445421  33.4225965
   3.3792138   1.6888000  33.0514193   4.5399785   2.6375915  32.8430748
  66.8320560  49.7422457   5.4331404  66.2189388  49.7722197   6.1675894
  67.4371862  49.0345621   5.6550312  20.3536296  60.6289412   8.0983364
  20.3296447  59.6894767   8.2801687  19.4899583  60.9461214   8.3623516
  22.4432282  40.7678536   2.3222124  23.3782677  40.7397154   2.1193802
  22.4072699  40.9455326   3.2620871  37.7127147   0.9865238  38.1778336
  37.8508639   1.2806417  37.2774768  36.7790485   1.1270906  38.3351278
   6.2846951  35.9783772  16.9876444   6.0766081  36.0372809  16.0551989
   6.1266617  35.0610760  17.2108423  67.0967940  24.0648986  62.0153093
  66.5091256  24.1461708  61.2641287  67.1558503  24.9518825  62.3702717
  54.6310234  74.1476059  48.8741779  54.5108414  74.5417833  48.0102253
  53.7475109  74.0957880  49.2388010  29.6838451  59.1495945   1.5714657
  29.6944690  59.2733027   2.5205767  28.7564254  59.1793682   1.3364136
  38.9186359   3.4433128  54.5421028  38.8980365   4.2662670  54.0536785
  38.9832664   3.7105133  55.4589796  58.5845709  55.9121656  29.2507601
  58.8718605  55.6987810  30.1385474  58.9331484  55.2038383  28.7094688
  24.6555019  11.8799449  38.9579463  24.0504241  11.2028743  39.2607594
  24.5267749  11.9095947  38.0099058  71.7363644  32.0865107  62.2204876
  71.3306427  31.2223196  62.1512413  72.6695633  31.9247866  62.0818424
  67.1011591  60.1569080  25.3284097  66.8628550  60.9296465  24.8162436
  67.0791626  59.4361877  24.6988726  13.4129473  63.2544088  27.1696281
  13.6637350  62.9731417  28.0495286  14.1850611  63.7104177  26.8347740
  52.7106905  41.7096949  40.4859638  53.3344126  42.1402931  39.9013352
  52.6847124  42.2689819  41.2623358  72.3893336  13.7438919  64.3539524
  72.2762994  14.6316768  64.0144157  72.7643088  13.2535984  63.6223507
  24.5836166   9.9088457   0.1747477  23.8263039  10.2041367   0.6802284
  25.3394941  10.1741579   0.6986677  66.3158226  68.5944176  62.6111317
  67.0469618  69.1809177  62.8052521  65.6809473  69.1461802  62.1542692
  32.0737314  61.5535450  34.0019178  32.8992033  61.8502140  34.3850851
  32.3154116  60.7953739  33.4699416   5.3738475  30.4984142  32.5617862
   4.6874976  31.0915138  32.8673744   5.2833009  29.7222473  33.1146002
  18.4220433   7.1169235  18.6081827  18.8004375   7.9605152  18.8559842
  19.0588880   6.4701988  18.9121723  73.2108021  42.2633266  38.8463902
  72.7638292  43.1097555  38.8447213  73.6213303  42.2075558  37.9834962
  60.4112315  31.9168807  37.6584911  60.7563853  31.8039848  38.5441256
  59.6217799  32.4455596  37.7746940  75.3705978  72.8266287  24.7331452
  74.6956444  72.4475574  24.1701412  75.6325340  73.6307955  24.2848849
  66.2204838  57.8481436  50.8025217  66.0658741  57.2430754  50.0771141
  66.7990351  57.3684883  51.3953447  35.0168852   6.7982891   3.3681738
  34.3762354   6.1129549   3.1781304  34.4924501   7.5380686   3.6746418
  34.9360224  72.9137754  26.2647247  34.1465613  72.8257751  26.7987967
  35.2096411  72.0130205  26.0914946  40.9898762   2.7870777   7.0653021
  40.5906014   2.4423650   7.8640377  40.6618551   2.2182682   6.3688147
  76.0523844  36.6483927  12.3227108  76.2960339  36.5535831  13.2435131
  75.5056810  35.8842850  12.1397185  24.7813841  42.8904343  13.6848879
  25.3916880  43.3112478  14.2904270  24.2790075  42.2867823  14.2321134
  38.9822936   4.7625114  63.7507343  39.4748950   5.3363229  63.1639481
  38.5622287   5.3581191  64.3712425  64.3995476  57.0073843  48.6030769
  63.8102102  57.1447086  47.8614235  64.9898434  56.3114166  48.3142662
   7.0150419  15.3837287  42.3701668   7.0597597  14.5062602  41.9903231
   6.3264605  15.8251524  41.8729496  72.1423435   9.6760780  35.3717899
  72.1240425   9.2442584  34.5177245  73.0718660   9.8253155  35.5448532
  28.1487803  21.1074999   7.1175587  28.7951855  20.7192973   6.5279114
  28.6561684  21.3836459   7.8807938  33.5549426  11.3771106  39.5494866
  33.6099982  10.7499649  38.8284540  33.7974811  12.2156192  39.1566491
  64.7992086  39.6513700  32.3320508  65.6358814  39.4354463  32.7438593
  64.3195915  38.8231635  32.3155141  69.7686005  47.2705460   8.7373346
  70.7187510  47.3569107   8.8147086  69.4345284  48.1544542   8.8900864
  63.6145496  59.5197678  42.3430872  64.2931271  59.2570353  42.9649639
  62.8247547  59.6132565  42.8757334  26.5994334   1.7931272  47.2255135
  26.1198831   1.6755201  48.0455351  27.5010562   1.9640304  47.4977160
  51.4149332  48.7795448  11.4096153  51.3643312  49.6857929  11.1056674
  51.6137123  48.8507938  12.3432326  14.9172827  53.5045528  49.1147232
  15.5108210  54.2297840  49.3096256  15.3258082  53.0524826  48.3765030
  65.2422762  58.0998611  55.6709862  64.9696255  58.2727480  54.7698736
  64.9502087  58.8683653  56.1612225  47.6633263  65.2019215  42.3926067
  47.5161123  66.0840940  42.7336836  46.7936516  64.8022985  42.3786831
  71.2903547  68.8247871  15.2010632  72.2226000  69.0345955  15.1450968
  71.0695505  68.9590311  16.1227214   4.8713442  28.2344937  55.6605864
   5.7907625  28.2098246  55.9257221   4.4247385  27.6706672  56.2921524
  49.0302467  38.8479948  50.1110697  49.0346575  38.3504772  49.2933369
  48.1255627  39.1462135  50.2051115  54.3843126  50.5759144   5.0929254
  53.5139513  50.2717113   4.8357046  54.2763710  50.8749723   5.9957784
   3.5286566  50.1299095   3.7773976   2.8657862  49.7850704   3.1791347
   3.1159063  50.0913191   4.6401739  13.9933058  60.8845186  48.2894850
  13.5508772  61.6861248  48.5686159  13.3031603  60.3581142  47.8859711
  23.0070070  50.6086090  14.3539774  22.6358036  49.8969773  13.8324320
  23.9155296  50.6726769  14.0595114  54.9254465  52.8406239  22.5111532
  55.7345486  52.7500916  22.0077825  54.5952702  53.7087631  22.2797465
  70.6499910  59.1671228  53.9582062  70.6460762  58.2881737  54.3372393
  70.3057623  59.7289228  54.6525574   6.3830992  49.7307539  46.7208195
   5.8406874  50.5192900  46.7358160   6.7313715  49.6965218  45.8298826
  50.4834223  52.8822422  35.8090949  50.6548786  51.9921064  36.1164904
  50.8767462  52.9144096  34.9370313  61.6805363  40.7737732  10.9272552
  62.2041607  41.1593580  11.6296577  60.8343029  41.2169266  10.9884393
   6.5805411   2.3047162  62.6925468   6.2313008   1.5048124  62.2995853
   6.8262887   2.8508569  61.9458437  54.9691105  16.2675011  14.7503638
  54.3180037  15.6046176  14.5204163  54.8882151  16.3636434  15.6992817
  67.1168280  67.5346994  50.0303745  66.7652655  67.6150179  49.1437006
  68.0530071  67.7091217  49.9335432  65.7366467  65.9290886  28.8034248
  65.3859997  65.1591539  29.2511678  65.3586149  66.6723394  29.2734289
  60.9702778  62.6445818  38.4761930  61.1278820  63.3201790  37.8166747
  61.5780020  62.8554344  39.1850281  36.2467933  16.1296321   7.6874614
  36.2781596  15.3332569   8.2175869  36.0038161  16.8192054   8.3052725
   8.5900637  49.4656134  18.4193325   9.5122667  49.7113895  18.3460355
   8.1600329  49.9327660  17.7030420  52.3979858  22.8145245  14.2857468
  52.0215611  23.1002596  13.4533465  52.5578789  23.6260870  14.7674429
  51.0729480   6.1026718  36.2681389  50.4396510   5.5982543  35.7575130
  50.7639003   6.0309745  37.1712351  68.3532906  70.9441042  58.9758396
  67.6614523  71.5657473  58.7496710  69.1668653  71.4179325  58.8031912
  56.7860317  45.9602833  41.7579603  56.0861778  45.6850338  42.3501396
  57.5908566  45.6694317  42.1867847  21.7300459  17.4146140  58.0124235
  20.8319231  17.6759171  58.2156849  21.7106672  17.1952271  57.0809078
  39.7223095  10.6366804  15.1903164  39.0772013  11.2144259  15.5980837
  39.2170672   9.8735312  14.9100315   8.6406752  38.8386703  43.4603786
   8.6721655  39.5182800  44.1337061   9.5493933  38.7411332  43.1758404
   6.6858459   2.0262720  42.9212856   6.8695998   1.2340023  42.4165297
   5.7641006   2.2144271  42.7445984  13.0597520  59.8930861  29.0039122
  13.0713630  60.0259520  28.0560457  12.9729152  60.7739856  29.3681967
  72.0299292  25.0206804  49.9688911  72.5770712  24.3019652  50.2856207
  71.1745501  24.6200895  49.8136902   9.7739387  17.5920822  39.2865777
   9.0839982  18.1009437  39.7123289   9.3438077  16.7784263  39.0235496
  69.3349409  53.2501268  33.2768893  69.4621038  54.1987514  33.2899594
  68.8477468  53.0848789  32.4696922  73.4247065  35.7723999  61.5745783
  73.0368328  36.6435790  61.6572332  73.5582542  35.4830599  62.4771738
  16.9496369   4.6994926  36.4131999  16.2918258   4.1423227  36.8292260
  17.2918105   5.2391387  37.1258950   1.6480585  69.9668407  40.3575039
   2.2506281  69.2234850  40.3337240   1.8932768  70.4487610  41.1473465
   7.4366041  49.6397924  25.3405929   7.8398749  48.7906647  25.1600456
   7.8276392  49.9195004  26.1682963   3.8345190  18.1698072  26.3049936
   4.0950438  17.3963881  25.8048129   4.6465250  18.4810948  26.7049551
  69.6195602  69.1809130  60.7743883  69.5053005  69.3248415  61.7137814
  69.0528870  69.8325968  60.3615665   7.2460123  56.4661789  32.2133970
   8.1771513  56.6365147  32.3555040   7.1251627  55.5557775  32.4832034
  43.6397604  23.7669447   4.6137678  43.8983397  24.5599917   5.0832808
  43.8593535  23.9473942   3.6997378  19.4083742  20.9321955   9.3867552
  19.8245863  21.7089680   9.0130961  19.9219469  20.1989058   9.0479862
  58.1146721  23.2019022   9.6083987  58.7230877  23.8959149   9.8621762
  58.5815147  22.7090577   8.9335692  72.7442026  29.7734642  36.2639618
  73.4900856  29.7402406  36.8629503  72.7259254  30.6789708  35.9541988
  71.9746208  65.6992054  58.2124567  71.4250803  66.4345217  57.9412556
  72.0261097  65.7772493  59.1650772  53.3570051  35.5813813  43.4206724
  54.1935158  35.2125025  43.7042379  52.8134871  35.5760312  44.2085743
  11.5386244  32.1279836  58.1199741  12.1517035  32.6047611  57.5604630
  11.4590498  32.6703191  58.9046860  53.8425922  65.8674479  63.1281757
  53.1705189  66.4306927  63.5119724  54.6548510  66.1378288  63.5563803
  27.8978992   1.2892200  35.4817510  27.1848703   1.6861726  34.9815011
  28.4844279   2.0184852  35.6827164   1.2276407  39.5812368  55.0169086
   1.5389105  39.8996592  55.8642244   1.4194056  38.6435103  55.0282907
  59.2561221   0.9198095  28.3527517  58.5489917   1.1484672  28.9560127
  59.3370509   1.6815855  27.7788353  68.7097168  65.9013939  28.7902713
  69.2489958  66.5057659  28.2802248  68.0442953  66.4576244  29.1953039
  65.4961872  28.2886052  45.7832146  66.3728905  28.2665753  46.1667967
  65.5728483  27.7725697  44.9806786  13.2930895  42.1389151  41.1740589
  13.9924666  42.1813488  40.5219030  13.7235590  41.8176270  41.9663334
  67.7159218  23.7046793  15.1488840  67.6779465  22.7912787  15.4325926
  67.0734982  24.1531876  15.6987631  10.1335474  52.9973507  27.2203374
  10.6276652  52.8853512  28.0324531   9.3483397  52.4636459  27.3421860
  66.0373306  62.0373487   8.0642140  66.9853067  62.1592236   8.1163156
  65.8584499  61.2987804   8.6462396  63.7414885  68.5288429  51.9353533
  64.4177771  69.1344118  51.6317892  63.7910223  68.5735941  52.8902245
  54.9276686  67.6689482  32.5682044  54.5983553  67.2824430  33.3796215
  54.5357609  68.5418606  32.5424027  13.0996728   1.4580060  18.6618984
  13.4824681   0.6664039  19.0401328  13.8520360   1.9681598  18.3620274
  71.7523956  31.2644219  26.6669941  71.0677910  30.6506395  26.4008760
  72.2962999  31.3697219  25.8864069  72.9953098  70.0184393  60.3062105
  72.9045391  70.5789518  61.0768080  72.2087812  69.4729471  60.3128290
  13.7160917  61.0811329  64.0446711  12.8993937  61.0552549  63.5461044
  14.3410250  61.5080643  63.4586525  59.9346737  33.1258467  14.9858486
  58.9928726  33.2876519  15.0411904  60.2414040  33.1848315  15.8906519
  60.7948780  67.3948383  21.3248396  61.7392492  67.4256563  21.1717224
  60.4347801  68.0566168  20.7344103  10.0314566  74.1746330  35.5258703
  10.3881689  75.0613499  35.4736853  10.4428049  73.7077904  34.7984934
  14.3221688   8.9493801  52.8532124  15.2543950   8.9133026  53.0674124
  14.0051770   8.0603935  53.0127859  64.1638613  38.2474327  27.7278328
  63.9121342  38.3499837  28.6456275  63.6027908  37.5432968  27.4028301
  75.6728268  71.7637777  47.9148483  74.8126459  71.3575029  47.8087425
  75.5726480  72.3428631  48.6703968  59.2430945  35.6622289  55.0414706
  59.6473857  36.4677499  55.3638292  58.3843776  35.9371970  54.7201747
  14.3080497  19.3160011  38.1209350  13.4011150  19.0112163  38.1492567
  14.2391229  20.2601100  37.9790378  79.0376568  62.0376062  24.9662089
  79.4688034  61.1906624  25.0803900  78.1907892  61.8243599  24.5743299
  11.2084147  43.7799311  48.1323481  11.8244120  43.6997318  47.4040985
  11.0485407  42.8783178  48.4112167  71.0246161   9.2404319  60.3466892
  71.2740544   8.3175327  60.2991438  71.4865617   9.6513416  59.6159410
  20.4333043   6.5875961  62.4551249  20.9824824   7.1833755  62.9647207
  20.0095296   6.0330821  63.1102276  50.2890209  58.2401017   0.1992380
  50.6848721  58.6339501  -0.5782020  50.3084616  58.9357594   0.8564436
  64.9142647  64.5587444  33.5981560  65.3112030  65.3560925  33.2475686
  65.4760838  63.8518620  33.2805061  14.2158171  62.7339935  35.7444978
  14.8225828  62.2563839  36.3101459  14.6039435  62.6733303  34.8716259
  73.6299519  41.6143015   4.1513836  73.9892773  41.0346774   3.4797108
  72.6872639  41.6178158   3.9853585  70.2725867  11.2516548  61.9294930
  70.0180797  10.9971096  62.8164339  70.5569104  10.4353668  61.5183163
  49.8769379  55.7129431   0.2567728  49.9607182  56.6462326   0.0613605
  48.9348888  55.5714464   0.3503300  76.5761594  41.4915801  41.1692619
  77.0982150  40.6903602  41.1275387  76.8916205  41.9424774  41.9524622
  31.6303134   9.3802215  60.7871628  32.1075702   9.1625358  61.5878344
  30.7353759   9.5509674  61.0806894  68.4012747  28.9624500  52.6454353
  69.0315771  28.2438779  52.5943565  68.7765694  29.6498132  52.0950556
  45.5987839  57.2780445   6.9041455  45.5945305  56.7547444   6.1026728
  44.9273066  56.8767384   7.4557841  33.0862880  15.3570034   9.9514532
  33.8915134  15.0720550  10.3834665  32.8851390  16.2022163  10.3531694
  71.9660997  62.1998167  34.7809291  71.1597586  61.7255545  34.5781446
  71.7650986  62.6820135  35.5830026  75.7279539  47.0581818  37.3828936
  75.1368809  47.7958775  37.2322989  76.2755537  47.3360586  38.1171608
  61.0656261  52.1695566  48.3464146  60.6852961  51.4746094  47.8091717
  61.6915989  51.7187548  48.9131355  12.1076226  18.7090923  52.0580864
  12.9081941  18.4255458  51.6165924  11.4445186  18.0768348  51.7810202
  19.6413970  15.2736808   8.4064770  19.4711709  15.8444931   7.6571894
  20.5817819  15.0996448   8.3662254  55.1190519  60.4897165  60.7002115
  55.1765394  59.7612238  61.3184595  54.6181679  61.1597204  61.1654425
   7.4520373   7.2815658  46.2091160   6.7176509   7.5498630  46.7613173
   8.2234836   7.6465656  46.6425705  23.3671423  43.1448984  21.2332320
  24.2390486  43.3241940  20.8812761  23.3804175  42.2107553  21.4416289
   6.3975569  56.2656546  60.8975744   6.9555517  56.9213772  60.4793596
   5.5074545  56.5148211  60.6488371  68.7025642  69.9505091  63.2757759
  69.0776873  69.4966459  64.0304470  68.7970829  70.8799934  63.4840012
  15.3185916  12.2546627   0.3698498  14.5159221  12.0948364  -0.1265474
  15.2163720  13.1431819   0.7108958  27.4208017  66.2842131  56.6077089
  27.3574682  65.8596087  55.7521820  27.0025202  67.1362209  56.4837885
   3.1448885  56.4954042  24.7963333   3.7678286  55.7907820  24.9743009
   2.7623316  56.6981792  25.6500125  45.0094771   2.5635244  35.8673477
  45.1104808   2.8216363  36.7835379  44.4247890   3.2239248  35.4955220
  60.5821848  64.7187185  53.0675030  61.0629940  64.0746927  52.5476170
  60.0984526  64.1967869  53.7076759   4.6601435  45.3910303  17.8956091
   5.3270289  45.8184004  18.4330630   4.5408102  44.5318413  18.3003187
  60.6931162  55.7190847  61.1386013  61.3358498  55.4216909  60.4946470
  60.5915117  56.6542244  60.9613371  42.9613642  24.8181179   9.1678440
  43.3129458  25.0004462   8.2964194  43.1624989  25.6036738   9.6764433
  27.4452663  10.2570011  32.2581148  28.3347678  10.0861694  32.5676799
  26.8959832  10.1449253  33.0339789  50.4275111  12.4773647  51.1179018
  50.0257424  11.6210128  50.9713650  50.4078964  12.5917007  52.0680428
  52.5461821  64.9877861   8.7929737  52.3543648  65.5892685   8.0734885
  51.9424204  64.2567566   8.6614525  54.9536160   6.5914680  46.2528658
  54.3252305   7.1674491  46.6882992  55.7595901   7.1059562  46.2089062
  45.4307608  18.9692334   1.6018736  45.2352480  18.6976841   2.4986851
  44.6067957  18.8482979   1.1299813  78.1907082  49.0548468  21.4261961
  77.4060726  49.6029377  21.4130831  78.7221766  49.4143867  22.1364832
  35.2666736   1.2437440  30.3144693  35.8397937   1.9124891  30.6893706
  35.8621001   0.6381895  29.8728824   3.2354303  71.6383028  29.0694427
   2.3054548  71.4219952  29.1370964   3.6095568  71.3501024  29.9020290
   5.0792547  42.5939989  61.0508251   5.4728933  43.2606459  61.6137266
   4.2557474  42.9839706  60.7575798  27.6664492  69.1879892   3.1322411
  26.9265982  69.7124815   2.8260496  27.2641321  68.4183455   3.5347515
  66.4707422  48.3213329  41.0945320  66.5025568  47.6237822  41.7492390
  66.9839001  47.9841852  40.3602076  19.0998844   9.2360047   4.3927634
  18.9441113  10.1363591   4.6779454  18.6561207   8.6971501   5.0476992
  21.4165235  29.0991832  30.6421781  20.6325269  28.5524036  30.6932998
  21.1266399  29.8919250  30.1907802  61.1732912  41.5326071  60.4896736
  61.7010641  41.5947533  61.2858057  61.3339186  40.6468248  60.1643658
  34.0081668  11.7517330  54.0521431  34.8740554  11.7316963  53.6446333
  33.6658073  12.6211692  53.8445473  66.9622040  45.8418560  27.2866917
  67.4855661  45.6236649  28.0578709  67.5800276  46.2634993  26.6894150
  55.8806968  22.9133083  51.6087675  55.7171416  22.0474769  51.2348461
  55.9970451  22.7517749  52.5450373  76.7472219  72.7490711  56.6428566
  76.9345713  71.8911314  56.2619781  76.1522293  73.1637096  56.0181236
   1.5478397   3.9162065  23.8377595   1.6191220   4.3884517  24.6672988
   1.1502195   3.0778362  24.0728307  14.2620206  34.8978855  49.0960407
  13.8383365  34.9680854  48.2405901  13.6089587  35.2255966  49.7143793
  45.1957277  51.2597969  10.1856243  44.9791149  50.6177452   9.5095551
  46.1432556  51.1808995  10.2960789  64.8818588  68.7801313  37.2988367
  64.1686201  68.5177135  36.7168927  64.4433737  69.0783644  38.0957198
   8.8918042   1.4994575  15.6524026   8.6346984   1.7437078  16.5414858
   9.8259711   1.7035295  15.6086206  59.8841906  72.1445704  35.9498477
  59.2243290  72.6452494  36.4295673  59.6342373  72.2380209  35.0305963
  24.6580243   0.6728698  37.9197216  24.0326142   0.6426145  37.1957207
  24.1463447   0.4221775  38.6888576  13.8882899  69.2892482   1.2550318
  14.8241210  69.4363357   1.1178458  13.8441634  68.7438299   2.0403969
  72.8305510   6.2967159  51.1470222  72.7499465   5.9351112  52.0296192
  72.3546103   7.1263935  51.1837244  40.2569866  68.0123091  44.3879414
  40.6815243  67.2278738  44.0405798  40.7258034  68.1980181  45.2015448
  41.6393256  12.1813919  37.4942970  41.6583610  12.5092079  38.3934093
  42.5370383  11.8959381  37.3243809  15.9856459  74.4266987  45.7260847
  16.5757319  73.6759472  45.6597233  16.5131422  75.1720619  45.4390144
  74.6833324  68.2995653  56.9119024  74.2269993  68.0184221  56.1188364
  75.1323509  69.1055346  56.6568947   8.9285895  56.5847397  21.0646510
   8.1628843  56.0122871  21.1117768   8.5683581  57.4517202  20.8780837
  73.3946518  13.4767846   6.4559853  74.0409187  12.9720477   6.9497597
  73.0068592  14.0667752   7.1023285  58.2996845  59.7100592  39.2808962
  58.2173729  59.9648714  40.1998806  59.1910267  59.3693399  39.2057323
  43.6390642  53.7451771   7.3311102  44.1819290  53.4202889   6.6127932
  42.7671818  53.8411930   6.9479239   1.8278834  66.0434723  40.2087927
   1.2888189  66.5404797  40.8241224   1.2566897  65.8959007  39.4550109
   4.3441340  36.9047070  38.5355186   4.7153422  37.7501965  38.7876749
   5.0816103  36.2961912  38.5810232  69.1177797  50.8236361  41.1712551
  70.0016499  50.6521082  41.4962006  69.2523575  51.2720156  40.3363419
  63.1619863  14.9561836  33.3554029  62.7841453  14.2493774  33.8787603
  62.7583508  14.8577930  32.4930644  72.8031445  44.9454927  15.8379328
  72.4947119  44.1945505  16.3450718  73.7321568  44.7690010  15.6895399
  13.7569185  54.5341778  18.6987972  14.1146799  54.6057129  17.8138542
  12.9682776  55.0764179  18.6828697  68.0109052   7.5384475  37.9311466
  68.0828885   8.1035663  38.7003613  68.6451844   7.8969718  37.3103523
  79.0006733  69.1562986  11.8470049  78.4601784  69.4441986  12.5826752
  79.0192699  69.9080992  11.2548196  52.1517614   7.9585315  39.2967510
  52.2179750   8.7780906  39.7868204  51.7783050   7.3359443  39.9205685
  76.1209154  46.9559860  17.5679195  76.7558384  47.4327898  17.0333564
  76.6024685  46.7242289  18.3620405  66.4602184  64.0547466  11.7898726
  66.7669296  64.6495295  11.1054802  66.5264416  64.5643616  12.5974238
  27.2497249  22.4318744  61.9123220  27.5086856  23.2946540  61.5886402
  27.1161819  22.5586273  62.8516483   7.3491236  47.2681427  32.3007703
   7.3599096  47.6119947  31.4075279   6.6350027  46.6307545  32.3034453
  62.5336313  55.8696556  58.5722733  62.8865957  56.0792351  57.7075672
  63.2021952  56.1765671  59.1846943  25.3351645  26.9650010   3.1982958
  24.8532061  26.8153838   2.3849308  25.4737333  26.0893134   3.5591376
   7.6928850  32.0306134  23.5359979   8.2600638  32.3905849  22.8541231
   6.9742151  32.6589656  23.6061454  22.0186476  14.4315222   1.0721934
  21.9998221  13.8624361   0.3027689  21.1186413  14.7453669   1.1600554
  68.5499096  64.2308712   1.1279648  67.9298067  64.0805674   1.8414854
  69.3931627  63.9449883   1.4792845  75.6089735  64.4470882  25.0610232
  76.3488197  64.0353107  24.6145940  75.8498764  65.3715229  25.1211190
  56.2149954  55.2626371  54.6215200  55.8532429  55.2970505  55.5070591
  56.3766718  56.1780119  54.3931007  31.0714173  24.6093369  10.3090334
  31.5036368  24.2870164  11.0999370  30.5477428  25.3526163  10.6082559
  55.0730467   0.4134057  47.5354576  55.0921059  -0.5354217  47.6603413
  55.9803295   0.6475033  47.3398209   2.0995995  55.9721802   9.0482682
   2.5825139  55.1547884   9.1703176   2.7004071  56.6528808   9.3514329
  38.8276649   8.7874007   8.1368291  38.1584024   8.5605699   7.4911773
  39.5752907   8.2337850   7.9114449  19.5069027  12.7442539  43.7955570
  19.3399215  13.4444213  43.1645918  18.6788058  12.2670996  43.8485718
  72.9850912  55.8775769  45.9780693  73.7068248  55.5111276  45.4671431
  72.9255819  56.7883085  45.6895208   1.5201994  29.4382094  33.7857342
   0.7258054  29.7457169  34.2223239   1.5083667  28.4888886  33.9077258
  13.2292076  55.8834516  25.9076762  12.8608891  55.0031684  25.8323359
  14.1101953  55.7454990  26.2556124  79.2263365  65.6470393  56.2705421
  78.8048220  65.1327698  56.9590807  79.1128945  65.1236294  55.4771948
  23.6173391   2.2859091  15.5997658  22.9583144   2.7892119  15.1216388
  24.4466877   2.5211176  15.1837277  25.3722259  61.7856251  46.9138861
  26.2077828  61.6746579  46.4602709  24.8992463  60.9702407  46.7475414
  57.9976618  71.2516765  26.3688207  58.5076153  72.0615019  26.3878393
  58.6448872  70.5647625  26.2091970  65.5582988  56.2294529  27.9434133
  64.9665165  56.8912743  28.3012104  66.4067221  56.4272808  28.3399916
   6.2357084  17.5428614  64.2862744   6.8646948  17.7051136  63.5832227
   5.6684677  18.3138725  64.2828212  15.4068395  65.9384625  34.1417360
  15.0870296  65.7613371  33.2571006  14.6575900  66.3259612  34.5941734
  23.6409541  72.8840433  16.4669108  24.3557616  72.6263806  15.8847666
  22.8877326  72.9949810  15.8867574  19.0981936  12.0295501  15.7180774
  18.9532602  12.9115415  16.0605931  19.6966016  11.6242313  16.3456571
  19.7587319  60.6833623  12.2962260  19.9237271  60.5998574  11.3570583
  18.9525434  60.1885532  12.4426985   6.5273019  43.1945561  12.1502519
   5.9821030  43.5534071  11.4500976   6.1384173  42.3414825  12.3432887
  70.8965425  65.2218606  12.2183001  71.6189651  65.8497717  12.2266876
  70.1511125  65.7097008  12.5684130  54.5674181   1.6406386  38.5923505
  54.5032692   2.5931638  38.5229778  55.4038811   1.4262035  38.1793451
  67.5315237  71.3264208  34.0662527  68.4457612  71.0446753  34.0982223
  67.5200176  72.0290534  33.4163260  12.7711149  70.4955511  32.2808313
  12.0698687  70.4111789  31.6347909  13.5413548  70.1276468  31.8476915
  58.3288002   1.3298830  43.2517338  59.2004871   0.9351464  43.2278490
  57.8326321   0.7783943  43.8566399  66.8857670  12.0858371  16.3661635
  65.9407663  11.9522798  16.4394009  66.9748068  12.9329228  15.9294140
   3.7915250  52.8873299  18.8780582   3.9053126  53.6849664  19.3948376
   4.5684954  52.3631404  19.0724182  17.6385852  71.2203004   5.8417434
  16.9980117  71.8334307   6.2022495  18.1381770  71.7390572   5.2112436
  36.9475766  73.3989068   0.2043447  37.7476426  72.9050867   0.0246981
  37.2170898  74.0727729   0.8284442  27.5157857   0.2923974  23.8165045
  28.2784486   0.5045134  23.2783747  26.9418597   1.0534550  23.7291312
  49.0368319   1.2475175  29.1494417  49.3192434   1.8739060  28.4830236
  48.6830902   1.7904906  29.8539114  50.6061908   8.1916067  60.4721713
  50.7531162   8.9038560  59.8498014  51.4608022   8.0489227  60.8790025
  15.0659343  62.6851712  39.0483737  14.9460813  62.2727083  39.9037933
  16.0092135  62.6418077  38.8916159  75.1817655  46.6542362  26.4336967
  74.7528362  45.7995437  26.3918257  74.5138287  47.2722267  26.1367464
  35.4320884  18.2417846  29.5049381  35.5378556  18.9137745  28.8315344
  35.9645081  18.5511851  30.2377629  63.6528909  71.8127455  21.3657141
  63.4069073  72.7367330  21.4101076  64.2905426  71.7005088  22.0707226
  70.0175011  60.9542070  37.3014140  70.6340313  60.9331857  38.0333161
  69.1599166  60.8262979  37.7068996  37.1448251  68.0049192  27.8244948
  36.6754266  68.4516870  28.5289741  38.0017158  68.4307985  27.7999306
   7.7638575  66.6706197  53.6268806   7.8182789  67.6173429  53.7572050
   6.9068881  66.4293204  53.9784622  38.9136811  68.3826600  15.0064206
  39.7948237  68.0988477  14.7629547  38.4304257  68.3987580  14.1803241
   4.0888902  60.7547735  10.5298543   4.3277546  61.5225349  10.0105107
   4.3578788  60.9756433  11.4215350  42.4002361  12.2953212  20.5409169
  42.4224091  12.4842846  21.4790177  42.5918818  11.3594496  20.4805136
  79.0635180  53.8748263  38.7462831  78.3011556  54.4524549  38.7091589
  79.8140430  54.4631885  38.6639929  76.6770506  72.7997919  45.8383179
  76.5393233  72.3939291  44.9824333  76.2342000  72.2160605  46.4542484
  24.2198014  16.6115940  34.8528886  23.3395529  16.9032669  35.0902081
  24.3206000  15.7691813  35.2960730  40.8102894  11.4166236  34.9327302
  41.1466646  10.5244863  34.8480201  41.0726595  11.6890347  35.8120394
  58.0416397  13.8898518   0.6612217  57.2559408  13.4615304   0.3214419
  57.7113251  14.6452786   1.1474859  49.7933912   5.2205360  44.2469120
  49.2380142   4.8924738  44.9541330  50.1358557   4.4320476  43.8259172
   0.5718557  12.6772281  63.6221714   0.5715220  12.1343943  64.4105635
   1.4319698  12.5285169  63.2293442  22.0771813   2.8877661  20.9178066
  21.8025684   3.2492784  20.0751162  22.3898745   2.0072213  20.7102156
  26.1730695  14.6556807  54.6455765  26.3161516  15.3500426  55.2887106
  25.5022407  15.0063753  54.0597200  46.0549947  61.9317518  14.9261808
  46.6019555  61.2759219  15.3585601  45.6082650  62.3815702  15.6433475
  24.8480129  25.6710958  19.2796266  23.9629984  26.0350704  19.3020725
  25.2727246  26.1190319  18.5480499  52.1002722  12.0021272  19.4571626
  52.2945929  12.2065175  20.3718734  52.0898771  12.8528988  19.0186298
   0.3391080   5.1273853  34.7832298  -0.5779830   5.3005034  34.9958467
   0.6871681   5.9774739  34.5140910  46.8251494  70.4061057  12.2336733
  47.6959447  70.7989480  12.2938406  46.9899515  69.4935538  11.9963467
  78.4112632  24.1277480  28.4368086  78.8010843  24.6601963  29.1301847
  78.2711796  24.7401762  27.7146316  51.1146355   8.6120915  30.3666878
  52.0598507   8.4634602  30.3401899  50.8456135   8.2903361  31.2271142
  58.6357158  66.0565160  12.7332342  59.0627986  66.3769226  13.5276973
  58.0927867  66.7887609  12.4412119  41.8586016   0.0632961  16.3630939
  42.0986319   0.5771029  15.5919778  40.9303570  -0.1349260  16.2393832
  61.8458271  20.7630992  19.3053401  61.6020012  19.8651850  19.0805495
  61.1587286  21.0550213  19.9044347  42.3257276  61.1934017  11.2523711
  43.1212493  60.6619893  11.2835658  42.4977370  61.9176410  11.8541372
  66.0556698   0.4767065  12.8644884  65.3717709  -0.1485868  13.1043136
  65.5850792   1.2925524  12.6937008   7.5689833  45.4266569  59.4938451
   7.4052612  45.2715662  58.5635907   6.9559900  46.1220965  59.7322375
  54.4630357  19.6741566  62.2108923  54.2193743  18.8033816  62.5249183
  53.6909052  19.9824306  61.7365352  28.2573291  70.8243631  27.8931904
  27.7014609  71.3745783  27.3413730  28.0338307  69.9285548  27.6405907
  43.8994475  71.0244043  15.1467681  43.2919332  71.2047710  15.8641410
  44.6327563  71.6206779  15.2982736  15.9731472  18.0127645  35.6007290
  16.4485168  17.1996069  35.7711101  16.1880243  18.5760951  36.3441801
  45.9840536  12.1826077  39.5387030  46.4444208  12.8385031  39.0151572
  46.6254139  11.9050157  40.1927948  63.9942857  68.2974526  47.9502928
  63.5251971  69.1097089  47.7594388  63.4364363  67.8410312  48.5801459
  19.8577567  72.9107270  43.3178854  19.0666219  72.9808013  42.7836323
  19.5447608  72.6101975  44.1710806  13.9975464  14.6972251   1.5238719
  13.1350708  14.4813275   1.1692511  14.0767705  15.6432867   1.4017132
  30.2687025   9.0885466  19.6616900  31.0684681   9.4347721  20.0575876
  30.1476097   9.6119648  18.8694763  13.8876506  58.3627628  34.6960640
  13.8922473  58.1902872  33.7545419  13.7292882  57.5074147  35.0954819
  20.2029296  67.0764826  41.1474419  20.2890416  67.5377868  41.9817162
  20.8888980  66.4092974  41.1707449  64.4934436  46.8318376  54.6419329
  64.9509474  47.6671466  54.7377473  65.1200434  46.2659040  54.1910196
  13.7393876  70.3009512  10.4088247  14.4484683  69.6581672  10.3924453
  12.9459210  69.7792520  10.5291271  73.7620950  65.7298069  34.9696422
  74.5571685  66.2479489  35.0946164  73.9144850  65.2498452  34.1556120
  50.5064746  67.7679078  35.8324933  50.6726571  67.4035226  36.7018843
  50.7975598  68.6776678  35.8944583  11.3212153  44.9076532   5.0319815
  10.5458327  45.1338838   4.5183367  11.5638038  45.7228278   5.4711539
  39.1926595  62.4831663  22.2221184  39.9132272  61.9691287  21.8577266
  39.0885421  62.1511053  23.1138158  10.9140150  60.4513737  53.4100974
  10.9703962  59.6243974  53.8888073  11.7884914  60.8329007  53.4872759
   5.7105130  11.4939427  46.2647009   5.8356732  11.8620539  45.3900242
   6.5533113  11.0939896  46.4790869  19.1478654  69.3262522   8.2871819
  19.3693086  68.7628345   7.5457275  19.5500155  68.8972567   9.0424776
  63.3228687  60.0439383   6.9872916  63.7863425  60.0132133   7.8242361
  62.8293447  60.8635690   7.0167553  41.0190125  69.5948951  39.7268653
  41.7669459  69.0328543  39.9291968  40.9541484  70.1863973  40.4766321
  77.2489262  63.4298919  51.9797659  76.3234806  63.3006106  51.7722368
  77.6719594  63.5416518  51.1284256  76.8366909  66.2640838  39.1320848
  75.9867406  66.6696142  39.3034291  76.8969941  66.2284850  38.1774497
  77.9074574  43.1317472  46.6518688  77.0947170  42.6330757  46.5681458
  78.3880281  42.6906443  47.3523760  54.4412994   7.6596594   5.0695306
  55.3970337   7.6067990   5.0662702  54.1776705   7.1817100   5.8558476
  36.5374251  74.1464339  24.0974712  37.4194165  74.4003992  24.3691850
  36.1220857  73.8284746  24.8991108   3.7517354  33.6808348  45.1489210
   3.3754668  32.8981352  44.7463894   3.3960250  34.4076848  44.6376562
  74.6839166  43.6162113  29.2468500  74.2749929  44.3534301  28.7935042
  75.1181841  44.0110801  30.0029731  12.5926705  31.6770505   3.4605968
  12.2173544  31.5155314   4.3262076  12.7964469  32.6123045   3.4586111
  21.7880511   2.1154192   8.0877942  22.6499677   2.4950665   7.9169184
  21.6044259   2.3390941   9.0001988  41.4755869  16.3405859  42.6217175
  40.5701303  16.2744308  42.9250383  41.4022350  16.4835274  41.6780949
  15.1376295   6.2909043  23.5715365  15.7167172   6.8274820  23.0302644
  15.2933681   5.3947675  23.2733488  31.1967822  62.5945924  27.7843022
  32.0380612  63.0500768  27.7525496  31.0732766  62.3838960  28.7098217
  15.8288594  59.7121070  46.4512062  15.4861756  58.8215886  46.3751841
  15.3421279  60.0945209  47.1813345  14.6966088  23.3387065  50.2869701
  14.6474826  24.2903161  50.3778362  15.6128788  23.1279397  50.4665756
  30.8800574  56.3899647  12.6969659  30.8486863  55.4346679  12.6454329
  31.2711211  56.5710043  13.5516739  75.9560347   6.7990118   3.2837099
  75.5736637   6.0511941   2.8245860  76.1999035   6.4536488   4.1424793
  64.6189594  24.9044655  43.1157303  63.8418412  24.5162581  42.7137136
  64.6318865  24.5489214  44.0043545  13.4782716  73.4270537  31.5419674
  13.4632107  73.4620874  30.5855274  13.3403822  72.5029628  31.7499924
  59.8350620   1.9540024   8.2196540  60.0381374   2.8777716   8.3667654
  58.8786983   1.9192052   8.1999415  22.6689243  21.9308376  43.3273506
  22.9378033  21.1100388  43.7399340  23.2408428  22.5927973  43.7158728
   9.1887327  15.1831317  31.8045545   9.1906496  14.5160997  32.4910665
   8.4852167  14.9159825  31.2129998  46.4668365  17.1117589  57.5312180
  47.3235150  16.8015286  57.2377980  46.1702093  16.4453909  58.1510556
  18.2010245   7.2056007  25.1129675  18.8749206   7.0019680  25.7615280
  18.1112492   6.4021456  24.6004915  41.7738390   4.9229988  32.3088551
  41.3426399   5.5553937  32.8836370  41.3212395   4.0969604  32.4792862
  65.0201035   6.0740465  28.8381028  65.2470827   5.4831964  28.1200433
  64.4608879   5.5501366  29.4117093  35.1488423  24.6289563   9.5243078
  35.4263473  25.2297139  10.2159107  35.9041905  24.5721078   8.9391166
  50.5931397  65.0942849  18.9886034  50.2331134  65.9702627  19.1274393
  51.3496705  65.2337746  18.4190118  35.6673636  31.7368099  64.5445729
  35.6583544  32.0347383  63.6349635  35.9742024  32.4949375  65.0418899
   0.3038951  63.4851943  15.2152324   0.4812499  64.1804300  15.8488119
   0.7575913  62.7192162  15.5668986  51.5843821  18.9368260  22.0766020
  50.9162235  18.6945701  21.4354229  51.0881901  19.2028606  22.8507161
  40.2829572  72.6281710   2.8667676  40.0721284  72.1036397   2.0943362
  40.4652234  71.9842129   3.5511130  61.1075020  22.8710413  45.6384611
  60.7252073  22.2203755  45.0496340  62.0002174  22.9917336  45.3148460
  68.8220406  19.7295237  23.3044362  69.2262173  19.8597264  24.1622949
  67.8875828  19.8711336  23.4559631  65.1419926   2.1181881  21.2100816
  65.3080130   2.1728979  20.2689767  64.8319244   2.9914826  21.4497590
  43.8811608  71.4695956   9.7247267  44.8265191  71.5892936   9.6341509
  43.6465331  71.9891720  10.4936361  69.7536743  71.6829310  46.7055225
  68.8212681  71.7612283  46.9073105  69.9139428  70.7397081  46.6759157
   5.8519101  16.2502646  36.9958544   5.1288050  16.7936850  37.3089743
   6.6244841  16.8094873  37.0772886  68.4018493  54.7526716  21.8260360
  67.6110351  55.2909802  21.7933726  68.4512603  54.3468498  20.9605312
  17.3293468  52.9001139   2.5743699  16.8223353  53.0469082   1.7758551
  17.4464580  53.7736891   2.9477090  23.0018926   8.3551282  36.1423540
  22.9397750   9.3098843  36.1708832  23.4484792   8.1197566  36.9556141
   3.6582418  69.4520359  17.0479512   3.7071606  68.7032537  17.6422274
   3.9147230  70.2014755  17.5853431  52.4969721  12.7182472  27.1500659
  53.3003521  13.2383227  27.1683168  52.7891159  11.8205869  27.3084688
  43.2356644  14.9632096   5.4228830  43.1174469  15.7367384   4.8716027
  42.3496628  14.6262729   5.5559713   9.8720904  73.2976893  20.6672168
   9.8898622  72.6901160  21.4066553   8.9628740  73.5935303  20.6221056
   6.2070223   3.3414245  27.1790195   5.2845522   3.5944277  27.1433401
   6.6826006   4.1719091  27.1976519   6.4332525  44.7522226  50.6600023
   6.8029587  44.8589280  51.5364516   5.6374685  45.2840814  50.6693506
  17.9595272  13.5401150  52.9956687  17.5937788  13.9778849  52.2270215
  18.9073221  13.5905573  52.8716719   9.0566485  12.9183933  59.0677035
   8.2993404  12.7081987  58.5213173   8.9729302  12.3400518  59.8258233
  20.2380896  29.9309087  17.1803916  20.0774479  29.0665984  17.5590634
  19.5177794  30.0596809  16.5632999  39.1511985  73.4449846  51.8411160
  39.2999574  72.9882982  52.6690912  38.2001325  73.5384639  51.7866516
  63.2971092  39.7201062  55.1367480  63.7196322  39.4871385  55.9634477
  63.9949771  40.1150775  54.6140540   7.5513788  15.3057122  46.9620132
   7.4849173  15.9343648  46.2432575   7.3062082  15.8054340  47.7407312
  32.9605341  16.3840377  25.3175974  32.6764727  17.1314728  24.7914028
  33.2456827  16.7690587  26.1462617  31.4884909  28.2255521  62.3953746
  31.4972087  28.9147815  61.7312071  32.1675487  27.6126620  62.1134556
  51.1898251  36.4245580  54.4847727  50.5290171  35.7945755  54.7723234
  50.6847115  37.1665442  54.1522861  54.9036571  45.4953478  14.3389130
  53.9986201  45.6689523  14.0800583  55.4037066  46.2191485  13.9616930
  70.4180098   4.6779862  47.8207636  69.8955584   4.2452547  48.4960556
  70.8134890   3.9596796  47.3269415  18.0255516  62.1392628  60.9434533
  18.8092657  62.4408528  61.4028737  18.2166942  61.2294289  60.7156343
   2.4167605  73.7990081  44.6710491   2.2985669  74.7448115  44.7589016
   1.8359228  73.5508311  43.9518356  49.7617197  16.6316819   3.5427928
  48.8406801  16.4635396   3.3436844  50.2172756  16.4804351   2.7146456
  36.1390213   3.4172371   1.9208824  36.2630514   2.4911765   1.7128861
  35.5348686   3.7346390   1.2496960  68.1823587  13.1028318  61.4438534
  68.2734632  12.8287351  62.3564339  69.0819454  13.1803036  61.1260891
  12.1959349  73.2592102  13.5765815  12.3418923  73.9215874  14.2519963
  12.1214028  73.7586714  12.7634311  12.8058430  48.3865665  59.4037056
  13.6593076  48.7954854  59.5472717  12.2007819  48.9012431  59.9377823
  15.5074668  37.0492125  12.5768185  15.0161529  37.5447202  11.9215977
  16.2623179  36.7043161  12.0998704  11.0356498  13.8813068   0.9580052
  10.7865977  13.9193322   1.8814528  10.4327846  13.2450535   0.5733454
  25.0975490  10.6770456  18.4910023  24.3925714  10.5108833  19.1168034
  25.8766842  10.3039718  18.9033091   0.1343914  12.5058234  33.7304735
  -0.4055027  13.2233763  34.0619326   0.5016848  12.8405750  32.9123855
  65.4344030   6.7450782  37.2716820  66.3086673   7.0893594  37.4543512
  65.3347202   6.8351480  36.3239563  12.0380521  48.1708908   3.1163111
  11.7253041  48.5191059   3.9512768  12.1562457  48.9435339   2.5637853
   7.8721949  60.4054581  42.0581579   7.7751967  60.7293187  41.1626482
   7.7570745  61.1810826  42.6071453  33.1635737   2.3783472  55.7120085
  32.9597139   2.0434396  56.5852261  32.5516891   1.9244444  55.1325226
  23.8624307  68.0633818  44.5721340  23.5508033  67.5289582  45.3025484
  24.2645808  67.4363308  43.9710379  10.4961681  29.6958089  43.5419893
  10.0786066  30.4740286  43.1728697  11.0539758  29.3662953  42.8373623
  17.0903742   7.1527463  21.7037582  18.0070460   7.3396701  21.9062519
  16.7863739   7.9281437  21.2319803  43.7972518  59.5476864  21.3406062
  44.7365495  59.5218681  21.5230370  43.4872457  58.6679565  21.5555573
  13.9586326  68.6900990  30.6001687  13.8147136  67.7453981  30.6554770
  13.5861918  68.9400123  29.7545552  57.9901075  21.7273211  40.1200438
  57.8771925  21.3555193  39.2452621  57.2703123  21.3583183  40.6318665
  35.1782104   9.0346406  49.9479139  34.9771806   8.1288884  50.1833356
  35.5571385   8.9757035  49.0708888  58.9883995  35.5633903   1.6238363
  59.6406937  35.1169968   2.1637255  58.2876635  34.9205804   1.5143305
  60.9066010  33.3430862  17.8814578  61.2253284  32.4409652  17.9101419
  61.3670588  33.7826347  18.5963047  41.6446706  63.6912130  25.8447719
  40.7266589  63.4762143  26.0098791  41.7550155  63.5629045  24.9026489
  75.9123373  22.9181147  10.2002120  76.0647535  22.5023055  11.0488021
  76.7641020  22.8920197   9.7642714  23.2279372  21.8997979  23.9626312
  23.0226588  22.8317404  24.0372896  22.4030161  21.4933705  23.6970067
  65.4939413  16.8192852  44.8562431  65.7005119  17.5983644  44.3399143
  65.5977917  17.1000361  45.7654285  58.7891360  54.9970171  64.3200637
  57.8955193  55.1611039  64.6213184  58.7117740  54.2367479  63.7436637
  72.3088646  21.6453600  38.5650635  72.8831911  21.7978287  39.3154860
  72.8176355  21.0785127  37.9853463  64.5296097  25.8635235  55.4801464
  63.5874462  25.6955385  55.4617071  64.8954964  25.2456546  54.8472166
  58.5965872  19.8538864   9.1295904  57.7333546  19.8140872   9.5412648
  59.0119076  19.0237570   9.3633151   2.1729080  57.3617956  63.6241827
   2.2017090  57.8726384  64.4331580   1.4980928  57.7879235  63.0957227
  22.1856761   3.8837147  39.6946239  22.5913739   3.6301509  40.5236912
  21.6607404   3.1240010  39.4426179  76.6605377  25.7927370  18.7503040
  76.7389154  26.7251611  18.5486162  77.4062586  25.6076550  19.3211555
   4.4773486  30.6482100  30.0385070   3.5690197  30.7434511  30.3250384
   4.9873117  30.6684113  30.8482981  77.6151514  10.7398307  32.4000788
  78.0651712  11.3978446  32.9299188  78.3117723  10.1548183  32.1022367
  22.2606015  11.3467348  25.6329679  22.2610855  10.5578780  25.0908089
  21.3592148  11.4214957  25.9462500  54.6998596  10.6283653  16.0832572
  55.5796003  10.9272444  15.8531368  54.7459793  10.4485428  17.0222831
   0.7168715  58.7295529  59.1350687  -0.2349956  58.8303110  59.1302288
   0.9977285  59.1465708  59.9495924  18.8131305  68.9614044  18.7346017
  18.9971276  69.1979127  19.6436906  18.0983754  69.5430850  18.4757483
   0.3438803  16.5287912   7.8453583   0.7453629  15.9157670   7.2295284
   0.5195995  16.1517990   8.7074673  45.5898476  11.9022048  50.6201124
  45.3816938  11.3902819  51.4016724  45.1922846  11.4125013  49.9001360
   2.3921534  27.7900028  40.9006929   1.5315767  28.0972576  41.1857224
   2.6105639  28.3480144  40.1542664  51.6738033   2.4155775  38.5408187
  52.2360754   1.6809729  38.7866640  51.9089890   2.6036012  37.6322126
   5.4109470  37.4214018  55.6510073   4.6196072  37.3548719  56.1854077
   6.0202829  37.9285270  56.1874444  60.1375198   8.6962891  42.7403355
  60.0678349   7.7901787  43.0409050  60.5848598   8.6349368  41.8963289
  16.5904065  46.0567425   7.9966843  16.6734286  45.6150793   7.1515375
  15.7404729  45.7725595   8.3329654  51.3661718  13.2897997  24.5851254
  51.8493652  13.4540761  25.3949213  50.8008575  12.5451422  24.7903943
  72.7599287  10.3140306  12.7175581  72.8666878  10.5542779  11.7971706
  71.8253756  10.4305267  12.8886545  56.8668461  11.5945446  12.5592494
  56.4728594  12.3882425  12.9212558  57.3126316  11.8891954  11.7650890
  43.3196660  55.9187864  13.5586035  43.7487479  56.1917113  12.7476585
  42.6100465  55.3437124  13.2723022  64.7642231  17.6464963  15.6408966
  64.5400429  18.4122133  16.1697185  65.1964474  18.0080140  14.8671281
  50.9295321  46.4562941   0.4811182  50.5757523  47.2608471   0.1019545
  51.7542934  46.7247963   0.8859677  72.0878029  36.2162542  17.8956568
  71.4496326  35.6308222  17.4879313  72.9336262  35.9200406  17.5593913
  62.8296328  12.3312330  46.2035561  62.5161171  11.5220952  45.7995272
  63.7832737  12.2753823  46.1428499  43.1897259   9.0422523  13.1484294
  43.6341619   9.3891323  13.9219820  42.6166773   9.7535783  12.8623199
  29.6512723  14.0121984  28.0132031  29.9462605  14.2662072  28.8876700
  30.4489541  14.0045404  27.4841690   1.3498541  42.4308825  38.9905953
   1.4367434  42.9100227  39.8146725   1.1335035  43.1030655  38.3443785
  17.6871912  34.7117996  55.3801090  18.3514015  34.2501735  54.8682904
  16.9324915  34.7719219  54.7944075  61.2192631  25.1599050  22.7522206
  60.7938623  25.6827617  23.4318423  61.6775799  25.8008051  22.2086906
  49.9460908  60.6559561  64.6048594  49.9463340  60.2830993  63.7232637
  50.8560773  60.9106575  64.7574377  63.6038017  37.1420050  40.6596994
  64.0909243  36.3226247  40.7466602  63.9934492  37.5726938  39.8988366
  62.6286077  19.3165100   2.2777002  63.3251905  19.9415958   2.4783865
  63.0892277  18.5053146   2.0631722  51.3183069  43.2421255  51.5244961
  50.4917049  43.4219980  51.9723797  51.2089014  42.3621368  51.1641121
  36.4320254  10.8246505  55.7604885  36.2807274  10.7066953  56.6982651
  37.3427987  11.1126876  55.6991863  42.9336739   0.7143692  30.4697108
  43.1265116   0.2451082  31.2813997  43.7814474   1.0525541  30.1813674
  74.8177910  13.4451652  42.7203035  75.6179333  12.9201317  42.7017689
  75.1093674  14.3334329  42.5148916   9.6802370  64.1723510  59.7841829
  10.4380552  64.7406408  59.6463880   9.8230211  63.4347221  59.1911006
  46.9322463  68.2529836  25.5172777  47.4355384  67.4774377  25.7651877
  46.0215112  67.9583864  25.5198193  55.6359196  23.5424352  21.6136217
  55.4559183  22.6384974  21.3552999  55.7111311  24.0175724  20.7860851
  60.6891584  18.6380267   4.3143538  61.6099167  18.7151361   4.0643793
  60.6514215  18.9937162   5.2022123  49.4886609  66.4411943   4.8653600
  50.2357932  66.4919089   5.4615617  49.7351237  66.9953679   4.1248327
  44.7124910  11.0573220  14.6403539  45.5749035  11.4544868  14.7617424
  44.3391085  11.0216868  15.5210066  16.9678732  15.3293526  22.9304123
  16.1163851  15.6469667  23.2309532  17.0581671  15.6858373  22.0466709
  62.9664326  11.3363898   5.4981285  63.0080652  10.7373595   6.2435544
  63.4192991  10.8734584   4.7932610  17.9343458   5.6853974  16.3903654
  18.1619021   6.3267064  17.0635486  17.5151392   6.2003511  15.7009327
  62.5892591   6.9192374  34.0843368  63.2651567   6.2609124  34.2455792
  61.8169308   6.5865302  34.5415592  74.4536114  29.9234390  38.2521653
  74.6771002  29.7311425  39.1628289  74.4398451  30.8794093  38.2056570
  46.2009211  70.5335185  60.3943807  46.3524791  69.6595165  60.7540798
  46.1528321  71.1033889  61.1619526  71.1863132  42.6097050  47.6388359
  70.3809830  42.1847811  47.9339779  71.7167326  41.8967902  47.2829664
  15.5022311   0.2656414   6.9416374  14.7405219   0.8449031   6.9635856
  16.2527585   0.8535339   7.0272440  45.7644796  41.3751602   3.8100722
  45.5826426  42.3148918   3.8188538  44.9002790  40.9638405   3.8244331
   2.4542157  71.9482078   1.8195775   1.5412061  72.0947518   1.5722330
   2.4113195  71.2945734   2.5175416  63.4827042  10.3368616  36.7414117
  64.1676426   9.6952307  36.5532470  63.9548588  11.1016214  37.0707202
  32.1690178   4.4294110  22.5819659  31.5809608   3.8902614  23.1108665
  32.3880768   3.8784999  21.8304729  66.8815231  60.1037550  41.1648512
  66.7346621  59.2550135  41.5823507  67.8016186  60.0851679  40.9015846
  72.7473974  41.6520166  15.8218443  73.1596375  41.1598301  15.1118875
  72.1835566  41.0142422  16.2595177  78.9180847  50.1062569  61.0712397
  78.2175680  50.6915530  60.7832596  79.0037056  49.4684061  60.3626865
  51.3228607  14.7657740  39.1685557  51.3171768  13.8328874  38.9542603
  51.9163752  15.1553881  38.5265541  52.4094105   2.4785782  29.4367099
  52.9635000   3.1985211  29.7381997  52.4653721   1.8251038  30.1338983
   4.6464483  10.5637094  55.6978071   5.2397577  10.7723829  54.9762315
   4.1353838   9.8193475  55.3800476  32.4777198  48.5848679   9.0800392
  33.4049869  48.3828201   9.2048704  32.0663905  48.3448340   9.9103510
  67.2714138  29.5533514  17.8239489  67.5486374  29.4692874  18.7362587
  68.0464506  29.3151975  17.3151946   6.6046663   3.8105765  20.8529043
   5.7731482   3.9079818  20.3888679   6.7877051   2.8715530  20.8218598
  48.2868433   9.1510236  34.3885493  47.9409170   8.7716562  35.1964140
  47.9380751  10.0423026  34.3739557  78.9378218  41.7936707  57.1701956
  78.7791146  42.1293688  58.0524397  79.1391981  42.5718451  56.6504622
  38.0672475  70.5757795  33.6107397  38.5486909  70.9668903  32.8817153
  37.1788903  70.9215196  33.5240364   7.3245808  51.8142270  59.9656057
   7.5181933  52.2872757  59.1563034   7.9377862  51.0792373  59.9659777
  74.4439268   0.3967999  14.6669459  74.2441559   0.1200338  13.7726736
  74.3098688   1.3445401  14.6599460  57.0265961  17.5112712  13.3038568
  57.3552465  18.1957781  13.8866687  56.1737776  17.2751033  13.6687708
  27.6085444  56.5795921   7.6170272  28.3115932  56.2547706   8.1795591
  28.0283948  57.2404038   7.0663154  33.0660649  63.4565340  36.4187026
  32.2930356  63.7271713  36.9140983  33.1178971  62.5103246  36.5537262
  59.6062183  14.2061257  29.8806858  59.9323988  14.9796057  29.4207215
  59.5072222  14.4915855  30.7889509  38.3904000   4.4133065  51.4673472
  39.3422195   4.3167899  51.4364422  38.0757829   3.5764955  51.8093860
  61.1335182  17.4701381  32.4612498  61.8446064  17.3509049  33.0908298
  61.5438890  17.9105139  31.7170072  70.5932951  39.7118092   7.7290773
  70.0219536  40.2801943   7.2126091  70.2926207  38.8251710   7.5298280
  17.3735686  53.0160020  27.7061296  16.8067666  53.6303590  28.1725407
  17.3062345  52.2019123  28.2050848  54.7938776   4.5986244  57.8819036
  55.1396132   5.3594792  57.4152136  55.5664206   4.0718648  58.0866814
   6.1830660   8.2299161  27.9491591   6.0467287   8.3883303  28.8832617
   5.8464094   9.0170920  27.5210905  24.6237227  20.3904939  35.4723215
  23.6690661  20.4579473  35.4900813  24.8119208  19.5468926  35.8836007
  62.3752546  37.8858209  45.0586748  63.2473564  38.1455255  45.3557014
  62.2668171  38.3293676  44.2174006  40.5304309  62.1792971   0.3888768
  40.0221892  62.8450583  -0.0744590  40.4187270  62.3941539   1.3149387
  61.7349339   3.8273644  22.9505062  62.5778866   4.2738134  22.8708577
  61.8648720   2.9893088  22.5066495  46.4635416  38.2753274  44.9171686
  46.6447922  39.0922317  44.4523585  46.5959330  38.4906152  45.8403993
  16.4883327  19.3031633  61.9206095  16.2024915  19.9109793  61.2386370
  17.3366320  19.6436393  62.2046804  76.3061476  12.1480286  22.9388881
  75.9290028  11.3924849  22.4881721  75.6471920  12.3928380  23.5885644
  56.5026379  27.9166746  24.1225624  55.6401920  27.7146053  23.7598157
  56.7555714  27.1235609  24.5950317  57.4421378  58.6133920  15.2097654
  57.1792956  58.3783721  16.0996592  56.9024154  58.0589269  14.6462917
   7.9730010  31.7699553   5.6758845   8.6842704  31.7350830   6.3155043
   8.4135413  31.8840881   4.8337853  45.8145638  61.1722730  32.6112795
  46.6896602  60.7851897  32.5867176  45.7882901  61.6526412  33.4387994
  26.5913936  55.0087606  24.8241115  26.6315242  55.1892673  25.7632804
  25.9279891  54.3238901  24.7399783   7.7915116   9.2541574  50.9241486
   7.8381678   8.3670114  50.5677462   8.0685111   9.1609691  51.8356407
  16.8922754  35.9921551  30.7161856  17.2698637  35.2617741  31.2062931
  17.3037192  36.7706394  31.0915661  38.4973621  12.3758113  48.9008522
  38.8412142  13.2618570  49.0145254  37.6443243  12.3924398  49.3347645
  52.4453783  20.0999594  49.0621853  51.8270779  20.7281351  48.6889124
  53.1854296  20.1026726  48.4550953  13.8050338  64.8180156  10.9050035
  13.4105464  64.1807817  11.5004408  14.5615502  64.3633543  10.5346000
  65.1662493  52.7545357  26.0121894  66.0827827  53.0299759  26.0302091
  64.7122002  53.4629011  25.5557966  20.8783671  25.8710265   5.2846205
  21.7868754  26.0289240   5.5413550  20.8934542  25.8881521   4.3276930
   5.2149340  27.9076479   2.9945764   4.5377894  28.1099700   3.6401555
   5.1540824  28.6159752   2.3536384   6.1077162  11.0816693  53.5094070
   6.6978403  11.8346310  53.4772921   5.9368273  10.8719587  52.5912285
  63.6907244  41.4543104  13.8697231  64.4180965  40.8874273  14.1262543
  63.9948511  41.8882179  13.0725622  12.9669901  37.8584814   7.6592487
  12.9822107  37.1146679   7.0569700  12.3756930  38.4883404   7.2470921
   6.5981313  52.5224255  12.0098925   6.7946669  53.3774541  12.3926878
   7.4278995  52.0467137  12.0475304  75.0977945  14.1359496  12.0295238
  74.3680716  14.5062399  12.5261343  75.7947302  14.7876048  12.1060586
  27.2737670  42.3742159   3.7662470  26.3453269  42.5781788   3.6538374
  27.3742843  41.5000786   3.3894026  16.2729780  34.6974778  62.9648428
  17.1773760  34.6934712  62.6513496  15.9013264  33.8795957  62.6344249
  51.3715859  65.6561576  45.2126312  52.1499415  65.1739328  44.9336147
  51.7160245  66.4415042  45.6378603  11.2585517  56.5335785  38.2610250
  11.1945292  55.5796228  38.3068752  11.7199441  56.7814468  39.0622163
  29.7441693  72.8576192  62.0100117  28.9530870  72.8864461  61.4718771
  29.5303889  73.3865266  62.7786350  47.9058266  42.6632309  10.5937612
  48.6463690  42.0572567  10.6186604  47.7757502  42.9201078  11.5066278
  76.2348938   3.0930278  38.3633184  75.4655790   2.8501105  38.8784647
  75.9615326   2.9737028  37.4537754  50.6391144  17.6260376  29.3331122
  51.0524178  16.9955814  28.7432504  50.0072050  18.0896056  28.7835455
  19.2722198  50.5894064  17.5569355  19.1841050  50.0797223  16.7515254
  19.9870225  51.2000583  17.3769462  52.8962660  30.5372095  16.8480027
  53.7054062  30.2005887  16.4630210  52.3921156  29.7540379  17.0686996
  78.6876678  57.2838019   7.9668635  79.3513560  56.5948211   7.9343539
  78.8802194  57.8377329   7.2103477   0.3848311   7.9257727   5.5778652
  -0.5490736   8.0885231   5.7103950   0.6633564   7.4690133   6.3716072
  49.5661946  70.0689255  27.1868706  49.7944661  70.7391448  27.8310204
  48.6165162  69.9767806  27.2633767  69.3885183   8.6938030  22.1400857
  69.9314833   9.3856215  21.7621851  69.1464281   9.0248537  23.0049706
  35.5902620  66.8434858  21.1962342  36.1707636  66.5548229  21.9004464
  35.7873102  67.7741098  21.0897207  68.7369013   7.5836134  15.2217114
  69.3688154   7.4556470  14.5142210  68.0482817   8.1230915  14.8331237
  76.0735130  12.2208798  16.0961282  75.9411478  12.1434307  15.1512933
  75.6733274  13.0594480  16.3260996   1.0326620  41.1620687  13.6379766
   1.7912980  41.1778139  13.0544937   0.2843638  41.3195036  13.0622172
   0.7300469  23.5331297  17.6204991   0.1660820  22.7790546  17.4486005
   0.1473614  24.1835999  18.0124128  33.6810084  65.9920894  27.1169877
  33.3758517  66.2427031  26.2450361  34.0321227  66.8009059  27.4895048
  69.1554928   4.6547848  44.0938091  70.0543785   4.6235165  43.7663031
  69.1699362   5.3334433  44.7686768  14.1557257  43.5777154  59.6027392
  13.9497654  43.6841956  58.6740440  13.3186810  43.3539644  60.0095821
  64.1305014  20.2101263  56.4315939  63.2736774  19.7835561  56.4206684
  64.1139694  20.7607373  57.2144008  46.5623331   5.3763700  38.6176467
  46.2604237   5.8890200  39.3674970  45.7635307   5.0018138  38.2463598
  75.4204059  66.9533770   3.2789835  74.9997949  66.5278714   2.5318134
  75.6569934  67.8232835   2.9572362  78.7090091  60.6718733   3.9791023
  79.6127824  60.9389545   4.1467154  78.1943397  61.4664986   4.1202223
  20.0630494  68.5451029  13.7255538  20.5669137  69.0299074  13.0718589
  19.8403617  69.1981863  14.3889713  44.2599841  56.6566108  27.5491881
  43.3289262  56.4367055  27.5808716  44.3292256  57.4764584  28.0383587
  68.8469124  16.8523407  20.7399154  69.4522715  16.9774210  21.4707541
  68.8045549  17.7088678  20.3147125  47.5677347   1.3156879  10.0094283
  48.1545067   0.7290335  10.4866779  48.1178474   2.0612705   9.7691923
  13.1401964  68.4221791  19.9451017  13.7793990  68.1330727  19.2938936
  12.7614757  67.6115774  20.2852869  63.8030577  19.4722104  33.5833049
  63.5718346  20.3514791  33.8827300  63.5518694  18.8988209  34.3074322
  44.5513459  70.7394733  25.0574493  43.9790793  70.1090078  25.4947758
  44.1398498  70.8857988  24.2056942  15.2609484  19.1062543  56.2304962
  16.1735193  18.9119312  56.0167635  15.1845305  18.9020499  57.1625328
  77.2386074  22.5166917  20.1958036  76.7208385  21.7255116  20.3447318
  76.6039848  23.2314324  20.2470851  77.9021025   2.4653505   2.1588956
  77.5996113   1.7993969   1.5414530  77.7943087   2.0605846   3.0195796
  53.7894440  17.1429098  23.5241866  53.6075306  17.5871480  22.6960588
  54.5941877  17.5512838  23.8433218  59.6863651  20.9093595  21.4564323
  58.7399483  20.9707546  21.3269591  59.8280478  20.0152683  21.7674899
  24.0048385  62.3496153   9.5788586  24.3985486  61.4812471   9.6634590
  24.7416139  62.9286625   9.3836748  58.4625912  49.9702024  12.5390995
  58.7874365  49.9274158  11.6397250  59.0943766  49.4606209  13.0464506
  65.1572704  28.4017611  39.5376134  65.3146696  27.4957943  39.8034716
  64.3532896  28.3631229  39.0195847  59.7412157  26.8034673  12.7682185
  59.5254707  26.8495727  11.8367887  60.3479958  26.0663986  12.8373265
  66.0044098  18.2798231  35.6828046  65.5792475  19.1004491  35.9318900
  66.9316530  18.5043919  35.6052303  33.9956379  26.7574406  23.9454269
  34.3688297  25.8926892  23.7746620  34.4719458  27.0767665  24.7118449
  53.6904784  59.5360111  30.0582719  53.9065143  59.7012685  30.9760141
  52.9860278  60.1539563  29.8630166  71.7013502  26.7796779  18.0430555
  71.6627979  26.0813856  17.3895025  70.9581423  26.6078448  18.6212838
  58.7699795  14.0812981  58.4566736  59.2632484  13.7488055  57.7067614
  57.9788351  14.4604886  58.0738735  56.4420319  31.7669797  39.7655082
  56.1338711  31.9721985  38.8828111  56.3611221  32.5913787  40.2451468
   4.4048063  63.4986111  53.7173176   4.2247574  64.3217680  53.2631946
   3.6607115  63.3833834  54.3083143  47.3348904  21.2759829  58.1581020
  46.5348196  21.7984629  58.2141161  47.9004574  21.7671251  57.5621653
  14.1967055  47.6543045  33.0705905  13.3833452  47.9702187  33.4641409
  14.6361490  48.4461594  32.7606130   9.2242615  73.3375689  58.2558275
   9.5656721  73.9200946  57.5773484   8.4215967  72.9763457  57.8796941
  71.5098449  42.1819709  53.0036640  71.9087478  42.4275373  52.1689141
  70.5697127  42.1661351  52.8243959  65.2267933  24.8170352  20.4067516
  66.0821199  25.0778389  20.0652432  65.3625250  24.7281027  21.3500977
  11.2178433  41.3389015   8.1643039  11.4989352  40.7027674   7.5066197
  10.9603226  40.8070087   8.9172989  54.8238254  54.3558170   1.1868536
  55.7418895  54.3487849   0.9160197  54.5072532  53.4757616   0.9830963
  74.0378571  21.2735653  21.6978669  74.5137787  22.0751739  21.9150257
  73.2448196  21.5779257  21.2566352  37.2691321  13.2410860  29.9113941
  37.8268838  12.5524092  30.2731514  37.7327466  14.0543604  30.1110911
  64.5751095  20.6980848  22.5381470  63.7122536  21.0068798  22.8144813
  64.4036579  20.1807261  21.7512703  73.0522013  35.4068875  24.7225046
  72.4506044  35.6419134  24.0160561  72.5222349  35.4645276  25.5175161
  61.2163591  58.8860178  50.7072735  61.9319057  58.5815144  51.2654018
  60.4772186  58.3228111  50.9368467   6.2989279  25.3970408  15.1279283
   6.6860148  24.6430588  14.6830678   6.8620917  26.1325145  14.8867881
  60.7201099  26.4753246  16.0141850  61.5416145  26.7583275  15.6125998
  60.1207733  27.2087479  15.8758950   6.1654421  41.6693974   4.1061047
   7.1220633  41.6740561   4.0731576   5.9102102  42.5307178   3.7756255
  44.6288919   4.8040700  13.5820544  45.3074789   5.4017907  13.8958776
  44.0967321   5.3355372  12.9899549   7.1074816  19.1485548  37.3884368
   6.4470431  19.6351588  37.8816652   7.8610369  19.7376382  37.3514628
  51.4405461  13.1068490  48.7439573  51.3068934  12.7735398  49.6312428
  50.7411548  13.7487672  48.6213601  56.9023991  32.8898859  31.6288304
  56.4884710  32.0391393  31.7741847  56.4152002  33.2716632  30.8986831
  14.2850920  50.4821348  11.3327301  15.2333304  50.3713417  11.4021266
  13.9214178  49.7578859  11.8420780  56.9993305  28.2951331  19.6183217
  57.0193624  28.9402986  20.3251410  57.8382921  28.4042454  19.1705918
   5.6121584  24.2278910   5.4188937   5.3714319  24.9251842   6.0288656
   6.4778372  24.4794536   5.0971007  24.5810171  48.4261894  25.6750607
  24.8873469  47.6003361  26.0497165  25.2231260  48.6340284  24.9962831
  61.1764499  73.3880647  14.0978968  61.3769599  74.3047359  14.2869520
  61.0853740  73.3542791  13.1456387  32.7123169  15.2837447   1.9897330
  31.8750624  14.9593857   2.3214304  33.0406908  14.5759467   1.4352762
  44.7972488  45.5057859  10.1446366  45.3806925  44.8144579   9.8317629
  44.0185881  45.4298592   9.5931292  38.3349442  11.3193452  25.4049873
  38.1479120  12.2382796  25.5968475  39.1115952  11.3446307  24.8460555
   6.7633764  62.5101945  61.3989607   6.2527935  62.9283997  60.7056809
   7.4757282  63.1246540  61.5756786  67.9998159  12.3789275  21.1079335
  67.6149130  12.0098984  21.9028544  68.8589239  11.9620228  21.0419679
  22.8632303  25.6047225  11.5804994  22.3244425  24.8512459  11.8217552
  22.9499098  26.1065292  12.3909986   8.0302282  34.1046071  12.3121440
   8.9469000  34.3796659  12.2952521   7.6734396  34.4089079  11.4776766
  73.5444021  10.9658551  48.8185596  73.3787680  11.7521203  48.2983828
  73.5413647  10.2518606  48.1810379  60.6555605  14.4887030  25.0876188
  61.1875057  14.1028166  25.7835746  59.7522593  14.3142080  25.3518748
  64.5038509  43.8159990  23.7104535  63.8970804  43.2883930  24.2297792
  63.9389133  44.3689442  23.1707001  72.2079182  10.4273570  19.0585089
  71.7847109  10.1216567  18.2562137  72.5269318  11.3035131  18.8421440
  76.1335421  29.6795559  52.5429869  75.2849674  29.8973012  52.1573162
  76.2497997  28.7480783  52.3557281  13.1582447  68.7610673  27.7988505
  12.2785684  69.1137634  27.6646590  13.3939715  68.3775817  26.9541001
  53.8433075  30.1855659  19.8087549  53.3710814  29.9324059  19.0155709
  54.6554613  30.5784082  19.4888890   9.7577425   6.9646996  56.6439342
   9.8822161   7.8606784  56.9569206  10.0132223   6.4146429  57.3844719
  61.7720747  33.0894256  22.0111799  60.8397961  33.1913280  22.2027636
  62.2128344  33.6111069  22.6818562  51.8975592  72.4327469  13.7829649
  52.4398661  72.2249126  14.5438480  51.0468721  72.0411587  13.9810085
  67.6097584  17.0230508  31.5416479  68.4410429  16.8673313  31.9899178
  66.9616556  16.5576112  32.0703864   1.5482279  17.0549572  37.3096323
   1.2933203  16.3936973  37.9530525   0.8185908  17.0805931  36.6905975
  45.7493782   0.2253228  34.4130349  46.2870264  -0.2557444  35.0421166
  45.3860378   0.9539595  34.9163294  10.6383558  45.5617523  42.2194242
  10.3253218  44.6921968  41.9701958  11.3524767  45.7434368  41.6084814
   8.7494227  65.6791973  42.8103352   7.7936407  65.6554031  42.7640343
   8.9430090  65.7151747  43.7470675  59.5843887  56.3137770  34.4863534
  59.3740940  55.5388689  35.0074387  59.1376400  56.1698914  33.6521196
  58.5486031  30.4261589  41.2757635  58.1702900  29.9651432  42.0244789
  57.7920341  30.7239151  40.7706165  18.7288805  30.1601100  23.2190895
  19.1088339  31.0142446  23.0133700  19.1865870  29.8789048  24.0113378
  57.3460265  63.7679194   4.2535764  58.2823440  63.9401554   4.1542634
  57.1997710  63.7773489   5.1994896   9.8992133   8.0494453  14.0905058
  10.4313874   8.7410976  14.4837332  10.4567170   7.6775981  13.4070230
  11.4971419  72.9240063  18.2380807  11.6879912  71.9860949  18.2495177
  10.8054300  73.0356442  18.8902330  59.7119904  28.6637068   6.2199593
  60.5795813  28.6627316   6.6243309  59.8513842  29.0489388   5.3548592
   7.8869196  21.1459517  30.2070475   8.1491991  20.8680844  31.0846758
   6.9922014  21.4684176  30.3153038  60.8402320  64.7091048  36.9677711
  60.1050445  64.5646809  36.3720512  61.6120311  64.7029244  36.4016294
  58.5109949   8.1241745  16.5388131  57.6706219   7.7517658  16.2717676
  58.6521816   7.7868611  17.4234140  37.2899103  13.7359262  24.4627094
  36.4508724  13.7810004  24.0042162  37.1559620  14.2507434  25.2584791
  61.3718557  34.6178150  40.7013655  60.8200932  35.3837991  40.5430698
  61.6480875  34.7060061  41.6135836  74.1497898  13.2449651  29.1599011
  74.4243574  14.1200864  29.4337749  74.4860029  12.6639533  29.8422623
   2.9765268  12.9787970  37.9930210   2.1749254  13.2051706  38.4646320
   2.8050371  12.1085632  37.6331353  71.6551590  13.5222125  30.3906035
  71.8960190  14.1168261  31.1009908  72.4711657  13.3788085  29.9112344
  68.5588598  48.3494949  39.1865635  69.4194651  48.7105370  39.3992424
  67.9417562  49.0354872  39.4411802  32.0302653  23.8503291   0.2263367
  32.3497462  24.6042087   0.7221472  32.7962184  23.5386946  -0.2557695
  38.7119047  62.5486585  56.7746157  39.2223303  62.5636217  55.9650076
  37.9987757  61.9354054  56.5968508  71.3864326  20.9323001  10.2052808
  72.2431135  21.1277270   9.8256224  71.1006927  21.7605591  10.5907309
  21.4200517  63.5678612  22.3953485  20.9711476  63.4463106  23.2319736
  22.3475429  63.6188887  22.6263928   6.1391902  55.4920043   2.7269566
   5.8449292  54.7744860   2.1658766   6.5209985  56.1279954   2.1220076
  68.3720160  59.4428825   2.1682459  69.0720320  59.5268965   2.8156668
  68.5184908  60.1686478   1.5615794  59.9819374  26.7722249  24.6707296
  60.0569963  27.4945903  25.2942586  59.1062164  26.8688273  24.2965484
  77.3392200   0.5634149  15.5938601  77.5055265   1.4467148  15.2646863
  76.5997505   0.2492028  15.0735807  29.4634267  63.9184676   7.9516560
  29.5982572  62.9807662   7.8146559  30.2957412  64.3192612   7.7009708
  67.2473764  27.8805804  34.7761536  68.1855774  27.9043555  34.5878863
  66.8636942  28.5053468  34.1607785  11.9844334  73.9113280  55.6270790
  12.2439282  73.0585667  55.2782333  12.7622978  74.2294237  56.0853094
  65.4388142  45.0729561  18.6344755  65.6390667  44.2943716  18.1149220
  65.8605099  45.7909346  18.1623375  57.3325062  25.4665875  25.8275390
  57.4993420  24.7775483  26.4706755  56.6671658  25.0966287  25.2472949
  69.7026205  18.7346697  45.8703709  69.7003508  17.7804589  45.9459209
  69.8578978  18.9009476  44.9406004   7.1613928  25.5096531  55.9964418
   6.3202616  25.8316255  56.3205767   7.0375296  25.4258132  55.0509977
  76.3358974  27.0240283  51.4009428  75.6100893  26.7727923  50.8297014
  77.1096611  26.9781590  50.8393288  58.7949896  28.2614040  14.8014534
  58.7297440  29.1069651  14.3576026  59.0844011  27.6548314  14.1198802
  61.0868597  30.5287409  45.3549290  61.3662243  29.6663737  45.0475025
  60.7883930  30.9794998  44.5650148  16.4187952  38.9254045  32.3403835
  15.9550806  39.5180035  31.7487574  17.1996351  39.4124293  32.6036882
  66.9289255  23.4233356  24.4617176  67.0505285  23.4627223  25.4103470
  66.3324547  24.1460681  24.2664957  63.0784512  26.6931272  30.6383801
  63.8492584  26.1324286  30.7261562  63.4200001  27.5838542  30.7169843
  70.0836249  23.7823413  58.1626874  69.9703857  23.0284665  57.5838256
  69.2139598  24.1791795  58.2120532  -0.1269583  36.8123198  62.7053213
   0.6794354  36.9784427  63.1935453  -0.0620941  37.3782253  61.9360495
  75.0478172  42.5263739  17.1482325  74.1903067  42.2190905  16.8541443
  75.5676556  42.5886965  16.3469124  70.8924961   8.5293788  55.5036736
  71.3742590   9.3284810  55.7171392  70.7080269   8.1269753  56.3523626
   0.7137200  29.3179011   9.7806066   1.2449499  29.5705509  10.5357206
   0.3986403  28.4392667   9.9926353  28.5962912  12.3110521  16.5503144
  28.8548609  13.0070877  15.9462380  28.0995413  12.7599204  17.2344112
  47.6298277  67.7375170  44.0201199  47.1413748  67.3085519  44.7227121
  48.4692328  67.9681322  44.4181764  75.9087038  25.2302527  44.5416212
  75.1006651  25.5793595  44.1655540  76.2158918  25.9192514  45.1308107
  72.9775000  23.4244418  27.0201206  72.3101854  23.8367844  26.4715791
  73.0386972  23.9908028  27.7893567   5.0853773  21.7765403  30.9432960
   4.9058005  20.8918715  30.6249499   4.2480990  22.2337914  30.8650970
  50.9902859  22.0331812  47.5597668  51.3857031  22.7929926  47.9870462
  50.2581882  22.3937583  47.0595121  76.6233417  68.6087959  41.4577818
  76.0860988  69.3731253  41.2494469  76.1901256  68.2100497  42.2124720
  29.1296049   5.1574951  17.8107035  29.3116423   5.3821772  18.7231791
  28.4255072   5.7526869  17.5533640  17.9872175  12.5308311   1.4365624
  18.0050989  13.2144809   2.1062894  17.0869871  12.2058094   1.4500624
  61.3137150   6.5093958  13.4368086  60.7469511   5.9220827  13.9368832
  60.7357740   7.2193205  13.1571186  74.3532467  27.8185296  46.4262962
  74.5060110  28.7531543  46.5654850  75.2213144  27.4210978  46.4951229
  16.5249582  36.7508531  33.8600492  16.5343996  37.5392127  33.3172488
  17.1724173  36.1736131  33.4552908  71.5819836  32.1945429  40.1615620
  71.1695862  31.8557739  40.9561634  71.5551615  31.4615107  39.5465994
  13.1789633  12.8361428  43.5579538  13.9274450  12.5464368  44.0795565
  13.0554052  12.1422172  42.9103184  17.0687910  57.5521851  55.9453392
  16.1673781  57.4478674  56.2499714  17.3760172  58.3503532  56.3751841
  52.1439648  38.2112741   3.9644691  52.0069265  38.4620333   4.8780185
  53.0939054  38.2355857   3.8493374  77.9107380  47.5949669  33.4595418
  78.3537054  48.4037971  33.2030177  78.6018276  46.9326782  33.4584069
  25.9291598  41.5169907  29.5013380  26.5327784  40.8249474  29.2312169
  26.2735983  41.8209124  30.3411150  69.4367790  45.9917212  20.5104518
  69.7004175  45.3420830  21.1621404  70.2611113  46.3584900  20.1907897
  17.5746958  71.0274741  42.1648157  17.5150101  71.9823405  42.1348441
  18.4104960  70.8264038  41.7438185  71.3476562  43.0271244  13.3378994
  71.8251038  43.8407946  13.1759620  71.6330099  42.7512789  14.2089403
  26.4205098  53.5147953  11.7139852  27.0906019  53.6801147  12.3772192
  26.9034648  53.1547356  10.9701145  61.7523384  34.9938726  32.5469375
  60.8405542  35.0278330  32.2575855  61.8215895  35.6878972  33.2025027
  29.5541783  70.2991708  35.7665110  29.8651477  70.1974921  36.6660619
  29.4349834  71.2428753  35.6595230  60.1454306  25.5851412  36.0024929
  59.4177437  26.0044765  35.5432940  60.8180046  26.2641191  36.0559678
  66.7116833  35.2478456  37.8169179  66.2760878  36.0875845  37.6708889
  66.0664749  34.5935392  37.5489211  52.1909332  15.6860077  21.0964036
  51.4120293  15.4359388  20.5994081  51.8756104  16.3350856  21.7252922
  62.1236706  27.9905629  28.1612778  62.7271271  28.3942699  28.7850547
  62.6904011  27.5201201  27.5499439  14.8730990  16.6765201  51.2058401
  14.4526144  16.0386014  50.6292295  15.6709715  16.2400854  51.5044355
   1.3387629   3.6766210  16.5759766   1.6829439   4.0790567  15.7785952
   1.4436670   2.7358446  16.4339674  62.7813148  18.9801610  26.7940187
  61.9303656  18.7663937  26.4113712  62.5704432  19.3929803  27.6314831
   0.5910055  56.9005951  33.7156689  -0.1165922  56.8540808  34.3586076
   1.3920538  56.8444118  34.2366278  66.7989492   3.2191494  39.4555879
  66.1559296   3.0104512  38.7779450  66.2942743   3.6660299  40.1351690
  38.8571664  43.1692622  63.0942980  38.9810296  44.0811561  62.8309846
  38.9485856  43.1805442  64.0470553  13.1868502  57.3335457  12.6669705
  13.4407755  58.0751181  13.2163572  13.3726641  57.6226234  11.7735839
  71.6611719  34.1091037  12.3669720  72.0893955  33.4282398  11.8480492
  70.9006071  34.3651319  11.8452191   3.1986853   3.9321220  36.2448883
   3.5522219   4.4164336  35.4987764   2.8158232   3.1441259  35.8592486
  40.3915998  70.0262149  42.4850988  40.6259128  69.4682424  43.2267141
  39.7330113  70.6260596  42.8353500  62.8108549   6.2277496  24.4445229
  62.4686575   6.2736356  23.5517597  62.1460915   6.6627228  24.9784851
  66.4215374  13.7736368  34.8812342  66.8464756  13.2167614  34.2288923
  65.8037663  14.3037736  34.3777061   6.7092081   7.7374065   4.4215006
   7.1357580   7.7912974   5.2767086   7.4162718   7.5184989   3.8145590
   4.0555521  15.8838022  21.0143089   4.5247408  15.7963014  20.1845884
   4.5825430  15.3879368  21.6409135  70.1525164  19.0733492  50.6630373
  70.3720331  19.9729896  50.9052992  70.9683371  18.7130690  50.3153753
  31.5200564  35.3783822  22.0658875  31.6745325  36.0453200  21.3968873
  30.7182928  35.6613755  22.5055718   6.4310309  56.1289167  24.8930264
   5.7633349  55.6223583  25.3554392   7.2594019  55.8369923  25.2735519
  70.1309586  23.4077406  36.5609789  69.1754055  23.4198070  36.5061069
  70.3941488  22.6812363  35.9960437  23.3190680  11.4966965  63.4534836
  22.8783536  12.2220683  63.0109501  23.5137677  10.8724606  62.7544498
  53.7610197  28.7457776  50.9392738  53.8472986  27.9094696  51.3968515
  53.1169224  28.5771871  50.2515602  60.2675434  51.6075799  44.3631065
  60.1766249  51.0825333  45.1582742  60.6436892  51.0059997  43.7205756
  69.2105722  34.0395355  42.3869324  68.7699556  34.0610051  41.5374470
  69.5460320  33.1460452  42.4602365  61.5634871  59.0862799  35.2509379
  61.7519379  58.1567907  35.3804278  62.0408487  59.5275927  35.9535050
   3.3737513  24.4063592  54.0995646   4.2329928  24.0072322  53.9630699
   2.7600237  23.8026118  53.6811590  10.8831831  12.0976377  17.1387017
  11.3317724  12.9111004  16.9078851   9.9565169  12.3355007  17.1692789
  52.0951414  29.8166776  22.0402718  52.8953218  29.3154907  22.1975946
  52.2597456  30.2789354  21.2184119  65.2402258  54.7076559  32.2744751
  65.5581760  55.5548048  32.5866771  65.2114010  54.1589880  33.0582905
  30.8084627  18.4496129  24.0673661  30.6765314  19.3326974  24.4123125
  30.9933802  18.5808766  23.1374168  31.6412326  17.6259301  62.1331327
  31.2402888  18.4809516  61.9768897  30.9041997  17.0485757  62.3323322
  12.2751661  26.5946865  32.2431350  11.8023630  27.1185637  32.8898525
  11.5905615  26.2375665  31.6774321  16.1101195  56.1243963  33.5912490
  16.2614962  56.9024467  34.1278648  16.8440767  56.1106157  32.9769588
  11.0643240  71.9819498  27.1254158  11.9806334  71.8236876  27.3524833
  10.6344839  71.1376476  27.2618890  64.7996807  33.7841558  43.7069416
  64.3083477  34.2840409  44.3588161  65.5289793  34.3556643  43.4666777
  27.1410894  29.6253181  10.7587600  26.2844610  29.9942636  10.9739387
  26.9448233  28.8768840  10.1952374  45.3803516   3.0467702  10.0502729
  44.5880675   2.5106002  10.0825262  46.0790134   2.4592973  10.3383434
  28.6280867   8.9554900  28.9014840  28.5275980   9.5202094  29.6677899
  28.6978670   9.5621568  28.1643820  69.3717670  16.0229766  10.2890182
  68.5236692  16.2505233   9.9079823  69.7677422  16.8653214  10.5123806
  17.2616240  15.2909589  11.1517322  18.1524416  15.6096017  11.2971115
  16.6997381  15.9854352  11.4955664  18.7454502  59.6212813  60.7420314
  19.6028750  59.3409320  61.0621166  18.3057491  58.8086745  60.4918936
  72.3747635  45.7379198  12.7698505  72.8286791  45.6608915  13.6090529
  72.6942539  46.5606642  12.3993707  66.4630365  43.7827921  38.1994724
  67.3509884  43.8940573  37.8597808  66.5771627  43.2871389  39.0103579
  19.1799208  18.5056472  16.2087965  19.2689272  18.5078752  15.2557456
  20.0562998  18.2945168  16.5307009  14.4922916  37.5057076  53.8944197
  14.3607323  38.2494225  54.4824779  13.6532633  37.4044094  53.4449709
   5.4999491  46.6513205  23.3641624   5.0403258  47.2927904  23.9059114
   5.1974722  45.8031273  23.6886716  53.3419991  20.7960224  23.0025148
  52.8926611  20.1320004  22.4796343  53.0863810  21.6279840  22.6041079
  33.6326738  60.4817438  14.3447948  33.9566656  61.3634014  14.5290303
  32.6868292  60.5411959  14.4792271  34.5736639  41.6819194  59.8328001
  34.8151056  40.7809630  60.0477740  35.3312819  42.2029114  60.0989163
  56.6865110  37.1328497  33.8319921  56.7698336  37.2281003  34.7807884
  56.3329697  36.2517571  33.7098598  64.7205496  20.7346463  36.2229896
  64.0238333  21.3733077  36.3744044  65.3040218  20.8338332  36.9752884
  62.8804159   2.7417368  15.7037902  62.1587992   2.1411660  15.8903933
  63.5132170   2.5805959  16.4036679  37.1957131  63.6695503   8.9744186
  37.1262713  62.7707563   8.6525810  37.9516717  63.6560284   9.5614207
  57.3384353   6.7370723  53.1706178  57.8542586   6.5673898  52.3823500
  57.2362205   7.6886056  53.1897450  11.1744639   5.5924815  22.6490426
  10.2625033   5.8724159  22.7277327  11.1401220   4.8203722  22.0843315
   0.5552670  11.3153446  39.6010780   0.4085871  10.8269095  40.4111052
   1.4201208  11.0324144  39.3040586  62.5726386   1.1584232  62.1093619
  61.8863841   1.2108658  62.7745989  63.3647319   0.9374807  62.5992647
  15.9476706  19.0247846  14.2794418  16.4635988  19.8299706  14.2378974
  15.5186506  19.0590656  15.1344264  41.5191599  66.1525440  27.5295138
  41.5416952  65.3123951  27.0713949  41.5733286  65.9212637  28.4567690
  75.8051968  30.6529403  14.7529924  75.8063173  30.2768493  13.8727736
  75.4998159  31.5516162  14.6290839  31.4331695  68.1950598  26.8727946
  30.9610673  67.4997740  26.4146113  31.1099597  68.1512253  27.7727079
   5.1293703  70.6340313  27.0224595   4.5226141  71.1292887  27.5727320
   5.9953066  70.9609556  27.2664142  74.5520639  25.8381128  22.8444600
  75.1626635  26.2731123  22.2493362  74.2884827  26.5225387  23.4595346
  14.9179503  66.6011286  18.8818312  14.8415419  65.6684542  19.0831161
  15.7071158  66.8822289  19.3449044  20.0021025  52.0445204  27.2761965
  19.2494341  52.4225426  26.8214178  19.6808382  51.8602371  28.1588387
  59.9556208  56.0901070  15.5126905  59.2240667  55.7465696  14.9998176
  60.7307625  55.6806850  15.1282907  72.9047346  52.9296112  39.9942946
  72.2200775  53.4669685  40.3926945  73.4991741  53.5609102  39.5889068
  35.4355761  24.3695021  14.3772340  34.6139952  24.7802639  14.1079581
  35.1900049  23.4749699  14.6133292  11.6660639  49.4146442  42.8658581
  10.9927698  48.9788914  43.3883762  11.6729876  48.9360714  42.0369148
  77.2833776  15.7642388  37.6164699  76.5272284  15.4266167  38.0965614
  76.9499683  16.5336859  37.1549273  75.6576681  12.5381732  31.3467693
  75.3726149  12.8912234  32.1895790  76.1195517  11.7299211  31.5695405
  20.1666971  60.1495790  27.9541993  19.2542215  59.8626328  27.9182887
  20.6372305  59.5207500  27.4070287  71.4301157  62.2438526  13.1774008
  71.1750746  63.1635904  13.1047893  72.3842335  62.2531462  13.1012285
  22.5207591   7.8490402  56.3719702  22.9253793   7.0393421  56.6832781
  22.7544665   8.5024501  57.0312548  66.8075609  45.3235006  12.7860093
  66.4771938  44.4855118  12.4621820  67.7597237  45.2261305  12.7745759
   8.3605429  62.6203442  29.5327163   7.7388331  62.9776382  30.1667929
   8.5108133  63.3360910  28.9151716  70.9372663  13.1153095  51.2746525
  70.6057262  13.2468081  52.1629190  71.8809652  12.9999971  51.3858604
  25.8688971  25.1711655  21.7590666  25.5733153  25.1631117  20.8486843
  25.7226702  24.2764783  22.0662880  58.8258219  46.6230345   3.5998467
  59.3569279  45.9072876   3.9489305  57.9323626  46.4128637   3.8714936
  13.7933012  43.4686184  17.7155006  14.5134112  43.9647961  17.3262870
  13.0780169  44.1006804  17.7869046  10.1396605  57.2378683  10.6130612
   9.4997736  57.2979832  11.3224030  10.5894896  56.4069223  10.7660675
  40.4726195   1.3343622  12.0059955  41.0365176   1.9838573  12.4260044
  40.9002090   0.4962732  12.1820736  73.5765791  36.3760543  44.2537785
  72.9026937  35.7912993  44.6004248  73.4721088  36.3252711  43.3036518
  17.8364988  42.8149939   3.4837809  18.1164499  42.8148746   4.3991262
  18.5054155  42.3034859   3.0286613  34.8416114  19.8449565  54.8763037
  35.3948569  19.8251869  55.6571722  35.3155875  20.4044677  54.2610598
  70.8815956  25.0694609  25.6650424  70.0000381  25.2611327  25.9849620
  70.7812023  24.9956942  24.7159839  43.0979320  67.9067110  40.4782915
  42.8933211  66.9861703  40.6425190  43.9492389  68.0408536  40.8948374
  36.2894865  25.2295947  17.0616090  35.5410811  25.0302839  16.4991093
  36.4720865  26.1549282  16.8983674  67.3832703  68.7938452  29.0599799
  67.9942942  68.9789629  29.7731519  66.6452742  68.3562756  29.4843888
  59.9556450   7.8469542   9.3937027  59.0315155   7.8488282   9.1443026
  59.9570660   8.1244496  10.3097975  76.4876699  66.9953585  24.7171521
  76.6064024  66.6621161  23.8277221  76.0810423  67.8538036  24.5990014
  55.4045200  57.7692318  22.2210145  56.0491514  58.3210659  22.6639128
  55.3734159  58.1081533  21.3263655   2.6401373  14.9601781   7.0083982
   2.4188849  15.4061520   6.1908507   3.5929915  14.8725510   6.9831473
  35.3322574  72.4870019  30.1155281  35.5332299  73.1869297  29.4942880
  35.8227845  72.7185968  30.9041834  77.9744339  57.8893375  23.0715322
  77.6187038  58.1349134  23.9255714  77.2395229  57.4802303  22.6146173
   1.8570753  44.7402906  57.3953247   2.5612494  45.3520823  57.1806622
   1.0532614  45.2243328  57.2060490  13.3494898  70.5144024  14.1284049
  13.0598971  71.4091635  13.9501536  12.9877421  69.9976683  13.4084332
   1.2751126  32.2528221  25.8828926   2.1121383  32.1206047  25.4377675
   0.7321668  32.7104904  25.2410293  67.8966713  27.0838952  24.3655348
  68.6643744  26.7493677  23.9019036  68.0412436  26.8355751  25.2785873
  15.9270235  59.8761415  24.4927359  15.6203219  60.0301266  23.5991716
  15.1373526  59.9350262  25.0304937  70.6256390  11.0535526  29.0690899
  69.6736813  11.0693240  28.9702797  70.8462667  11.9232559  29.4025111
  78.4025335  68.7098026  16.9566727  78.8168669  69.2699814  17.6129961
  77.6435375  68.3367062  17.4049532  74.5196199  54.7890282  31.0092258
  75.2520323  54.7702408  30.3932285  74.3921280  55.7180119  31.2014890
  60.6965971  12.1000206  41.8923569  60.0965023  11.3655639  41.7631578
  60.1646852  12.8770232  41.7203951  78.6922932  27.0587039  43.3002281
  78.4989452  26.1705589  43.0001497  79.1519594  26.9361305  44.1308403
  72.7522564  45.2380228  41.3699579  73.2570648  45.1386309  42.1771240
  73.2080030  45.9264994  40.8856773  74.6271555  73.4999963  62.8288421
  74.8970739  74.3900439  63.0550909  75.2265398  72.9363081  63.3179397
  71.6180038  58.5805464  23.8734174  70.9343624  58.0583858  23.4536409
  71.2762928  59.4746256  23.8639283  78.3176279  50.8232689  17.3601747
  77.6840734  50.1969814  17.0100284  78.5373735  51.3832903  16.6156459
  74.5299292  29.2709994  31.2473345  74.2499924  28.3595228  31.3314748
  74.0658236  29.5937610  30.4748988  76.7775985  37.7003215  63.8552074
  76.5313598  38.1529973  63.0485586  77.5957271  37.2530721  63.6386958
   8.6436697  32.4341893  27.1672201   8.9364573  32.0501757  27.9936838
   8.2914206  31.6951728  26.6712284  69.1987991  54.0695477  24.2573857
  68.8777208  54.1924000  23.3640504  69.7336388  53.2769680  24.2127919
  18.7587591  57.1293163  21.5077925  18.3592936  56.6710472  22.2471523
  19.4813963  56.5629625  21.2371063  20.5400702  38.3891535  26.3267159
  20.5627485  37.7254629  27.0160866  20.2431627  39.1842246  26.7693686
  33.4180709  31.9210504  56.4942891  33.0061456  31.5355561  55.7210225
  32.7592727  32.5220941  56.8420846  18.3080622  52.8161860  61.7453480
  18.7851759  53.6232281  61.5522718  17.4141451  53.1046534  61.9295502
  27.8785201  28.8850902  57.4579531  27.2618838  29.0906690  56.7552930
  27.9890128  29.7110532  57.9289192  71.3815832  65.6465483  30.3530264
  71.3784552  65.1216125  29.5526123  71.1906672  66.5364361  30.0565815
  56.5465832  36.3860154  54.9333048  56.1682940  36.4403772  54.0557098
  56.6270876  37.2968841  55.2162647   6.4680430  38.8754272  58.1291723
   7.0502707  38.1237483  58.2397223   6.4461371  39.2902803  58.9915228
   4.9392744  50.0399733  52.1044970   4.3194815  49.9809551  52.8315449
   5.7972857  50.0957251  52.5251341  72.8245354  42.0770979  30.5425858
  71.9946814  42.0569468  30.0659633  73.3907795  42.6393461  30.0139308
   8.0994646  61.2218472  46.6055429   8.5690682  60.4340908  46.3314200
   8.0745308  61.7707535  45.8217621  77.5495148  65.7328701  49.4400167
  77.6171970  65.8749294  48.4958363  76.6363096  65.4822922  49.5796680
  34.4573736  13.1244969  14.0468705  34.5951390  13.2380462  14.9872744
  33.5144043  12.9861999  13.9579213  19.5152450   3.1300117  41.5459824
  18.8324761   2.4976016  41.3221312  20.2659583   2.8712369  41.0114813
  77.4386978  51.6944790  51.0434628  77.6516151  51.0128975  51.6809177
  76.4924765  51.8128443  51.1264181   3.5212891  65.8429309  51.9636882
   2.6526444  65.4496738  51.8798018   3.9483826  65.6610891  51.1265767
  76.2553167  23.6765695  32.3265696  77.0929193  24.0341401  32.6211882
  76.3803434  22.7277398  32.3445320  62.4253178  67.5869131  45.0680399
  62.3467827  68.2530594  44.3851709  63.2648659  67.7727985  45.4885578
  76.6362933  13.0319931  46.0220337  77.5431041  12.7287914  46.0666800
  76.7054156  13.9651538  45.8203554  68.1693745  29.7613358  37.8728580
  67.2830153  29.8096991  37.5147223  68.6940575  29.3889213  37.1641660
  15.0291721  67.0066115  52.0670355  15.4247992  66.4336249  52.7238441
  15.7701389  67.4679228  51.6741038  28.5770583  19.0259696  59.1277409
  28.3268333  19.8098518  58.6387062  29.0062118  18.4665920  58.4803152
  73.0044746  19.6860802  55.3199339  73.1863594  20.3567195  55.9782600
  73.8601351  19.3042493  55.1242590  61.2926626  64.1811562  47.2851801
  61.2885380  63.2325792  47.1570301  61.9601822  64.3294525  47.9550028
  20.3776785  49.6446896  20.5530763  20.0263163  49.3713379  21.4004540
  19.7282168  49.3455601  19.9167252  73.2328653  63.1325150  15.5193663
  72.3215580  63.0043316  15.7826591  73.4755802  62.3124504  15.0894666
  76.3560963  39.0795684  46.4791250  77.0519400  39.2504835  45.8444405
  75.5677414  38.9718819  45.9470224  15.8872553  68.0497932  43.3157349
  15.1040503  67.6158381  43.6541128  15.6134077  68.4169436  42.4752331
  18.4610455  61.5485474  40.2064598  18.4351151  62.3055312  39.6211970
  18.2540600  60.8029577  39.6430028  69.8484468  65.7485056  47.9020691
  69.8811483  65.4370117  48.8065767  69.1157675  65.2724838  47.5111580
  63.3231688  47.8855801  40.2691078  62.4631882  47.7602863  40.6703091
  63.8996887  48.1034422  41.0014963   3.1030317  34.3218422  22.9914689
   3.2815024  35.1205468  22.4950266   2.2659060  34.4906139  23.4238625
  18.3769175  55.7638359  31.3195586  18.8042208  56.5177584  31.7260695
  19.0071150  55.0499916  31.4170766  56.3874912  63.5299397  36.3242221
  57.1031332  62.9543018  36.5939045  56.8117952  64.3666220  36.1340594
  72.0373344  43.5560226  34.7452998  72.8601074  44.0066290  34.5549488
  71.3811684  44.0292168  34.2336655  71.3294649  60.0726748  49.9269819
  71.1805201  59.4015741  50.5930710  71.0359383  59.6688414  49.1102839
  19.3328901  55.1964283  26.9277692  19.8788973  55.0314093  26.1590886
  18.5596605  54.6481657  26.7944884   5.3086420  67.6366425   9.2155737
   6.0851618  67.1231222   9.4381338   5.3272005  68.3750296   9.8244017
  66.9115925  13.0407548   4.6819648  66.3430023  12.7570617   3.9661056
  67.1749735  12.2286761   5.1148510  54.8586818  73.5137563  39.2513990
  54.8590251  73.7989192  38.3376622  55.2996989  72.6643230  39.2373729
  42.2351551  21.6324782   5.0918490  42.6663828  22.4603868   4.8800808
  42.8697824  21.1636257   5.6337523  47.5572252  67.1833420   2.2304550
  47.2492933  68.0860043   2.3117462  48.4927034  67.2307348   2.4275964
  18.4741827   4.6446070  23.6963153  19.0628954   3.8909355  23.6559486
  17.6800772   4.3524772  23.2487750  72.1752071  33.7497592  59.4627762
  72.8152275  34.1907930  60.0214243  71.9179583  32.9733682  59.9600410
  13.2717844  48.4108973  52.7141666  14.1187044  48.1365299  53.0658484
  12.9144713  48.9977598  53.3806133  56.0548306   8.9579850  12.7369583
  56.2351513   9.8560148  12.4590039  55.4722977   8.6106050  12.0615232
  56.1652919  72.1396771  17.9623199  55.9129687  72.0106854  17.0480299
  56.1261722  73.0874962  18.0901480  27.0531249   1.2272645   9.8962981
  26.7309308   2.1066143   9.6984017  26.3935447   0.6413223   9.5250136
  66.3793802  46.0545158  36.7953014  66.2824440  45.2842903  37.3552966
  65.8444595  46.7265892  37.2176862  56.0492659  55.9627676  19.3961477
  56.4694881  55.1902771  19.0181184  56.7122078  56.3358688  19.9771285
  62.9174519  60.3960276  25.1287317  63.4937286  60.2851295  25.8849335
  62.6642323  59.5049095  24.8878503  12.0542761  49.6995544  29.2882609
  11.5741202  48.9390326  28.9607000  12.6174494  49.9594545  28.5592079
   0.6380125  73.0703163  17.2542071  -0.0697044  73.7023067  17.1278989
   1.3139101  73.5584259  17.7244592   2.8339907  69.9001598  25.8173728
   2.4556299  70.7779169  25.8685613   3.4829661  69.8777008  26.5206194
   9.0836374  69.0784785  51.6403878   9.8304979  69.6239421  51.3936043
   8.9518396  69.2596695  52.5709951   6.5196463  39.2401457  15.5979776
   6.7151018  39.1538882  14.6649230   5.6110140  39.5398784  15.6256413
  61.6022567   1.0126878  22.1214390  60.7771472   1.3761569  22.4428678
  62.0445708   0.6912328  22.9070973  74.3217134  44.7520876  33.6229491
  74.5598984  45.0270367  32.7375650  75.0378036  45.0695324  34.1731095
   6.4813753  29.5470071  36.2988663   5.6101366  29.3853903  35.9368515
   7.0699736  29.0350509  35.7441688   9.0949770  45.5599260  48.7768793
   9.8021170  45.1232433  48.3020210   9.0033671  45.0567484  49.5859861
  74.7233749   1.4218093  36.1517239  74.7188163   0.7027341  36.7835045
  73.8024783   1.6666080  36.0608172  13.6432787  57.8077316   9.8906672
  13.5471102  56.9961739   9.3923157  13.5776659  58.5011721   9.2341077
  59.7240067  39.0877748  45.9602547  60.0248051  39.9913788  46.0564375
  60.4663038  38.6288095  45.5670834  11.7914244  18.2070827  37.9048324
  10.9939428  17.9555106  38.3706284  11.4789244  18.6005378  37.0901132
  41.9339868  13.0650876  61.3399357  42.3132678  12.7834247  62.1724269
  41.4955684  13.8912032  61.5437946   8.4669157  44.3434191  34.1467357
   8.4371229  43.3900070  34.0670276   8.1418081  44.5202398  35.0294995
  14.0827128  40.9586573  18.7554085  13.9007612  41.8288946  18.4007084
  14.8910090  41.0683584  19.2562628   8.9265963  61.9052076  10.8690012
   9.2212149  62.7235270  11.2687361   8.3436438  62.1805382  10.1614749
   6.1126467  47.6037312  59.8023605   6.4159628  48.1467009  59.0747499
   5.1675268  47.5311518  59.6692991  11.9544741  34.4044876  35.1485586
  12.4840208  33.6072326  35.1342869  11.1466929  34.1636324  34.6950030
  77.5373554  49.1268301  39.0472412  77.0447206  49.1650391  39.8670483
  78.2103395  49.8010778  39.1405702  48.4609962   8.1173660   9.5970047
  48.0396152   8.2093002  10.4515338  48.0253291   8.7659980   9.0441006
   1.3562056  18.8934314   4.9767736   1.8590399  19.5710731   5.4286414
   0.4987141  19.2914677   4.8267117  11.4247775   9.3477870  32.0545530
  11.3050199   9.7222282  32.9272985  12.3281694   9.5636417  31.8232179
  73.3582830  73.2852077  36.1516500  74.0819931  73.8643217  36.3906264
  73.2600212  73.4020710  35.2067041  16.2188506  13.0269481  11.9885385
  15.3933406  13.4042407  12.2925341  16.7644286  13.7842037  11.7760789
   8.6476561  57.9916859  38.6442018   9.2935034  58.2835579  39.2875791
   9.1132685  57.3450613  38.1138110  49.7050262  23.1999065  10.1969743
  49.1115069  22.6215984   9.7178817  50.5300117  23.1496192   9.7141719
  73.3247042  68.1339025  54.2817497  73.5079718  69.0430260  54.0448046
  72.3962069  68.0165434  54.0808582  74.6344614  57.3703051  31.5010262
  75.1014662  58.2033920  31.4369369  74.2796898  57.3623753  32.3900175
   1.2953230  13.5087299  31.3008308   0.5192944  13.3267701  30.7708383
   1.9582697  12.9021680  30.9709454  74.5802593  69.3873310  22.3177552
  75.0323200  69.4464254  23.1594110  75.2420330  69.0508461  21.7135453
  74.0478516  63.7883139  38.1233335  74.3943787  63.7824917  39.0155864
  74.8020554  63.5795879  37.5721145  63.4102726  45.6240082  12.4243569
  64.3426657  45.4138517  12.4764454  63.2292986  46.1112309  13.2281566
  69.8115253  52.4166822  18.2924545  70.7449913  52.4560642  18.0843127
  69.4215727  51.9457579  17.5559759  70.8656025  19.8788178  20.9242344
  70.8134413  19.1681123  21.5633011  69.9655008  19.9933481  20.6193924
  58.2427645  71.8092442  10.2413428  58.3663034  71.6701603   9.3023932
  58.8417721  71.1885548  10.6562650  64.8479986  41.4025593  44.1459274
  64.1396046  40.9152985  43.7252331  64.7681475  41.1869192  45.0750971
  42.7821895  27.0255492  55.2584011  43.1717416  26.2923406  55.7347286
  43.4173223  27.2297547  54.5720041   5.7961413  41.6442204  38.8514686
   6.1074301  41.3631868  39.7119045   4.9033495  41.3034058  38.7966990
  78.8720302  40.9438659  27.1988940  78.2600955  40.8137561  27.9233527
  79.2848567  40.0888206  27.0775819   8.3038783   2.9059793  36.2981868
   8.0252338   3.5050727  35.6055975   7.9270482   3.2727052  37.0980287
  75.7052326  63.6430597  10.5763173  76.3619375  64.3349361  10.6555140
  76.0077286  63.1086254   9.8420769  42.2549701  10.7314826  16.6999555
  41.3471961  10.9538795  16.4932597  42.3093391   9.7870208  16.5541315
  24.4453188  53.4343338  22.8086400  23.8833662  52.9316807  23.3983660
  23.8813254  54.1337919  22.4786329  64.6607018  46.3365126  21.7648697
  64.7192001  47.0744371  21.1580157  63.7227154  46.1601830  21.8378282
  55.2896027  59.9250058   7.7397167  55.0859074  59.1479424   7.2192347
  56.0492424  60.3122643   7.3047316  76.1678672  72.5728908   9.3501389
  76.9012833  72.8380267   9.9051481  75.4199910  72.5296636   9.9459940
  17.5739872  35.6967020  10.8905888  18.0895579  35.0541329  11.3779533
  16.8141723  35.2061176  10.5771565  66.2946415   2.2867362  33.6872005
  66.7970276   2.3756421  34.4971013  65.5139208   1.7952099  33.9423704
  28.4356519  61.3001762  21.7316103  29.0815278  60.5938493  21.7447901
  28.9477845  62.0898102  21.5571761  27.4936648  59.9585997  23.9152455
  28.1842681  59.3343388  23.6925530  27.5403853  60.6228398  23.2276154
  30.9446450  57.7165674  32.9093575  31.8722936  57.5277422  32.7677512
  30.6455871  58.0849515  32.0780420  61.9119787   4.9824196  19.6225929
  62.1827507   4.2090952  19.1277373  60.9653711   5.0324768  19.4896936
  58.9887210  55.2348684  41.0052443  59.3522044  54.7591113  41.7520761
  59.0102073  56.1535882  41.2730598  61.2641239   6.4552724  38.3343458
  61.0037613   6.3266361  39.2464304  62.0338058   7.0222694  38.3826661
  74.8069859   0.1398023  18.0071867  74.3454075  -0.6756181  17.8115666
  74.8639584   0.5907940  17.1648133  75.0346343  54.6882839  49.8406017
  75.5430858  55.1416178  49.1681493  75.4041926  54.9958248  50.6682945
  51.4890023  51.9339822  11.3622606  51.3764545  52.1660827  10.4404724
  50.7156583  52.2944139  11.7961526  77.6484962  21.6623172  62.2144935
  76.9760796  22.0551714  62.7710484  77.2796055  20.8188912  61.9522268
  52.8367615  72.8295946  19.9580455  53.0366278  73.7638283  19.8989427
  52.1686459  72.6847458  19.2880690  53.6147642  27.8740215  24.2700505
  53.6748552  28.8261199  24.3483400  53.5899258  27.5604558  25.1740909
  34.9233933  60.4627763  39.0511250  34.2544910  60.7807921  38.4447670
  35.4809638  61.2237404  39.2132378   4.3464987  68.8626668  59.0070164
   4.4467775  68.3302423  58.2179028   5.2337210  69.1587206  59.2105401
  51.7346573  19.4263208  17.2181737  50.9098148  18.9690447  17.0545840
  51.5515280  19.9887955  17.9707146   5.2969448  54.5676252  64.0771216
   4.6919052  53.8668820  64.3202599   5.3870050  54.4875559  63.1275374
  71.4780470  68.5076853  64.4866929  72.0301529  68.9484665  63.8408425
  71.8224569  68.7951252  65.3322631  70.8008718  72.0841436  30.9919047
  71.2355125  72.6745036  30.3764415  71.2040317  72.2805812  31.8375444
  60.1161957  33.9610767  10.6784141  60.3613043  34.8257208  10.3489506
  60.8454084  33.3938074  10.4280317  76.7658567  10.8909571  29.0198398
  77.4604940  10.6861794  29.6457601  77.1218538  11.6060364  28.4924316
  71.5001297  14.7816610   8.5586309  70.5839062  14.9157393   8.8010973
  71.9882584  15.3750157   9.1295016  63.2312965  12.9746521   3.1707951
  62.8633595  12.6631713   3.9977387  62.7542162  13.7836528   2.9860097
  55.2157851  53.5642503  14.0976322  55.4439899  53.9703225  14.9338496
  55.9837123  53.0409883  13.8680029  11.3100378   2.3502657  62.9775308
  12.0101158   2.6296684  63.5674916  10.8014242   1.7218944  63.4900688
   6.2563749  35.1007557  38.6711049   5.8221766  34.5714331  39.3400741
   6.7968508  34.4773078  38.1858921  68.4550095  14.7596443  36.4362216
  69.0078592  14.2325377  35.8593750  67.5609875  14.5634377  36.1561227
  70.2473545  10.9710860  20.8119249  70.8237314  11.2160516  21.5358114
  70.8419561  10.6838119  20.1189923   2.3128935  19.8684311  50.2731752
   1.8185660  19.6893322  51.0730505   2.7097555  19.0281582  50.0436735
  39.4375443   2.7780321  15.5277848  40.1672029   3.3048716  15.2017987
  38.7859821   2.8118932  14.8273897  72.2103071  28.8614178  16.1804676
  72.5105143  28.2344937  15.5223835  72.1860647  28.3599973  16.9954646
  62.1782160   5.1611918   2.1221100  62.0304298   4.4748071   2.7726993
  61.7758799   5.9421295   2.5022304  57.6435137  22.7899694  45.3666401
  56.8888044  22.4195218  44.9090195  57.3818302  23.6873364  45.5727625
  64.1339827  17.2861362  22.4358177  64.6681547  17.1994615  23.2253599
  64.7676706  17.4248397  21.7319465  69.2666626  23.1926060   6.4646149
  69.8262691  23.9686942   6.4371091  68.3782768  23.5341787   6.3629848
  67.8695822  10.3136683  31.6922355  68.7795258  10.5531871  31.8679190
  67.9261923   9.4687402  31.2460017  61.8480015   2.7818248  40.5399418
  61.2245512   3.2145244  41.1232996  61.3847208   2.7095208  39.7054505
  69.4272184  34.4042420  10.4248762  68.6867285  34.8430991  10.0061750
  69.1818571  34.3489814  11.3484430  15.9358665  69.3304847  14.4084132
  15.3844138  70.0975387  14.2542589  15.3319808  68.6628179  14.7336459
  73.6106396   7.6282972   5.0414586  73.4670877   6.6886246   4.9290314
  73.5921383   7.9815215   4.1520083   9.6858255  55.1043471  59.6607694
   9.2034475  55.8512565  59.3062681  10.1558010  55.4591033  60.4154238
  61.2310028  19.1152990   7.1183974  61.3323307  18.5033381   7.8474158
  62.1183157  19.4291615   6.9440532  25.7354089  65.1507054  35.1733065
  26.1449595  64.3088029  34.9740601  24.9327632  64.9216752  35.6418610
  18.1774303  65.5067377  40.7495975  18.8890239  66.1422555  40.8269119
  18.4537383  64.9225013  40.0435162  76.2030172  19.8535645   1.7062782
  76.1604214  19.2507648   0.9639505  76.3020229  19.2857742   2.4705055
  17.2799913  70.1005217  49.5093727  17.3567955  69.3339845  50.0774884
  16.4121430  70.0194522  49.1137719  78.0624294  20.0271511  35.0208664
  77.2211313  20.4824972  34.9874997  78.3061743  20.0418305  35.9463954
  41.0033055  71.9651948  22.3400354  40.8806249  72.8760055  22.0724440
  40.3399631  71.8224947  23.0151963  56.2648364   3.8503144  62.0502734
  55.3766604   3.5383342  61.8769297  56.8091937   3.3905814  61.4110947
  61.8971634  22.5645566  22.4805307  61.6339064  23.4537745  22.2434187
  61.2731457  22.0002604  22.0240188  74.1215467   4.6444672  23.8905215
  73.4997988   4.4069257  24.5784426  73.6080551   5.1652342  23.2729793
  64.1493654   8.4999239  27.8024578  64.0041256   8.8202143  28.6927104
  64.4551563   7.6003337  27.9184723  25.0992203  25.0898695  30.2110004
  25.0108981  24.1384244  30.2674532  24.2244029  25.4238153  30.4095149
   8.1397240  23.6931631  43.3949459   7.9921476  24.4916531  42.8881252
   9.0811483  23.6898574  43.5679686  50.0002670   0.5005006  41.8510962
  49.3608189   1.0522749  41.4006662  49.5089912  -0.2831880  42.0974970
  28.8500901  69.3913679  14.4248259  28.4279414  69.0105848  13.6547422
  29.7828933  69.3935464  14.2101109  24.9174162  32.4810433  20.5487752
  24.1292616  32.0271873  20.8471990  24.6825358  32.8282571  19.6882510
  72.7209091   3.2434374  26.0057235  72.0726967   3.9334834  26.1467457
  72.5624657   2.6178777  26.7126918  35.6037875   2.9972623  47.0648039
  36.3883992   2.7286170  46.5868390  34.8877021   2.8642915  46.4436996
  76.4142942  41.5699530  14.5536840  76.9562101  40.9461069  15.0367749
  75.6240034  41.0781431  14.3305349   7.3043295  15.4767501  23.1024957
   6.6180082  15.8633280  23.6463284   8.0976339  15.9562433  23.3412337
  18.9998858  57.3495146  44.3053448  18.6241142  57.1296498  43.4528840
  19.3012898  58.2528397  44.2084420  64.5686007  27.6574707  19.2062640
  65.1050711  28.0348372  19.9034166  64.8560905  26.7462373  19.1494286
  39.5253869  72.1056979  35.7021332  39.2787429  71.7735691  34.8389482
  39.1408082  72.9813948  35.7406783  57.1264029   2.7660072  20.8311629
  56.3545179   3.2525802  21.1204219  56.8691254   2.3860927  19.9911010
   6.4437157  10.6337357  17.2494435   6.7299068  10.2700973  16.4115334
   5.4989302  10.4810369  17.2666264  41.6574518  35.2252790  64.1284124
  42.3469774  34.8799792  64.6954645  42.0352690  36.0179150  63.7473476
  72.5291872  11.7066479  43.0501318  73.2604980  12.2795856  42.8195715
  72.4161386  11.1428511  42.2848988  21.5799113  71.0968910  28.2791281
  21.8784638  70.6359871  29.0631342  21.2831088  70.4021801  27.6913190
  67.3795959  70.4521401  17.9373193  68.0382033  69.9574359  18.4249055
  66.6584083  69.8347812  17.8148913  50.9169340  17.7175486  31.9560409
  50.7664967  18.6628234  31.9485569  50.9249401  17.4689710  31.0317159
  70.3702970  60.6617924  22.1404970  69.9544187  61.2702605  22.7512682
  71.3089987  60.7851526  22.2814071   5.7312719  12.5663563  43.8316739
   6.2004082  12.4406335  43.0068481   5.3019898  13.4165141  43.7358773
  42.9074860   6.4767176  12.1999037  42.0232487   6.6520131  11.8779802
  43.0943489   7.2032613  12.7944171  74.1225672   5.6111979  40.3027058
  74.9531126   5.8224684  39.8763299  74.1237354   6.1364335  41.1029291
  13.4054514  41.2265968  26.8175626  12.5527712  41.1102104  26.3984919
  13.3335444  40.7485390  27.6437092  70.0834747  57.1238145  63.0251555
  69.7923132  57.8323456  62.4511861  69.4885679  57.1624347  63.7740397
  64.0930462  18.6305952   8.7298763  64.0427637  19.1424644   7.9226017
  64.9126434  18.9083672   9.1389441  53.0710193  59.7810529  33.6196327
  52.9478141  60.6771062  33.9329052  53.9860316  59.7486077  33.3404660
  72.8852320   6.0059124  36.4079571  73.2711363   6.0638326  35.5339122
  72.0018959   5.6691027  36.2579274  74.8973560  23.7297845  18.8936174
  74.4490814  24.1079783  19.6500897  75.5232143  24.4024324  18.6251402
  29.6159955  48.0047391  27.6104522  29.4823047  48.4626649  26.7805958
  30.2653237  48.5336541  28.0739737  67.5217887  71.0429044  15.3198040
  67.0065566  70.3650127  14.8825121  67.4060222  70.8667778  16.2535107
   2.3082014  17.9010344  21.5861011   3.0129381  17.2802174  21.4012718
   2.2442194  17.9133797  22.5410795  18.4925119  70.1667854  64.0926083
  18.6457531  69.2383691  64.2680938  18.6403505  70.5972859  64.9346564
  56.1466165  64.7540948  23.2274187  56.2433787  65.0820800  22.3333872
  56.9330069  64.2290804  23.3763588  74.7023531  52.9555127  56.3304144
  74.1190763  52.9990002  55.5727005  75.4602333  53.4838030  56.0798997
  76.8187475  17.6150155   6.9741273  77.6593781  17.6002359   7.4316829
  76.5835857  16.6924286   6.8753135  61.8669649  27.8490332  58.1463874
  62.2982713  28.2822498  58.8829535  61.7127319  26.9549104  58.4513283
  21.4936587  31.1382484   7.9938167  22.1962210  30.9572721   7.3694026
  21.6211935  30.4948401   8.6909497  70.6950426  21.9695544  42.7080870
  70.8986187  22.3136878  41.8383932  71.3747025  22.3340678  43.2750273
  77.4268504  56.7144047  16.2256598  77.3713180  55.9458529  15.6577897
  78.1549331  56.5232323  16.8169117  31.9535589   9.2436522  27.0267963
  32.8190303   9.0176111  26.6860676  31.3446903   8.9447200  26.3514066
  68.3973551  13.6927855  26.8520808  68.5827875  14.6017504  27.0879388
  69.0713406  13.4696615  26.2100577   6.4270278  59.3143056   3.0645189
   6.2736174  60.0307118   2.4485153   5.7608815  59.4336985   3.7414426
  73.5349321   8.5281819  23.2594514  73.5495901   8.0340457  24.0791130
  74.3613529   9.0111464  23.2561278  54.7489977  27.6373458   3.7282157
  53.9841080  27.1386838   3.4409690  54.4562006  28.5486531   3.7239835
  46.2253638  64.0638791  24.5036483  46.5640660  64.6634297  25.1685190
  46.0675880  63.2465600  24.9762249  52.8288555   8.9096379  14.8505735
  53.4542513   9.5021188  15.2678037  53.3560276   8.3988720  14.2362106
   7.8276583   5.4524702   2.1558657   7.3029467   4.6635470   2.0198175
   8.5056349   5.1851362   2.7764490  44.5995494  14.8880313  45.3256333
  44.0781566  15.5893729  44.9351204  44.6210214  14.2043040  44.6560920
  15.3966486  12.7995026   9.0601754  15.4945898  13.3098471   9.8640335
  14.4575322  12.8203344   8.8761693  67.0198679  35.4224873  43.5637188
  67.7764988  34.8744297  43.3554506  67.3299932  36.0056949  44.2564821
   6.9360205  47.0790768  12.8004539   6.8707129  46.9316483  11.8569338
   6.0357901  47.0052671  13.1172788  43.5546275  68.8860308  11.1208582
  43.8784429  69.6795838  10.6946540  42.7023097  68.7270765  10.7152510
  75.4642868   5.4800338   0.6926621  74.6434832   5.6737214   0.2398981
  76.1185551   5.4386121  -0.0048004  11.9568579  46.3487616  51.6326702
  11.0011236  46.3945940  51.6591895  12.2472660  47.1444639  52.0784867
   8.8983103  22.1140504  21.8084860   9.7989603  22.0802855  22.1308613
   8.5153147  21.2798738  22.0799565  16.1947962  22.0665455  13.6424303
  15.3120180  21.8253708  13.3617890  16.7293783  21.9786453  12.8533018
  33.4923403  26.5945253  61.7966739  34.2563574  26.7974791  62.3364261
  33.7323515  25.7916221  61.3341001  64.5958042  10.2775931  51.1121416
  63.7433386  10.6631494  51.3143253  64.8291397  10.6457579  50.2599478
  75.4080959  42.8446254  48.2364488  74.7204681  42.2327283  47.9738021
  75.4976030  42.7135363  49.1803956  56.9334173  39.0761566  56.1119986
  56.0688829  39.1843128  56.5083790  57.5441790  39.3835902  56.7818403
  56.3948413  11.5632127  63.7280555  56.3398524  10.7865832  63.1712330
  57.3030826  11.5776895  64.0299059  48.1082869  32.2756577   2.0098126
  47.3783588  32.7078867   2.4532256  47.7068043  31.8363166   1.2601298
  32.9607336  55.9324512  57.8963602  33.1477968  56.0132417  58.8316196
  32.6752703  55.0254139  57.7866793  20.5729525  39.8407635  62.8722207
  21.3544170  39.5296162  63.3290933  20.5109112  40.7666275  63.1070808
  27.0048420  57.0397135  57.2917342  26.6090910  56.2356207  56.9555068
  27.9373686  56.9475040  57.0964974  25.3901240  21.9826436  20.1894093
  24.6089693  22.4102283  19.8384154  25.4042383  21.1244440  19.7657037
  63.8839293  13.0948508  59.3953800  64.2757940  12.6318562  58.6548996
  63.2037020  12.5023460  59.7154808  76.5521383   8.9916956  48.4470224
  76.2057018   8.6034358  49.2504358  77.4121809   9.3301213  48.6960697
  58.0547019  74.2131683  34.6739793  57.7386542  74.9785268  34.1937995
  57.2615500  73.7256537  34.8964190  29.6530386  27.6559663   8.4375024
  30.3439947  28.2090926   8.8020003  28.9003035  27.8046489   9.0098011
  67.3943901  43.3009529  25.4685879  67.2634745  44.2200613  25.7016873
  66.7378712  42.8282452  25.9802127   4.4526999  64.9835965  45.8721495
   4.4877379  64.7370168  44.9479187   4.2676346  65.9226867  45.8626449
   1.9005438  42.2834253  27.5999522   2.0877215  42.5924826  26.7135668
   0.9829374  42.0125675  27.5703883  75.7341357  17.6685975  52.3448384
  74.8317405  17.5341056  52.6343715  75.7446357  18.5616849  52.0005763
  74.6666574  21.7571998   6.5883768  74.3516684  21.3143849   5.8003855
  75.4930782  21.3203979   6.7944354  64.3850946   4.6666503  26.5479016
  63.7041998   4.8210290  25.8930898  65.1901579   4.9782231  26.1343408
  68.2595682   4.4063276  30.9684515  68.5016012   4.9489626  30.2179837
  68.8488865   3.6536235  30.9197474  57.7734041  24.8094320  52.4711037
  56.9786215  25.3425789  52.4537039  57.5547075  24.0364122  51.9506741
  57.9095813  16.9478820  63.8663019  56.9928714  16.6899846  63.9630334
  57.8722831  17.8416179  63.5256021  64.6784306  40.1758146  40.7391071
  65.4009962  40.7551575  40.9809685  64.1588449  40.0942469  41.5388632
  56.7082405  29.7287703  22.0005774  56.0382462  30.3502560  22.2853446
  56.8164635  29.1358280  22.7441764  60.4989147  10.2224278  21.5062523
  61.3100767  10.4108214  21.9782233  60.2297020  11.0673642  21.1459208
  61.6431113  31.7959807  58.2974291  62.2699615  31.2325690  57.8437162
  60.8486434  31.7471240  57.7657640  18.5059496  35.6596351  14.3076622
  17.7851816  35.1222110  14.6361613  18.7687536  35.2347040  13.4912097
  64.3920374  15.4149616  10.9739816  64.0316868  16.0898042  11.5492821
  64.1830397  14.5900393  11.4122224  13.2007548   7.9560012  48.6942196
  13.1726595   7.2543085  48.0437803  12.2848936   8.2058364  48.8167191
  16.0557982  52.0519495  23.5778689  15.5179831  52.6457453  23.0540442
  15.7955595  52.2278023  24.4820714  72.1803761   6.1942917   9.7511947
  72.4621153   6.5833318  10.5791450  72.8646183   6.4370227   9.1273975
  62.9278803  19.5714533  43.5870600  63.6460876  19.1677845  43.0997658
  63.3408546  19.9209404  44.3767023  66.7030525  35.4999590  11.1776578
  67.0075750  36.3844609  10.9747910  65.8808613  35.4131937  10.6952691
  74.7987938   3.9701167  31.2760854  74.6362829   3.6246687  32.1538591
  75.0446463   3.2032847  30.7586312  66.7294788  13.7085807  30.2940130
  67.3888969  13.5209513  29.6260333  66.3280344  14.5298851  30.0102329
   2.3564478  31.3765907   3.4216154   2.2997519  30.4220104   3.4639612
   1.8167063  31.6153932   2.6680362  61.9552422   9.6334016   2.1111479
  61.4640808  10.2958190   2.5971499  62.5319481   9.2361474   2.7637029
  13.4108111  23.0452538  29.1876197  12.8191229  22.3070621  29.3332553
  12.8371378  23.8111639  29.1649079  12.3529522  48.3920452  62.9337077
  13.1794016  48.6728152  63.3266242  11.7161123  48.4537491  63.6456458
  64.8896074  32.7650142  32.0101094  63.9579248  32.8111601  31.7954659
  64.9266911  32.9288101  32.9524612  69.3924046  26.7191577  19.9736989
  69.9566412  26.9962025  20.6955814  68.8592386  27.4894571  19.7772181
  57.6989603   5.7708645   7.4835533  58.3377171   5.9419328   6.7914850
  57.2050428   5.0126314   7.1715295  53.8049479  61.2834832  23.3934105
  53.6280104  62.1504113  23.0282247  54.4110080  60.8807656  22.7715242
  11.9835802  37.0546317  29.9742460  12.8953024  37.3321962  30.0633645
  11.7770716  36.6382766  30.8110476  21.5206051  57.5359249  14.1235232
  20.6901550  57.2447681  13.7469435  21.9948006  57.9227686  13.3875060
  34.3356371  50.9284496  23.4453821  33.4492326  51.0745764  23.1149840
  34.9064279  51.1814070  22.7198172  71.8234682  31.4943051  31.7023230
  71.4175320  32.3455954  31.8658781  71.3433695  30.8877492  32.2660851
  46.6500851  34.8574643  62.9062706  47.3511501  34.2104721  62.8279215
  47.0012732  35.5203569  63.5008054   4.7937819  44.0430260  10.1247299
   3.8383433  44.0858555  10.0857294   5.0225683  43.2934284   9.5751882
  73.1672764  20.8375812  25.8394289  73.4679365  21.5835381  26.3584518
  72.2157860  20.9366465  25.8065152   4.5102450   6.0877770  12.9526424
   4.6416899   6.6398031  13.7234986   5.3898760   5.9579277  12.5982201
  24.1098785  21.0071492   8.6437923  23.3894348  20.4586101   8.3334804
  24.7704220  20.9480166   7.9535627  23.7368342   0.7940785  58.2700253
  22.9290434   0.4696264  58.6680698  24.1292521   0.0224927  57.8614950
  49.1661835  17.7579761  21.2056208  48.8980341  16.8396533  21.1738229
  49.3417501  17.9242933  22.1317673  60.7263470  42.0674372   6.0227072
  60.2902126  41.8583012   6.8487102  61.6562557  41.9262838   6.2004101
  56.9565102  43.5233411  57.5125981  56.3385483  43.7181660  56.8080420
  56.4067026  43.2295957  58.2389993  55.8243799  40.3108978   5.1936305
  56.0798550  39.9077892   6.0233724  56.6468573  40.6211853   4.8148352
  62.5630140  32.2081208  26.5154743  62.6943827  32.1090269  27.4584246
  61.8153000  32.8008056  26.4387965  55.8579302  20.3072429  50.3384352
  55.6705999  19.3685710  50.3443050  55.4389858  20.6300974  49.5406342
  67.3471733  74.0545174  48.7628949  68.1842705  73.8081094  49.1563213
  66.8615814  74.4715854  49.4745744  46.6282408  69.1398427  57.9094786
  46.4826243  69.6019122  58.7350202  47.5746290  69.0000936  57.8769249
   2.5733324  57.6040745  21.0026264   1.8743559  57.0524883  20.6513190
   2.1330591  58.1788921  21.6287017  74.3055534  35.1979136  32.0381212
  75.1490021  34.7593641  32.1499467  74.0094614  34.9294424  31.1683607
  65.7863998  28.5786152  52.2180653  65.8075333  27.9581714  51.4894819
  66.7076349  28.7495184  52.4139118  37.0005628   1.9405506  62.0979586
  36.7988511   2.5322412  61.3730815  37.1919223   1.1024950  61.6769123
  20.1528689  55.0349855  22.9868722  19.7806307  54.2445850  22.5957942
  19.4903608  55.3273201  23.6128569  41.0028362  51.2820482   2.8587368
  41.5400839  50.9423494   3.5744202  40.4134798  50.5606890   2.6384246
  24.8236128  59.4185305  23.0484462  24.5409819  58.5929155  23.4417820
  25.5074259  59.7416449  23.6351490  23.1800501  66.9700214  63.5466606
  23.8856451  67.2622081  64.1237182  22.9085104  66.1264798  63.9085116
  62.4501419  16.3130271  16.3682318  62.0277786  17.0694482  15.9612072
  63.3521461  16.5951979  16.5198922  74.4209766  38.2888818  51.5634108
  74.9257231  37.6211047  52.0276690  74.2985964  38.9869809  52.2067690
   9.0390822  45.9585571   3.8293853   8.1775709  45.6595564   4.1203013
   8.9393278  46.9039536   3.7175715  -0.3458551  17.0917642  13.1892323
   0.0968357  17.5278878  12.4611819   0.3463837  16.9359314  13.8316917
   0.3345629  36.2984204  28.6716628   0.7502838  36.6509295  29.4585228
  -0.5427746  36.0441327  28.9577436  63.0080557   1.1188399  32.1550846
  62.3362494   1.7850381  32.0098686  63.5126448   1.4458871  32.8998399
  32.4411678  12.6001000  18.1166208  32.1974611  12.9007185  17.2411382
  32.7211022  11.6936457  17.9893100  62.4340439   0.9680080   9.7821528
  63.0458260   1.3404873   9.1471654  62.6291752   1.4258717  10.5997813
  61.4666462  42.1963882  43.4776592  60.5968523  41.8180418  43.6062574
  61.3999128  42.6748896  42.6513338  10.5065294   7.3088419  30.7975745
  10.7908007   8.1293976  31.2001991  11.2735983   6.7385709  30.8487844
  76.6642332  21.0800529  43.8933516  77.2348213  21.3476658  44.6138000
  75.8127546  20.9315777  44.3046474  14.5577475  36.9340062  45.9757328
  14.0497347  37.4305797  45.3341961  15.2939459  36.5804791  45.4764795
  23.1262247  62.5048157  60.4021508  23.7512247  62.9832455  59.8574415
  23.3478062  61.5833375  60.2679283  -0.0539402  13.3161080  19.3543196
   0.3505703  13.5433435  20.1915574   0.3912445  13.8717854  18.7145817
  50.5666685   8.6685658  13.2325089  51.0106754   8.2651383  12.4866271
  51.2201595   8.6629868  13.9319003  59.4086647   5.6091356   5.2047485
  60.0781918   5.9160560   5.8161086  59.8306084   4.8958769   4.7257319
  12.5575396  36.5613747   3.1198770  11.6288038  36.5748096   2.8885603
  12.8460642  37.4668097   3.0051243  35.5148526  71.0806118   1.6377500
  35.9521647  71.7782085   1.1495426  36.0884925  70.3211318   1.5359734
   0.7632633  54.0474796  27.1112895   0.4592653  54.5947695  26.3872123
   0.1196476  53.3409405  27.1641016  36.6384169  57.2503901  35.2926064
  36.5822931  57.6424170  34.4211745  36.3521238  57.9444504  35.8863664
  17.9834887  30.6710052   6.6303378  17.8343149  29.8233914   7.0492971
  18.9362188  30.7565832   6.5954912   2.2011038  39.0689588  17.0458829
   1.7460390  39.9080181  16.9742608   2.9473921  39.2492652  17.6175332
  77.1317625  15.7477617  10.8804691  76.7069292  16.5911901  11.0365999
  78.0604315  15.9607267  10.7885337  50.2168485  40.9295104  61.7045906
  51.1680003  41.0359309  61.6898355  49.8768493  41.8223117  61.7641339
  26.0349604  37.3210931  36.6139603  26.3048597  37.6741123  35.7661653
  25.2202459  37.7809477  36.8164921  77.1997209  58.9945861  59.0818942
  76.7566439  59.2726370  58.2802701  76.9873997  58.0647370  59.1627181
  58.4001875  36.1651778  19.2355740  58.4189081  36.7242813  20.0122857
  58.7378168  35.3224277  19.5389092  10.6964918  17.3629200  10.5291247
  11.5072485  17.8509557  10.3851616  10.0100275  18.0298829  10.5166388
  48.8940954  65.8833170  23.8501930  49.1544390  64.9636173  23.9011979
  47.9671574  65.8570385  23.6128736  74.8495579  59.1702318  12.1411562
  75.0409126  58.9226294  13.0457604  75.1596975  58.4300089  11.6195059
  62.0574236  27.5745106  35.9961915  62.9462242  27.3182344  36.2423420
  61.9908094  27.3472595  35.0687480  42.3604747  17.5080751  47.5249231
  41.7728063  18.2416032  47.7060616  43.2029792  17.9185842  47.3302412
  53.9867353  14.3922830  48.3255482  53.0351067  14.2934167  48.3549166
  54.1460085  14.9524796  47.5659132  74.2027807  33.3964014  52.0539951
  74.6993113  33.4924531  51.2413073  73.5430670  34.0888429  52.0148659
   0.4356315  54.1716433  41.7718124   0.3490859  53.3237791  42.2075510
   0.3155240  53.9766550  40.8424091  24.9625826  39.4833589  39.5151520
  25.5333853  38.7776732  39.8191714  24.5502949  39.8178744  40.3116131
  74.9261053  11.7106560  37.2111284  74.8009379  11.3543871  36.3315642
  75.8490761  11.9628838  37.2382700  34.5705350   4.0713194  10.2836478
  34.5785041   4.8059443  10.8972370  34.0472062   4.3820027   9.5448410
  13.8979466   9.6624211  11.0042631  13.7689813   9.6113709  10.0571644
  14.7831471   9.3260554  11.1439240  21.4468431  26.3382864  55.2045679
  21.5917373  26.2470269  56.1463261  21.5676999  27.2722054  55.0330305
  74.4944270   4.2205265   2.9984104  74.0026005   4.5213393   2.2343123
  74.2560180   3.2978991   3.0886900  63.0261004  72.2942789  38.9801550
  62.7802706  72.7975327  38.2039237  63.6394739  72.8606098  39.4484234
  65.4014829  48.7942219  60.7281303  66.2774006  48.8940620  60.3552628
  65.2939228  47.8493738  60.8373165  53.9359383  44.5200499   1.1029589
  54.2508224  44.0064670   0.3591072  54.3956570  45.3563090   1.0283911
   9.6481991  17.7332890  50.2727938  10.1678813  18.5024011  50.0390673
   9.7502393  17.1400809  49.5285320  65.3672810  36.0036209  24.1372931
  66.1780794  36.4556864  24.3706858  65.2504738  36.1872223  23.2051623
  65.6670125   2.4947599   0.0576794  64.9271925   3.0032042  -0.2745569
  65.9236200   2.9436139   0.8632338  28.8202433  36.2204007  22.8394854
  28.3538345  37.0523194  22.9207957  28.1798605  35.6236533  22.4521410
  20.4551721  42.9035902  52.3804522  19.7132730  43.4523106  52.6348591
  20.8351159  43.3502436  51.6238976  60.3526427  24.6465138  26.6732561
  60.0580575  25.0422982  25.8530104  60.5543257  23.7396410  26.4427435
   2.4820386  38.3740854  51.8457508   2.2455290  39.2932653  51.7216492
   3.2312119  38.3978081  52.4410725  44.1727127   9.3147591  20.2389776
  44.7101982   8.5261134  20.1656306  43.3144654   8.9947012  20.5168307
  77.8493958  57.0422554   1.8660741  77.8584833  56.0959387   1.7224085
  78.7206193  57.3336983   1.5972586  62.2588531  47.1794176  52.6611710
  62.8624741  47.5487995  53.3057070  61.3887671  47.3583937  53.0177546
  74.8431189  26.1782598  58.9277601  75.1131327  25.3121018  59.2328691
  73.8864628  26.1505413  58.9442778  13.5827120   9.3626908  16.3890040
  14.4616111   8.9873484  16.4427340  13.2139452   9.2351178  17.2630560
  56.3681606  33.6081553  58.7359762  55.7070259  33.7678099  58.0624437
  57.1656016  34.0074039  58.3882332  27.4291380   6.4568785  16.1790716
  28.0892141   7.0970991  15.9132826  26.6217835   6.7581871  15.7623923
  62.4982790  72.6351692   7.4082482  62.7561549  72.5362923   6.4917576
  62.9135803  71.8973996   7.8548443  60.0461892  61.2969162  35.0923407
  59.3079809  60.9907009  35.6191408  60.6996302  60.6016304  35.1686728
  21.3279823  53.6437348  25.5146754  20.9731773  52.9566124  26.0787737
  21.6376738  53.1791714  24.7371733  78.3913525  11.5793017   0.6671536
  78.9763625  10.8219031   0.6856787  77.5294216  11.2214497   0.8798754
  51.4516156  14.1875676  12.0633089  51.2603094  14.9276093  11.4871371
  50.9276652  13.4680966  11.7110789  66.4019342  30.4482535  14.9748623
  66.3326426  31.3541678  14.6736252  67.2759433  30.3903845  15.3608572
  66.4627202  20.9123019  18.3384573  65.5093511  20.9827975  18.3869135
  66.6399796  20.6847027  17.4257624  50.3677724   1.2907365   9.6967280
  50.4672405   0.4518631   9.2465842  50.7243279   1.1368445  10.5716097
  71.2874833  12.1941829  59.6078491  72.0920245  11.7368782  59.3632698
  71.1511020  11.9640422  60.5269051  10.2097702  58.0722523  54.4187737
   9.3245792  57.7639151  54.2248821  10.7825398  57.3832226  54.0820169
  65.2423985   3.9241818  37.1796000  65.3630026   4.8721913  37.2340357
  64.3296965   3.7839869  37.4316942  72.9027708  30.2931527  28.9929926
  73.1370719  31.0039452  29.5897352  72.2963019  30.6935528  28.3700049
  21.4500737  35.0623965  62.9459953  21.3033676  35.8135462  63.5208702
  22.3047304  34.7218657  63.2102489   8.9295208  55.7303476  26.1192179
   9.2399824  55.5195522  25.2386451   9.7258961  55.9220982  26.6144466
  33.6432576  70.6536388  56.3597965  32.7977133  70.2922153  56.6256094
  34.2557955  69.9241352  56.4538670  42.6158897  56.3235309  16.9311297
  42.7405051  57.1223332  17.4435961  42.7199427  56.6036786  16.0217821
  75.9326728  50.4686512  15.4315245  75.1770289  50.0075914  15.7957422
  76.3095696  49.8522164  14.8036778  50.9168319  74.5202448  12.1615088
  51.2472943  73.7264158  12.5820553  51.6932944  74.9305751  11.7807638
  76.1253007  15.1649598   7.2854769  76.6043003  14.3978575   6.9718849
  75.6370695  14.8482779   8.0454647  24.6143198  63.8100481  58.6869526
  24.2337012  64.5162725  58.1648350  25.4928946  64.1206598  58.9057207
  19.4781590  64.7303247  32.6997042  19.3476260  64.2260647  31.8966389
  20.2073264  65.3168535  32.4983716  56.4229158  69.2915869  52.2180843
  55.4968861  69.1262960  52.0409346  56.8804697  68.9272833  51.4603519
  77.6764964  21.3946486  46.4857197  77.3878216  22.2057033  46.9041538
  77.8026959  20.7827592  47.2109079  29.7748923  56.0753107  56.7771578
  30.4633045  55.7781649  57.3721552  29.4058061  55.2692127  56.4163065
  57.0643972  12.7151612  17.5922453  57.2727947  12.1535138  16.8456805
  56.3580535  12.2565440  18.0471861  73.6029013  16.6703156  35.1276076
  74.5562203  16.6909531  35.0440180  73.4247811  15.8849314  35.6449759
  23.2953615  56.6708066   3.7789356  23.0752672  56.6382529   2.8479492
  22.6222179  57.2314085   4.1647255   6.0625700  54.0623309   9.9136746
   6.6899995  53.8593974   9.2198574   6.3382677  53.5194089  10.6522238
  36.0923171  25.9286427  56.7196989  36.5196729  25.3328753  57.3350525
  35.9475350  26.7297101  57.2232533  22.1334648  72.8315306  41.4818811
  21.2116241  72.9505253  41.7105389  22.3915935  72.0299959  41.9370127
  75.7876820  23.2853174  59.0220261  76.6181491  22.8185654  58.9287567
  75.1676983  22.7781081  58.4980106   8.3754877   0.2601078   5.6263458
   8.5377983   0.9003714   4.9335634   8.9903835   0.4972795   6.3205254
  59.6788277  40.2786425   1.9830239  59.0121116  39.7833327   1.5072214
  59.8431327  41.0463599   1.4354431  18.7894726  34.4810605  62.0877934
  18.9987326  34.6148396  61.1633778  19.6125090  34.6496534  62.5465059
  45.6677790  59.1985062   8.7074196  45.9121765  58.4926537   8.1088602
  44.9500944  59.6507958   8.2640326   2.5851683  10.0559929  36.8600905
   3.4812383   9.9626807  36.5366995   2.5802044   9.5824078  37.6919138
  75.1688893   9.1114761  32.2791767  76.0466106   9.4834377  32.3656559
  75.2980049   8.1679679  32.3759174  22.8330231  28.1645727  62.6258659
  22.5904679  27.3910952  62.1168137  23.4648824  27.8404355  63.2676744
  74.1327460  17.5394896   6.9631970  74.0029867  17.3920277   7.9000246
  75.0573714  17.7738789   6.8834412  69.5821424  19.2729596  13.3535015
  69.0208526  19.4889668  14.0981638  69.6765013  20.0979975  12.8774273
  61.2359146  57.9954149   5.1900732  61.6752008  57.7955439   4.3634474
  61.8764690  58.5071494   5.6840908  33.7475989  66.8554856  33.9920676
  33.9511035  66.2634255  33.2679999  33.5446093  67.6899411  33.5693228
  66.2104042  41.7585209   1.8937409  66.7700453  40.9884575   1.7935717
  65.3579421  41.4802721   1.5589010  77.5258477  24.1665820  24.5916331
  76.7666252  23.6442307  24.8503935  78.2791765  23.6149195  24.8023283
  69.8568097  67.3764038  58.3468914  69.2043606  67.7618408  57.7620983
  69.8298988  67.9252100  59.1306734  36.6244272  58.3995892  32.8477633
  37.4295405  58.6530854  32.3963606  35.9256945  58.8162734  32.3434031
   3.7890485  65.3415060  33.2700467   3.3647054  65.3602648  32.4122500
   3.6193794  64.4598770  33.6019707  50.2843964  16.0436896   1.0535490
  51.1130151  15.5927018   1.2155211  49.8325573  15.4924134   0.4146731
   9.3196432  72.1673538  33.0003798   8.9032952  73.0061724  33.1985533
   8.8097075  71.8130328  32.2719157  73.8174842  65.3272820  31.7607212
  73.1030408  65.5443668  31.1618257  73.6752460  64.4063139  31.9793820
  13.1226289  64.1818476  52.9209042  13.7285018  64.5463419  53.5661125
  12.3755419  64.7802019  52.9290915  53.4267760  10.5299881  11.8780529
  53.9183818   9.7793272  11.5447867  54.0955739  11.1856154  12.0757639
  41.0663732   7.5339583   7.1348822  41.1526914   6.6334608   7.4477494
  41.9417127   7.7642659   6.8234789   8.2837540  52.9103947  46.1225367
   8.4711623  52.4283743  46.9279957   8.7817848  52.4504519  45.4467773
  59.9361421  24.1887835   6.3986838  59.3947716  24.3281964   5.6216919
  59.8172493  23.2629088   6.6104615  46.1589773   5.3684452  31.8921816
  46.1659600   6.0798148  32.5326025  45.8612283   5.7796362  31.0807001
  29.1608866  26.7070130  14.2502558  28.8207395  26.3358334  15.0643599
  30.0755485  26.9119385  14.4442427  76.9014795  66.0280516  22.2667181
  77.3572953  65.1893808  22.3381102  77.4650486  66.5598823  21.7047846
  44.3551876   2.3233083   6.6308510  44.2429192   3.2219866   6.3210070
  43.7278743   2.2373346   7.3487103  16.3161433  27.7878761  56.3939714
  15.8650231  26.9891167  56.1206484  17.2436690  27.5513887  56.3929892
  54.1413978  14.0192440   5.6334126  54.0843897  13.2558564   5.0587666
  54.3716540  14.7419146   5.0494921  45.1474134  61.4701964  30.1209795
  45.8788077  62.0327856  29.8664438  45.2782909  61.3158132  31.0565340
  29.0261156  67.8296496  11.5743601  28.5907628  68.5383441  11.1005986
  29.2416469  67.1868421  10.8986580  75.4876621  34.8440627  26.9268286
  75.8870418  34.8989085  26.0586512  75.3148277  33.9110115  27.0524466
  29.0668686  21.6880062  23.4808028  29.9589403  21.9763640  23.2876932
  28.5900934  21.8190411  22.6611960  73.2790072   8.5306099  15.1966679
  72.9449900   9.0425328  14.4600498  72.7234312   8.7819508  15.9345019
  11.8962741  58.9882183  47.4316883  11.0405135  59.1115999  47.0209742
  11.7033136  58.5490465  48.2600117  15.4638290  28.0438781  40.5180693
  16.2822711  27.9514337  41.0057592  15.3088140  27.1766567  40.1437330
  66.0409609   8.0691361  57.2278595  66.3291518   8.8967735  56.8428993
  65.1617841   7.9338348  56.8743420  16.0062540  60.6155300  58.9049006
  15.3054976  60.5915070  59.5565128  16.8004847  60.7798576  59.4132566
  66.5625004  20.4752278  39.4907141  67.2224013  20.5098510  40.1832199
  67.0686010  20.4193401  38.6801767  47.7308587  60.3315641  19.8967325
  48.4639148  60.5760624  20.4616034  47.9674891  59.4683768  19.5574057
  25.6722331  58.5272741  51.4263487  25.1209307  57.7638531  51.2546206
  25.5494428  59.0884829  50.6607151  42.1397428  46.3434078   8.6177742
  42.1680252  47.2640916   8.8781035  41.2488059  46.2136646   8.2927620
   3.0550007   3.5701350   0.7064783   2.3816065   3.2544926   1.3090956
   2.8014831   4.4732359   0.5157721  50.0682886  47.0476464   7.5903952
  50.4804908  47.0674351   6.7267239  50.0220408  46.1177185   7.8124678
  65.4677025   1.7333771  57.1895599  65.1259140   2.3521256  57.8349781
  65.6821302   2.2741823  56.4294386  70.0592510  48.1847715  44.6502686
  70.3418568  48.5705662  43.8210964  69.3712614  48.7711096  44.9650860
   9.4388056   4.9836725  63.6319780   9.2209023   4.0864059  63.8842916
   9.9755913   5.3116971  64.3534279  60.8278073  22.2824839  25.4646837
  61.2166949  22.3607329  24.5935404  59.8896249  22.1871832  25.3004801
  17.8425801  62.0649338  34.7410178  18.0673289  61.3434553  35.3285456
  17.7292585  62.8187943  35.3198838   1.3007001  15.9935692   4.7838366
   1.3195542  16.9494275   4.8308384   0.3700546  15.7709196   4.8074448
  60.4586603  15.5166415   5.9036124  61.3021441  15.8750561   5.6273758
  59.9313356  15.5023983   5.1048910  50.4366648   4.4155434  24.0145838
  50.1861091   4.7284106  23.1453478  51.3202357   4.0663556  23.8979590
  61.3894095  18.6644247  15.4557860  61.1607619  18.1566122  14.6772730
  61.5702506  19.5437315  15.1235974  17.8473596   9.4542076  35.6256890
  18.7076084   9.3801357  36.0388684  17.9924116  10.0250579  34.8711562
   2.2281365   9.0233067  39.3888151   3.1585220   9.1686276  39.5605719
   1.8859295   8.6673764  40.2088415   9.7405225  60.1794481  35.6723022
   9.3730158  59.3999863  35.2556324  10.5901682  60.2996922  35.2481842
  68.5647277  50.3071451  36.7972136  67.9984573  49.5783806  36.5433049
  69.4521687  49.9538803  36.7349005  49.1153978  31.3078574   4.3490088
  48.6929239  31.6290215   3.5523903  49.9091239  31.8368271   4.4291222
  16.3967299  53.0209732  59.0716743  16.9989443  53.7013006  59.3728781
  15.7236362  52.9790545  59.7509527  77.7998932  41.0126713   7.6757252
  77.5459226  41.7586783   8.2190525  77.2432883  40.2952603   7.9786169
   0.3260092  22.5732401  23.1485522   0.9525494  22.0512560  23.6497652
   0.4742078  22.3164252  22.2384321  51.9344024   3.2016469  46.8337631
  52.0897988   2.2815324  46.6205263  52.8098563   3.5750677  46.9355965
  44.5504204   9.9670555  49.0092373  44.0337709   9.7284938  48.2395649
  45.1960579   9.2651607  49.0912676   9.3518547  30.7577303   0.3413069
   9.5682959  30.1108769   1.0128462   8.5699228  31.1973122   0.6753504
  78.0403789  23.3399084  37.8631365  78.5198267  23.6094406  37.0797407
  77.3404916  23.9870718  37.9501116  35.9041357  52.3399925  28.0315328
  35.3804231  52.0461082  27.2861552  36.7700577  52.5134420  27.6623130
  17.2764496  24.2376545   5.5319559  18.0322413  23.8639096   5.9850800
  16.6644196  24.4628933   6.2326109  55.6390359  48.1703022   2.0336640
  56.3673829  48.7890080   1.9793713  55.8695839  47.4743393   1.4182579
  59.4390932  49.9025154  36.6038275  58.4886030  50.0126743  36.5780139
  59.5683924  49.0158272  36.9404173  29.8713875  58.6717463  56.7907000
  29.7768974  58.9446306  55.8781004  29.7228432  57.7262783  56.7745829
  53.7708801   9.2985991  23.5196364  54.0055283   9.7850493  22.7293646
  54.2515090   8.4741858  23.4449827  19.2391181  45.9899426  57.4316502
  18.5670197  46.5845156  57.0984840  19.1936994  46.0860586  58.3829308
  31.9083927  71.6036965   2.9356730  32.4044625  70.8452227   2.6276695
  32.5375185  72.3248746   2.9173529  39.4160382  24.9015190  53.3235693
  40.0198857  25.4916145  52.8725815  39.4944743  24.0722801  52.8519297
  45.1726643   6.0263969  44.7416019  44.7559504   6.8602516  44.5241642
  45.9699706   6.2722446  45.2107430  42.5305740   9.3721534  51.0033417
  41.6098920   9.6219207  50.9246445  42.9743890   9.8750545  50.3204441
  56.6534761  20.9453155  59.2008924  56.7944292  20.1881935  59.7693443
  55.8040074  20.7821990  58.7909746  55.8305696  42.6424838  53.4239149
  54.9403194  42.6607849  53.7751341  55.9953813  41.7182781  53.2370758
   7.6503257   8.6741665   6.9821989   7.8032664   8.4322289   7.8956043
   8.2083444   9.4388321   6.8403065  58.5208158  14.9319984  62.4590111
  58.4319619  15.7607795  62.9296112  59.1639999  15.1134540  61.7737246
  25.2961874  64.3194962  50.4635763  25.0378513  64.6227074  49.5932007
  26.1014724  64.8000765  50.6553841   8.5166281  60.9319592  62.8216124
   7.7200091  61.3206100  62.4602509   8.3070946  60.7674074  63.7409878
  42.9760647  71.2626839  41.8848658  43.0061865  71.3079929  40.9292126
  42.0957041  70.9426832  42.0818472  62.5456955  21.2953881  15.0637495
  63.1083627  21.6295889  14.3652165  62.3266848  22.0677307  15.5850565
  44.3338112  10.4615547  41.2797976  44.8351935  10.3099014  42.0809507
  44.9474815  10.9039260  40.6933260   2.0883898  28.4514693  29.2231047
   1.5647582  28.9387873  28.5870421   1.9026379  28.8751677  30.0610792
  52.1206192  62.1182348  26.7345774  51.4988617  62.7051331  26.3042223
  52.6207308  61.7307212  26.0162794  61.3792630  12.2547749  18.2688296
  60.9663840  12.8426817  17.6362669  61.6222526  12.8224209  19.0002405
   6.6735510  64.0348366  48.1079638   5.9454135  64.4892052  48.5317480
   6.6449169  64.3324688  47.1986639  26.6258640   9.8712207  59.0025234
  27.4912488  10.2777053  59.0484715  26.6177304   9.2429115  59.7246027
  46.6320614  66.3246753  11.0036576  46.4970402  66.4422776  11.9439614
  47.1168331  65.5024006  10.9322941  41.5956179  10.0780727  54.7758007
  42.3870985  10.6148006  54.7343731  41.4218143   9.9794818  55.7119131
  10.2569091  58.5569286  51.5734625  10.6062949  59.3809700  51.9127369
   9.4358158  58.8023901  51.1470985  62.7747174  43.3469418   9.4143307
  62.6171275  42.4028853   9.4269097  61.9216032  43.7294606   9.2091334
  61.3173179  38.3404446  51.0975122  60.4630545  38.0407739  50.7866049
  61.5852288  37.6794457  51.7358971  71.0783986   1.8811323  46.8917751
  71.7481116   1.6849090  47.5469208  70.8569364   1.0302545  46.5133715
  57.0279653  68.2327679  12.9226839  57.0684369  69.0828637  13.3607733
  56.5185689  68.3963612  12.1289646  17.4963913  30.2876235  55.4964018
  17.2070024  29.6354534  56.1344910  16.8188331  30.2783443  54.8203373
  38.6667104  17.9186467   8.9275181  38.6751469  17.2386483   8.2538998
  39.0604766  18.6809853   8.5032284  56.0858007  17.8533486   8.3108532
  56.4620327  17.5333861   7.4909079  56.6911684  17.5490311   8.9869845
   5.6731975  53.1898403  57.9978085   6.0966319  53.6019754  57.2447634
   4.9809188  53.8017607  58.2478857  41.5046767   8.9304782  64.2822599
  40.9077934   8.9535190  63.5343075  41.5529946   8.0049755  64.5217133
  76.4872511  26.9205645  15.7542574  75.9305699  27.3947314  16.3719141
  77.3803575  27.1184042  16.0361349  28.3208578  20.5129386  56.2049818
  27.3706975  20.4951145  56.3194799  28.5540053  19.6082546  55.9966087
   6.3370637  22.3302105  26.8276560   5.8733729  22.9465321  26.2607634
   7.1551041  22.7759531  27.0475638  13.6056332  46.7623070   5.5354750
  13.8633064  47.1234825   4.6873057  14.0486006  45.9149197   5.5795061
  16.3507036   0.1171258  35.3967631  15.5923704  -0.3093025  34.9976027
  15.9899715   0.8906463  35.8300841  19.3547110  36.5430001   8.9347088
  18.7300066  36.2030533   9.5753443  19.0856937  36.1484269   8.1051457
  58.2216032  24.7008732  22.4550116  57.7178656  24.0822962  22.9840147
  59.1354080  24.5011118  22.6582014  30.6927760  72.5155571  11.7285263
  30.8033879  72.1985272  10.8321488  29.8179276  72.2202042  11.9807923
  32.5930126  15.6889895  19.6883356  32.5925215  15.9894970  20.5971396
  33.0367084  14.8413065  19.7166025  62.3660357  37.2963217  11.3911640
  61.7319776  36.8160942  10.8586371  62.2535808  38.2106188  11.1310732
  54.0081263  41.0319117   1.8434679  54.8755132  41.3627604   1.6102087
  54.1788362  40.1922730   2.2701943  60.3475817  24.2309454  10.4561531
  60.6317897  24.3611363  11.3608658  60.9467049  24.7676733   9.9372971
  25.6661749  21.5456223  45.5703783  26.5582561  21.5452600  45.2233553
  25.2301359  22.2622585  45.1093626  77.2239236  24.5603420  64.2762232
  76.6336087  25.1006557  63.7510395  76.7371301  24.3874599  65.0820637
  64.6240882  67.5994587  25.2947617  64.4160858  68.5332870  25.3252554
  64.6901933  67.3386765  26.2133789  70.8497925  41.5197066   3.3481705
  70.7595797  42.4650076   3.2277596  70.7954271  41.1592558   2.4630987
  69.7546955  26.4804819  37.4114001  69.8453339  27.1164063  36.7017424
  70.3143485  25.7490710  37.1505224  66.3413854  20.6219796  24.5771467
  65.6204935  20.6056717  23.9476359  66.7961677  21.4452294  24.3992102
  49.4410373  10.8733681  26.1649287  49.6609752  11.6494683  26.6802275
  48.5368343  10.6733969  26.4071333  39.3952278   5.2595188  60.9997320
  40.0300566   4.9505235  60.3533983  38.5957078   4.7715999  60.8024120
  69.3272457  54.1616631  50.8466721  69.7293363  55.0303173  50.8466101
  69.9513809  53.6087990  50.3765392  30.5039576  71.1568739   0.3480208
  30.6133131  70.7481458   1.2066281  31.3215778  70.9686377  -0.1127374
   0.5185764  67.3324585  62.5415373   1.0754381  68.0622339  62.2703075
   1.0873893  66.5644503  62.4882030  53.9811162  11.4556743  38.5559440
  53.1472949  11.8731452  38.3398724  53.9425162  11.3193752  39.5026040
  20.2061868  51.9100285  58.2070255  20.5207396  52.7761221  58.4661818
  20.9383798  51.3229990  58.3955050   0.1087693   6.2570694  38.5701620
   0.4836563   7.0914629  38.2882273   0.7161740   5.5967167  38.2366526
  53.5660032  29.6870306   5.2829277  54.5119671  29.7375801   5.4201615
  53.3629898  30.4437188   4.7329771  61.2956061  72.2415665  24.4761145
  60.5708178  72.4419907  23.8838732  61.4131685  71.2947586  24.3989336
   0.5289212  29.8957729  27.5276327  -0.2172183  30.0080991  28.1166077
   0.6416199  30.7533288  27.1176004  66.0342912  61.7131376  43.8337469
  65.8878735  60.7706928  43.9149666  66.9799248  61.7990637  43.7128115
   8.0881147  37.1446684   4.7425186   8.6562423  37.6493195   5.3245747
   7.2178773  37.2181538   5.1343357  78.0776318   6.4222411  15.0352824
  78.2815345   7.3364857  14.8382771  78.4744986   6.2676838  15.8925116
  20.6319890  14.9571182  47.7667046  21.5798605  15.0558521  47.6771402
  20.3845999  15.6068565  48.4246254  33.7133465   9.5659400  31.1998582
  33.5144965  10.3382064  31.7292762  34.6294222   9.3701126  31.3965535
  28.4233622  45.5146531   6.7385638  28.6049799  45.1406411   5.8763754
  29.2855934  45.7376698   7.0893490  54.9910204  30.4111031   2.0853626
  55.3092052  30.3060416   1.1887324  55.7349743  30.1628998   2.6341450
  16.3385749  42.6370525  29.1912007  16.5167880  41.7044592  29.0697551
  15.4535711  42.7585411  28.8473415  27.8421301   1.9988777  41.7125845
  28.1449147   2.5734331  42.4157524  27.9097825   2.5328924  40.9210777
  64.1861967   7.5240756  50.2728319  63.4157351   7.3936607  49.7200108
  64.1842202   8.4608890  50.4693031  74.5608695  55.1887825  26.2857020
  74.4159038  55.8115986  26.9979536  74.9728997  54.4345787  26.7071783
  43.6095468  29.0288021  56.8458271  43.0260281  28.7724353  57.5599766
  43.3352128  28.4868099  56.1060858  75.3996213  51.2150887   8.1870806
  76.3202579  51.1175469   8.4302771  75.0620611  50.3197125   8.1630957
   8.8566595  68.5016012  44.3596268   7.9285467  68.6177254  44.5629787
   9.2996842  68.5904598  45.2034664  23.7197614  74.1970730  35.6336594
  23.4366345  73.3044529  35.4354072  23.5069942  74.3158054  36.5593290
  35.8981106   3.3145048  55.1789188  36.3487718   4.0795280  54.8213196
  34.9677566   3.5155298  55.0776148  19.4215190  55.2443218  62.0603228
  19.8866236  55.9998798  61.7011070  19.1596353  55.5197668  62.9388332
  42.1098185  62.9923582  36.7974448  42.3418283  63.4963083  37.5774693
  41.4474344  62.3718309  37.1014547  58.5913972  25.8748962  59.0544748
  59.4184021  25.5385066  58.7093115  58.6386756  26.8200733  58.9108086
  30.1689214  12.0042468  45.4671764  30.2271954  11.7726375  44.5402479
  31.0746697  11.9852783  45.7761955  30.3723005  15.5655220  18.1759512
  31.1981920  15.7157448  18.6359179  30.1567272  14.6518591  18.3629954
  46.7890171   8.7583019  51.8416262  47.1091632   8.5710384  52.7240467
  46.1013965   9.4117118  51.9699574  36.8112759  60.3949860  35.3883803
  36.7444281  61.1591271  34.8158037  37.5439409  59.8922947  35.0323736
  26.3067392  32.4542406  11.9002020  27.1765808  32.7375105  11.6184866
  25.7053379  33.0576828  11.4638531   3.3123374  38.0872013  57.5145149
   2.8241706  38.9092876  57.5602484   3.6101079  37.9352523  58.4114408
  68.8746623  36.5905143  51.2128448  68.2542542  36.2710906  50.5576324
  68.3243350  36.9152214  51.9255400  49.2736653  33.9334537  52.1692276
  50.0307588  34.0912868  51.6051960  48.7621097  34.7406627  52.1149254
  33.9232683  58.7568283  28.9957881  33.1230021  59.0057611  28.5333633
  34.1658688  57.9119444  28.6169052  23.3868361  64.0222168  55.6606770
  23.7192106  64.7726154  56.1532784  23.7971330  63.2630587  56.0748816
   2.6047567  21.8558386  13.0492508   3.0340509  21.3178185  12.3840630
   3.1920437  22.6020983  13.1693280  78.3603200  68.2503128  55.1008272
  78.5458300  67.5312090  55.7047415  77.4146459  68.2063913  54.9593925
  62.7412299  50.7182598  64.2814445  63.3156935  50.5352783  63.5379744
  63.1258313  50.2275610  65.0077534   9.4200325   7.4937689  39.4903827
   9.6992189   7.6395637  38.5864854  10.2151906   7.2152942  39.9447036
  75.3190515  22.7060628  25.5533481  74.7759855  22.1336579  25.0114417
  74.7154618  23.0617762  26.2055588  27.1914315   4.8062116  45.8826971
  27.5478435   5.5937117  46.2938499  27.3589516   4.9272335  44.9480724
  68.0331663  20.2245402  36.9929767  67.9242030  20.9511948  36.3795161
  68.4578387  19.5382345  36.4783216  66.2654241   1.4619401  18.0835688
  66.9560023   0.9405330  18.4927904  66.7343612   2.1167091  17.5662577
   2.5410745  34.8319006  61.3525724   2.0059456  34.6314549  62.1204853
   2.3726059  34.1091895  60.7479715  11.6855466   3.9179704  26.6157436
  11.8981874   4.1586241  27.5174642  12.0098174   4.6491107  26.0898972
  68.2445383  65.1154129  62.8947067  67.8930163  65.9548293  62.5979853
  69.1061544  65.3295724  63.2524538  72.7625600  24.4717455  55.1939964
  73.1660960  25.0668478  54.5621395  72.3216835  25.0481772  55.8181667
  26.2738565  22.2830343  13.8131523  26.3597587  21.5308690  13.2274044
  27.1594910  22.6409030  13.8748884  17.0757449  25.9630799  36.5826964
  17.3268759  25.0403023  36.5421152  16.8354535  26.1856842  35.6832862
   9.3157256  11.3283944  56.0435247   9.2962116  10.5714154  56.6290426
   9.4985116  10.9584749  55.1798201  64.6713845  10.7857096  48.4307194
  64.9988917  11.3880157  47.7627420  65.0470916   9.9378484  48.1936407
   7.0047754  41.8909788  41.9614744   6.5025038  42.7053881  41.9351435
   7.8622490  42.1492338  42.2995186  36.6882662  61.0658409  12.5983488
  36.2375949  61.8617489  12.8805840  37.0697383  61.2943699  11.7507136
  25.7880855  62.1047497  51.9693995  25.2924991  62.8272200  51.5838385
  25.9558916  61.5116882  51.2370396   7.0680255  34.9815774  51.6532516
   7.1835315  34.7977209  50.7210064   6.6405904  35.8377004  51.6773748
  13.3477143  34.0156560   2.5305521  14.2976479  34.1202198   2.4764693
  13.0290572  34.8694544   2.8233301  21.4376521  50.4618025  54.2594481
  21.3627815  49.7828293  53.5889053  20.5593276  50.8376265  54.3188763
   4.6667302  39.1537571  53.4544182   4.6833605  39.8041081  54.1565561
   4.9569973  38.3428788  53.8720942  30.0261402  45.4140711  15.5610430
  30.8480000  45.8244658  15.2920568  29.3499279  45.9006643  15.0896621
  74.7455213   6.4876825  56.0669565  75.2322058   5.7158649  55.7777023
  73.8352296   6.2948787  55.8423948  39.6234548  73.2057388  58.4651470
  38.9312065  72.5998740  58.7296295  39.1947436  74.0610528  58.4355354
  50.3281355   7.3287272  48.7803984  51.1182499   6.8267369  48.9802885
  49.6076202   6.7560804  49.0433788  64.8859123  40.6780052  53.3271599
  64.4797198  40.3599072  52.5208998  65.2240447  41.5440655  53.0994701
  69.6945075  30.6365252  50.4125500  68.8525478  30.4022384  50.0221062
  69.5440827  31.4945674  50.8092403  58.8401870  10.2908933  19.1187191
  59.5228306   9.6500212  18.9199388  59.0808872  11.0635591  18.6075616
  70.4344101   4.3599537   4.0498507  70.6301482   5.2481726   4.3481552
  70.9714408   4.2468813   3.2656014  14.0805415  68.3206846   6.5939772
  14.6756236  68.9776184   6.9552862  13.7407772  67.8581454   7.3600352
  37.0744244  46.4380981   1.2355864  36.1835007  46.6841568   0.9867060
  37.6069836  46.6629739   0.4726708  56.1551312  20.4678559  41.8985128
  55.3421835  20.8629465  41.5834713  56.0303143  19.5276737  41.7692423
  51.7063713  19.1043961  58.8223553  51.8423080  18.3428013  58.2586813
  51.8119478  18.7661505  59.7115564   1.8727556  56.8422604  27.3799729
   1.6570994  56.0421276  27.8590512   2.3316380  57.3876524  28.0188799
  11.2781811  22.5203753  52.6007986  11.9335794  22.6896715  53.2775736
  10.9231365  21.6592360  52.8212881   9.1684771  41.8455315  49.5447779
   8.8352084  40.9528303  49.6356058   8.4555668  42.3256302  49.1234779
  31.0277176  60.3924084  51.5147734  30.8535719  59.5496941  51.0955572
  30.1889706  60.6461954  51.8999052  43.9027119  12.2336924  43.8455296
  43.0422306  11.8214464  43.7690210  44.2232990  12.2877443  42.9452324
  16.7142832  23.0954933  36.0161901  17.2964370  22.9629517  35.2680182
  17.3001623  23.1301594  36.7723489  76.7040737   5.3967980   5.9989035
  76.8501409   5.4817751   6.9410670  76.0125144   4.7394732   5.9220659
  71.2634078  62.7143431  20.1059723  70.4528514  63.1291008  19.8106670
  70.9905437  62.1346807  20.8171487  72.4458829   1.1235493  22.4597335
  73.1161020   0.5811765  22.0439577  72.3033384   1.8422636  21.8438077
   4.0916089  19.1667632  29.7709810   4.0692548  19.7451142  29.0085947
   3.6242560  18.3804730  29.4889128  70.0217680  26.5000987  51.7272425
  69.2417137  25.9945464  51.4988470  70.3484026  26.0882092  52.5271702
   5.8222330  37.5691915  51.1699629   5.7844859  37.4881840  50.2169418
   4.9109295  37.4940681  51.4530039  31.6995994  55.8020212   5.2896130
  31.5228639  55.7760896   6.2299978  30.9638877  55.3340890   4.8946488
  55.8771256  48.2019593   4.7571051  55.5840138  49.0080883   5.1819288
  55.5506019  48.2715918   3.8600170  35.1137805  65.1642656  62.1535635
  34.6886468  64.3825722  62.5063467  35.9654808  65.1911211  62.5895882
  76.7222341   4.5621088  23.8827193  76.7123897   3.9736060  23.1278670
  75.7987793   4.7452429  24.0557062  11.2530494  29.5653510  46.3037968
  10.9315872  29.8140645  45.4371738  10.7108414  30.0662065  46.9132090
  30.1589942  34.6160007  24.9416399  29.5577383  35.2934909  24.6322417
  30.0134921  34.5802188  25.8870411  64.9624042  23.5897269  27.8825915
  64.1629080  24.0789713  28.0767023  64.6578983  22.8029050  27.4304640
   0.7484232  21.5078378  20.5705857  -0.1239307  21.9004774  20.5379367
   0.6434841  20.6556153  20.1475811   4.0738010  46.4973021  20.8621264
   4.6796802  46.6623592  21.5845537   3.5301179  45.7707691  21.1667466
  18.3693540  39.6754026   4.6054703  18.9561856  38.9192152   4.5990035
  18.5584378  40.1323271   3.7858978  28.1268811  11.8939209  51.3200903
  28.9034295  11.4071381  51.5962219  27.7944279  12.2911417  52.1250296
  70.9537575  64.0072060  28.1458211  71.4095250  63.1896973  28.3462858
  70.1030616  63.7299681  27.8056908  13.5315359  14.9222493  11.5079951
  13.4114707  13.9773881  11.6031504  13.6834466  15.0513005  10.5717790
  75.2930332  26.2590146  40.7887363  75.4954687  26.3294244  41.7216301
  75.5744750  27.0957589  40.4187584  45.8894876  63.9416744   6.5877449
  46.3657693  63.7548019   7.3967373  46.0594789  64.8682978   6.4183199
   7.0106983  28.3911729  51.2119246   6.2576681  28.8160586  51.6225910
   7.6877493  28.3975720  51.8885279  62.4388913  52.6100912  10.7928669
  62.0956925  53.2908215  10.2140295  62.5543336  53.0483951  11.6359532
  59.2294780  56.9713831  53.4672117  59.0027574  56.0417747  53.4416437
  60.1829795  56.9877243  53.3847523  25.8354807  45.7676363  23.4690404
  25.4584265  45.6851673  24.3449759  26.6067219  46.3212109  23.5914159
  78.2118769  50.4114437  43.5494995  79.0346978  50.0015926  43.8163662
  77.7992644  50.6774950  44.3712044  71.9075588  47.0216608  33.2063031
  71.6575573  46.1682177  32.8522253  72.6945738  47.2625017  32.7175951
  71.7275701  14.6499991  54.0413427  71.3372866  13.7818241  54.1422510
  70.9852109  15.2268982  53.8615608  55.5213132  68.5981678  45.4394865
  55.5407372  69.5463483  45.5691290  56.2799117  68.4166972  44.8846626
  72.6777289  24.8543620  41.3765192  73.2732443  25.6010628  41.3130140
  73.2282630  24.0927815  41.1944771  45.4906634  49.9008133   4.9688208
  46.1451498  50.5969419   5.0261462  45.8304671  49.2056038   5.5322468
  44.4970790   1.7137243  45.3445578  45.3042404   1.3329269  44.9985600
  44.6969668   1.9073106  46.2604189  12.0802653  31.4944601  24.9802232
  12.4767780  30.9795690  25.6829977  11.7958498  32.3028183  25.4067183
   2.9613766  27.6556277  51.0508966   2.5238681  26.8890381  50.6805468
   2.9009780  27.5315571  51.9981003  69.3833480  15.6017697  40.0487423
  69.3933169  15.7000804  39.0966558  69.1173176  14.6936655  40.1929855
  46.7348341  66.4467217   5.6413901  46.7942814  66.5975906   6.5847552
  47.6253680  66.5872385   5.3197729  66.6341153  44.4375563  63.9519167
  65.7445649  44.2320538  64.2394924  66.7285518  45.3756380  64.1171789
  18.4041178  41.8281603  25.6007290  17.4967670  41.9982004  25.8537745
  18.9250374  42.2015905  26.3116646  41.2787115  72.4248253  55.8570766
  41.0113764  72.4918315  56.7737436  41.5943527  73.3007723  55.6349993
  26.2795655  46.6968359   8.0358517  26.4883847  46.1563690   8.7977707
  26.6815339  46.2371697   7.2987234   3.6033386  67.7122974  64.2903709
   4.1558370  66.9481325  64.4547796   3.3842528  67.6538372  63.3604193
   5.0791792   9.5239046   9.5284521   5.1621536   8.6001852   9.7653019
   4.9568395   9.9752596  10.3636420   5.1487136  18.7885964  45.3500652
   4.5949885  19.2509222  44.7208786   4.5572788  18.5603821  46.0672474
  11.0849047  24.1349483  60.3033066  10.9571993  24.9923515  60.7092381
  10.3666437  24.0579057  59.6752977  21.4719248  30.8624530  35.3043580
  21.9036818  30.3643537  34.6103024  20.7620192  30.2932835  35.6015348
  14.3796086  22.3188782  17.0664203  14.1862667  23.1819797  17.4323559
  15.2881408  22.3817229  16.7717147  21.9426537  24.5516467  39.7367883
  21.2100434  25.0955987  39.4476008  21.5343118  23.8493109  40.2429628
  12.7152562  31.1199021  64.0723801  13.2276714  30.3163242  64.1614151
  12.6539195  31.4647937  64.9631739  16.0595838  56.7274370  -0.0615919
  15.4542986  57.1084263  -0.6977594  15.8022407  57.1142544   0.7752955
  32.0616291  44.5528461   9.1926539  31.3665149  43.9212324   9.0079605
  31.7224739  45.3852846   8.8636410  20.6770301  36.4035249  28.1968713
  21.2516022  36.6257167  28.9294910  20.1785111  35.6465077  28.5045028
  68.8627179  17.5390271  17.5613558  68.0706306  17.0393875  17.3633921
  69.5807119  16.9673088  17.2895968  60.3282634  52.4862099  37.8372741
  60.7004086  52.7605820  38.6754036  60.8395032  51.7160463  37.5888586
  71.7933372  40.0988150  50.2645159  72.6898495  40.0703812  50.5987120
  71.4572940  40.9476662  50.5521965   4.4681591  32.8717732  62.1611118
   3.7790310  32.2222161  62.0217848   3.9983472  33.6962724  62.2864485
   2.0024756  49.0521397   1.7293131   1.9588593  49.0690352   0.7732546
   2.5412396  48.2871034   1.9310105  10.8972208  61.9913842   8.1749975
  10.4519621  62.7584006   8.5350811  10.6101672  61.2656619   8.7292158
  67.0146628  11.2378434  23.4759772  66.4079018  11.4447335  24.1867983
  67.6404031  10.6270531  23.8653528  15.9814525  36.8259215  50.0305986
  15.4706490  37.6341248  49.9845314  15.4292953  36.1690998  49.6064091
  68.7135013  26.0589865  16.4199793  68.2712670  25.6270674  17.1507990
  68.5327704  25.4982880  15.6655371   2.6966986  35.9850693   9.6804458
   2.1960659  35.6937885   8.9183736   2.2578338  35.5756235  10.4260898
   8.4725026  25.3110484   1.9975817   8.4599475  24.4052103   2.3066675
   7.8887014  25.3133992   1.2390291  16.1735046  55.6057119  45.3802490
  16.6534162  55.7867098  46.1884308  16.6056573  56.1461830  44.7189140
  12.3582649  47.4284172  37.3979831  12.0482171  48.1220913  36.8158174
  11.9995570  46.6236591  37.0239234  12.9600278  71.5522005   5.8106816
  13.2158307  70.6663134   6.0675871  12.4050025  71.4274814   5.0408613
  60.1263173  13.2613972  22.4335730  59.3030127  13.4240130  22.8939593
  60.6679316  12.7937535  23.0693400   3.2101301  17.8767470   6.8484556
   3.6803559  18.6786393   6.6202414   2.3400692  17.9923514   6.4665377
  27.4855808  23.9108828   9.9320471  28.2393889  23.4867361  10.3420508
  27.0256762  24.3345860  10.6567490  11.2908781  59.0763044  60.8226681
  10.6544483  58.4573174  60.4648447  12.0846772  58.5568237  60.9501553
  73.0305369  11.4598254  10.2633440  72.0976336  11.6548804  10.1746046
  73.4708341  12.2602442   9.9775231  56.0342531  16.3645199   0.7945645
  55.1322319  16.1309317   1.0137141  56.3764475  16.7713717   1.5905583
  51.6812161  15.3551602  41.7786598  51.3008717  14.5395160  42.1046877
  51.5602020  15.3134942  40.8300543  46.5066095   0.3232864   6.3998759
  46.3082440   0.0485590   5.5046618  45.9548546   1.0924033   6.5421974
  46.7670564   8.4626247   5.9418583  47.5613121   7.9304649   5.9886855
  46.2079505   8.1203414   6.6393358  69.5458940  21.6794920  18.2096493
  70.0911251  21.0128379  18.6274123  69.8777405  22.5094295  18.5521603
  75.7653088  41.6001081  55.1897144  75.9717289  41.4640570  56.1144352
  76.5967715  41.4623642  54.7359228  22.0078202  70.8124134  59.5130438
  22.1605375  71.2500736  58.6755699  22.7964463  70.9925648  60.0247529
  30.7157755  54.9460697   7.6559389  30.0465274  54.4705153   8.1480664
  31.5197086  54.4473028   7.8013891   7.1095151   4.5614231  38.1605983
   6.6420126   3.9192933  38.6947727   7.8992921   4.7614497  38.6630654
  44.4382040  19.8179008  54.6427441  44.1051427  20.7122852  54.7160721
  43.7669841  19.2774536  55.0594091  58.5416797  47.6760530  40.1470613
  58.3774332  47.3371363  39.2670679  57.7504281  47.4575663  40.6394196
  39.4085769   9.8418380  44.3054104  39.1888110  10.0731040  43.4029388
  39.2992751  10.6570770  44.7949743  60.1007012  50.7249355  64.8866987
  59.5812241  50.7778358  64.0844679  60.9882323  50.9565163  64.6130371
   2.4552496  12.7309132  60.8682251   2.8454822  11.8701458  60.7164717
   1.6899627  12.7516103  60.2936506  72.6596162  33.6589408  45.8409166
  72.6978216  33.1618786  45.0237894  73.2115398  33.1653595  46.4475393
  60.9785497  70.6709005  21.3392162  60.9191221  70.1797651  20.5197716
  61.8757206  71.0042067  21.3541603  62.1258549  11.0755408  60.4058886
  62.0670894  11.0233569  61.3598585  61.4613489  11.7190623  60.1598310
  66.3990811  17.6699460  57.0912790  67.0049552  17.2634637  57.7108908
  66.9550959  18.2169855  56.5364552  25.9773684  42.6209211  61.5687656
  26.7464900  43.1784534  61.6864109  25.2405977  43.1691408  61.8386793
  35.3289834  51.9010212  20.9027350  36.0137156  52.5643637  20.9884798
  34.5918963  52.3672451  20.5083143  69.4233928  19.8172784  40.5070734
  69.4932768  20.7462382  40.7270288  70.1271228  19.6669960  39.8758769
  64.5468692  14.7991443  52.4130154  64.9982873  15.2086747  51.6749525
  64.3434481  15.5255258  53.0022717  14.6051097  48.6413956  30.1265836
  13.7579918  49.0681791  29.9982119  14.7424376  48.1358242  29.3254781
   9.2681626   2.3207024   3.9792454  10.1548103   2.6777843   3.9284432
   8.7530855   3.0158785   4.3887102  17.0976184  61.9469597   6.6923010
  16.8684540  61.3488700   7.4036371  16.6882918  61.5641906   5.9163058
  60.1825253  63.6818075  56.5945768  60.0009230  63.3361912  57.4685335
  59.4192842  64.2208147  56.3868141  58.3183674  50.9255409  63.0744696
  57.9767183  51.2559080  62.2435856  57.6236514  50.3595591  63.4110165
  56.1367015  25.4762270   4.9567616  55.5566863  26.2236669   4.8113405
  55.5836348  24.8239841   5.3867972   0.6247292  25.1431870  62.4227524
   1.1099572  25.9056401  62.7381134  -0.2811053  25.3116679  62.6821947
  16.9267627  61.1561452  18.9214242  17.5873443  60.7847153  19.5061481
  17.3493072  61.9262789  18.5411847  76.9843068  35.3949881  24.5300341
  76.1100507  35.2664804  24.1620755  77.0731787  36.3446712  24.6102691
  23.1914193  38.6856038   6.2747919  23.4839574  37.7742449   6.2659657
  22.4583445  38.6958924   6.8902027  22.9648614  68.3670031  58.2369614
  22.3551106  68.7638043  57.6148844  22.7438760  68.7677018  59.0776968
  35.3066611   3.2661730  64.0094233  35.8180165   3.5555935  64.7650576
  35.8967948   2.6854283  63.5290956  45.2845005  16.4673328  28.2757068
  44.6945814  16.4951813  27.5224113  46.0687164  16.9316673  27.9830813
  67.3338047  47.6204443  57.6909971  67.7724329  46.9145775  58.1659603
  66.4013389  47.4195433  57.7708673  52.2009877   0.0119050  40.5214167
  51.4626483   0.2950430  41.0607862  52.7704767   0.7797312  40.4728699
  73.2600744   2.5351027  16.4577925  73.9042695   2.6945141  15.7679808
  73.5994132   3.0095890  17.2166979  19.0714351  53.4451367   9.4122708
  18.6614243  53.0126323  10.1613152  19.2830668  52.7317764   8.8101399
   0.5173746  14.9631023  55.2916098   0.7564573  15.7688308  55.7497311
   1.2702039  14.3849719  55.4150867  78.3793195  63.1379058   8.0577767
  79.0899690  63.6110904   8.4905588  78.6146505  63.1485130   7.1300137
  34.0124039  69.8608710   8.7591421  34.5421235  69.3850114   9.3988192
  33.1157915  69.5712497   8.9277804  17.9096484  30.3963923  27.3286819
  18.5776722  31.0558510  27.1413565  17.7536833  29.9676967  26.4871788
  48.2476978  43.4269169  13.2266152  48.9756276  43.8485649  12.7699244
  47.9188372  44.0983418  13.8243401  65.3732113  38.7211776  57.2795010
  65.6503323  38.9507365  58.1664848  64.6746639  38.0789995  57.4054766
  45.9049705   5.7653689  26.9877315  46.0603074   5.5488122  26.0683799
  44.9818829   5.5561298  27.1304226  68.4174303  37.5914049  35.9299064
  68.8796476  36.8382025  35.5621147  68.8034145  37.7087927  36.7979312
   6.0932320  28.9601493  48.3812666   6.1007196  28.0030322  48.3914471
   6.5440428  29.2117786  49.1872978  64.0980450  41.9711018  49.0984392
  63.8149861  41.3797712  49.7958899  63.6419133  42.7925730  49.2810869
  40.8186860  10.5376557   3.3148873  40.7313736  11.4881113   3.2425034
  40.1768346  10.2881125   3.9797079  76.2138986  66.4960437  28.4640002
  75.5523658  67.1592639  28.2671571  76.1879992  65.9019183  27.7139497
  22.0438398  58.6896469   5.0887787  22.3252086  59.3569591   4.4628727
  22.3933507  58.9867188   5.9289133  75.1265854  57.3750448  41.5933990
  75.8686531  57.1153069  41.0474110  75.5065451  57.9537964  42.2543907
  58.6364134   7.9226616  12.9046643  57.8046973   8.3962515  12.8906977
  58.4183796   7.0462969  12.5873673  48.1479336  19.4994810   4.5957720
  47.8581147  18.6901215   5.0166952  49.0650474  19.5890644   4.8548281
  17.0690493  39.0034083   7.9739725  17.8030781  39.5760229   7.7513850
  16.2958006  39.5611361   7.8887999  22.1120358  57.8066635  21.1799669
  22.2172213  58.2210779  22.0363688  22.1506786  56.8677044  21.3618827
  58.8643221  33.6337161  50.8379698  57.9708198  33.5646653  51.1743069
  59.4188897  33.5619307  51.6148424  71.5917543  63.2677746  54.6074820
  72.0187870  63.6258698  53.8292503  72.2889940  62.8041887  55.0713491
  22.4256063  63.3337450  51.7976856  22.5877023  62.4546242  52.1398926
  23.0262351  63.4169769  51.0570431  72.3756639  27.4778652  59.1471004
  72.2093264  27.3712611  60.0836897  72.5870917  28.4058762  59.0454960
  11.4504484  22.3574665  32.0723688  10.8377699  22.8814295  32.5884306
  11.0761837  21.4764861  32.0782530   9.7043723  46.6809034  54.7180605
  10.1822221  47.3865986  55.1538181   9.6564418  46.9541740  53.8019466
  72.3663060  59.3551636  27.9288244  72.7229194  60.2380037  27.8305864
  71.4197896  59.4845009  27.9889178   4.4098166  58.2032442  52.4178982
   3.9902064  58.0296087  53.2605219   3.7658122  58.7175512  51.9310951
  40.5471134  33.0256200  59.5680714  39.8184514  33.2620645  58.9941597
  40.4285288  33.5736203  60.3438711   1.1021257  60.4705954  39.1822100
   1.4368899  59.5971060  39.3851376   1.8471596  60.9280491  38.7924790
  12.3270492  12.3713187  27.8225291  12.5187258  11.5082291  28.1893599
  11.5966872  12.6980523  28.3479368  15.2713573  58.5244370  52.9738617
  16.2089539  58.6734343  52.8516150  15.2214718  57.7092934  53.4731436
   9.4203395  54.9189329  51.5631819   9.6163243  55.0875664  50.6415606
   8.4642327  54.9204063  51.6088915  68.0831639  61.5057135  51.7365837
  68.6678413  61.2199450  52.4385214  68.0469684  62.4578714  51.8277597
  19.9201214  31.4543486  55.3436422  19.0516424  31.0583258  55.4153490
  19.8761606  31.9857359  54.5487070  78.8633679  28.9697838  46.2423086
  78.8878056  29.8655057  46.5789366  79.4801930  28.4894419  46.7946005
  77.9374801  22.8106812   7.9786503  78.0709707  23.2885245   7.1600687
  77.4109995  22.0511082   7.7294647  50.5989994  57.1231678   5.3760302
  51.0132094  57.8917530   5.7683718  50.7639930  57.2149781   4.4376385
   3.2552246  10.2896288  17.9910147   2.9216246   9.5363072  17.5037253
   3.7979487   9.9075011  18.6806929  23.1370807  44.7453165  55.3473949
  24.0556240  44.5878410  55.5658293  22.8746605  43.9738655  54.8451757
  31.2532759  72.4419785  49.5314407  31.1223102  71.7839813  48.8487148
  30.4601169  72.3944712  50.0651789  69.4164304  71.6528012   1.9991886
  69.2975215  71.0744550   2.7525866  70.3114919  71.9803335   2.0875847
  11.7004335  13.2417166  37.7522111  12.0367718  12.4109149  37.4162364
  11.3517022  13.6884403  36.9808125   0.6073717  21.3491562  14.6996796
   0.0505356  20.7112864  14.2532599   1.3229994  21.5136078  14.0856278
  59.5837478  72.9782104  57.7050829  60.3765122  72.4895525  57.4837923
  58.9317206  72.3036242  57.8948832  55.7315253   5.2240828   1.6866314
  55.2773278   6.0638121   1.7558539  56.5961827   5.3876999   2.0632326
   8.1034756  42.7421474  60.1201677   8.2456422  42.3352289  60.9748220
   7.9913408  43.6728477  60.3136969  14.4110096  57.5898218  57.0561028
  13.8782871  56.8899870  57.4338198  13.9020336  58.3863115  57.2070265
  31.2660317  22.1054200   5.1153433  30.9615378  22.3563221   5.9874451
  32.2070221  21.9655970   5.2212298   3.8202170   5.7919625  10.3585732
   3.9172415   5.9081772  11.3037216   2.8987769   5.9860066  10.1867401
  48.2945303  29.3019629  55.7174969  48.9691595  29.5687652  55.0930595
  47.8645710  30.1192451  55.9693241  63.5164245  20.4049710   6.9674170
  64.0890665  20.8155945   6.3195765  62.9864819  21.1250523   7.3092901
  72.6939134  58.5409689  60.8991194  73.3696655  58.0589390  61.3758183
  72.3602477  59.1757774  61.5330887   9.5747141  38.1445673   9.2406046
   9.5601205  37.2099284   9.0345394  10.0250892  38.1969717  10.0836003
  69.3924490  28.0526638  57.3342991  68.7888018  28.7780237  57.1740007
  69.2429445  27.8143692  58.2492256  21.8409324  73.2426834  57.1027613
  21.1167431  73.7829208  56.7866564  22.1759653  73.7138128  57.8656673
  64.5305713  58.5488321  18.6634886  63.9208396  59.1543390  18.2418024
  65.2222045  59.1104176  19.0134871  28.3066861  50.6102600  16.4009058
  27.7001334  50.5785551  17.1407187  27.8887246  51.2002220  15.7736265
  74.1714293  63.3195210  52.8948212  74.7407234  63.4910345  53.6449671
  74.0039293  64.1836643  52.5187397   3.6363447  53.1742334  54.6275091
   3.3169344  52.2720337  54.6432066   4.2247236  53.2069111  53.8732052
  44.2831603   0.7527257  64.2435694  45.2077702   0.5204679  64.1576433
  43.9973668   0.3070642  65.0410223  35.3555846  60.3841448  63.1872129
  35.0380301  61.2396002  62.8981066  36.2706518  60.3612232  62.9072857
   8.1730694  61.1585093  54.4451904   9.0386117  61.4245701  54.1348982
   7.9945052  60.3392601  53.9834833   9.4996107  56.0208178  48.8276815
   8.9301509  56.4089775  48.1633902  10.1274848  56.7119122  49.0383816
  17.3850930  27.7728128  48.3468866  17.4624813  27.0394611  47.7366066
  17.3797798  28.5499239  47.7880430  59.8695494  29.7612980   3.2492172
  60.5536790  29.1301659   3.0259049  60.2449919  30.6119469   3.0219042
  12.1842790  61.9196177  56.2688065  12.8436625  62.5618362  56.5314865
  12.5617671  61.4887190  55.5019522  23.6423922  72.4277353   8.6509293
  24.5973635  72.3697567   8.6808980  23.3681321  71.6304159   8.1978369
  63.4339984  43.5732678   1.6430342  63.3785947  42.6216677   1.7303812
  63.5882218  43.8869980   2.5341141  13.1356001  32.0137429  34.6364236
  12.3520792  31.7028093  34.1829419  13.3593738  31.3059068  35.2406812
  71.8498377  47.9764795  52.2444057  72.4766038  47.9461813  51.5215778
  72.1501795  48.7021637  52.7915859   0.3210453  19.4077280   2.3309433
   0.3353790  18.8927868   1.5241873   0.0373129  18.7896899   3.0045616
  14.2536676  72.9017878  18.5466731  14.7534370  73.5462141  18.0454957
  13.3453321  73.0428696  18.2797384  61.9009427   1.9124175  54.8190928
  62.4608997   2.6829387  54.9138355  62.5114349   1.1881496  54.6813917
   0.3126986  32.1625495  60.8115101   0.5253970  32.1567082  59.8782635
  -0.4729776  32.7056432  60.8747053  36.3666133   5.5621959  47.9478121
  35.8541731   4.8178340  48.2633400  35.9053675   5.8544780  47.1616459
  65.3290685  16.2045935   4.4415104  64.8161586  16.5025786   3.6902725
  66.2398727  16.3168743   4.1693699  69.0219895  48.3102369  48.9639664
  68.1164101  48.4972858  48.7166357  69.3228374  47.6780272  48.3112574
   0.4354525  60.1224852  61.6263485  -0.0914934  59.5142508  62.1446228
   0.2530615  60.9816599  62.0068550   9.9166179  52.6593208  43.2658243
  10.5089080  52.3076248  43.9304543  10.4906166  53.1167936  42.6514292
  19.9079442  47.7474260  53.2018614  19.5145297  48.2904339  53.8849449
  20.2303910  48.3738947  52.5539446  76.0675652  43.3526638   3.8834631
  75.1582869  43.0853489   4.0175736  76.0075911  44.1512326   3.3591282
  35.8540606  48.7856865  11.9908571  36.6412115  49.2908192  12.1944952
  35.6462812  48.3273554  12.8050983  29.4713855  25.4558110  56.6551352
  28.8905811  25.6607819  55.9224129  29.7321987  24.5468187  56.5070057
  78.3595808  21.0480145  -0.0922621  78.6810334  21.9218281   0.1298773
  78.2767375  20.6018618   0.7505429  54.1820482  21.7239118  18.8149786
  55.1033810  21.7393351  19.0740943  54.1706542  22.1267223  17.9467344
  14.7363138  29.4618893  58.3592939  15.4742718  28.9803982  57.9853725
  14.7084177  30.2802491  57.8635693  17.1961915  70.9095240  38.6902380
  16.8735158  70.8499002  37.7910399  17.4998057  70.0251245  38.8948917
  16.1664061  53.7083081   6.6771948  17.0543198  53.4168938   6.4700234
  16.2175516  54.0048912   7.5858462   3.2148427  57.3158503  29.8916197
   2.4930871  56.9112444  30.3728652   3.9842650  56.8021870  30.1373243
  26.7852497  70.8926249  56.3168859  26.4731717  69.9915266  56.3997173
  27.6742935  70.8074903  55.9725189  19.4103491  73.5586309  47.1280146
  18.8011146  73.6809540  47.8560972  19.7503841  74.4355774  46.9503307
  39.5260095  72.7868921  63.0360794  40.2741420  72.1912757  62.9939842
  39.6004152  73.2046208  63.8941002  68.3398505  52.5289372   5.1774323
  68.8695391  52.4857643   4.3813193  67.8071888  51.7339733   5.1541102
   4.5074674  53.4872246  22.6148462   3.9348516  53.7493277  23.3357120
   4.8463184  52.6313114  22.8771782  49.9214126  28.5579422   7.7645600
  49.5708628  27.7239445   8.0772841  50.5627693  28.8120726   8.4281170
  34.6447406   0.9824468  40.8499002  34.8004667   1.1525537  41.7789030
  34.8765013   0.0611211  40.7329702  26.1209158   8.6878279  12.2814429
  26.9483236   8.5997179  11.8082964  26.1700396   9.5515707  12.6910364
  38.4856828  11.4786080   8.7280905  38.6928804  11.5012196   9.6623194
  38.6680468  10.5767945   8.4640658  40.5657271   2.9743482  45.7255983
  41.1422447   3.0592109  44.9662209  40.8709899   3.6469461  46.3344193
   3.9862195  17.7643979  38.4819746   3.0700254  17.7748978  38.2050085
   4.1960064  18.6829793  38.6505866  27.9936967  55.2809658  20.8228552
  28.0061082  54.4443383  20.3579581  27.8564059  55.9341909  20.1368010
  65.5863301  52.1169901  11.9132292  65.0107244  51.7668247  11.2333059
  65.2540950  51.7378616  12.7269316  63.4823564  42.9784060  58.1282091
  63.4111837  43.5423374  58.8983679  63.5885421  42.0968866  58.4858131
  63.0146857  45.0669983   4.6516669  63.7496169  45.3189400   4.0925324
  62.5835349  45.8938721   4.8675740  65.3813787  18.3001450  13.0374443
  64.5844539  18.3583477  12.5104201  66.0872729  18.5193947  12.4292719
  76.1169537  17.8219822  18.4406435  76.1993177  18.2577351  17.5923693
  75.2326878  17.4555281  18.4368098  77.8316625  26.6895369   4.4456875
  77.5754412  26.1834458   3.6746800  77.6796205  27.6008347   4.1953957
  73.6689661  60.9517050  59.4630814  73.4753028  60.0993586  59.8532486
  74.6180231  61.0435724  59.5472479  54.0212844  22.2321919  25.0741732
  53.8848135  21.7269257  24.2727339  54.6821568  21.7380360  25.5592406
  73.6472344  71.8156023  58.3573389  74.5396495  72.0130949  58.6416292
  73.3674455  71.0990368  58.9269733  74.9770147  62.8951645  40.6729603
  75.5155886  63.5266352  41.1498404  75.4433740  62.0644045  40.7655859
  77.3952673  42.1274948  35.7689929  77.0140997  41.4288521  35.2371645
  76.9008217  42.1018028  36.5881968  56.1810783   3.0974819  55.0834322
  55.5479626   2.4645711  55.4222775  56.9993857   2.8802062  55.5299664
  60.5295803   7.8065852  50.0484717  59.9123146   8.3897427  49.6067297
  61.0418840   8.3842638  50.6142103  58.1749679  32.1188239  28.3511889
  58.6186899  31.5445879  28.9753592  57.2820272  32.1938780  28.6877215
  39.6782402   8.8482715  24.0072274  39.1482476   8.0512001  24.0045619
  39.5434681   9.2284156  23.1391478  18.7798951  23.8781215  28.3293676
  19.1445068  23.5500957  27.5073647  19.4959156  24.3721439  28.7287307
  56.4097019  25.4743842   1.6648304  56.0042678  26.1646584   2.1895897
  57.2218181  25.2676133   2.1273720  73.8521645  29.3533111  51.1367941
  73.5669915  29.9478173  50.4429102  73.9048759  28.4971571  50.7119942
   5.4434347  31.5940642  56.5307665   5.7974637  30.7055497  56.5686703
   6.2003213  32.1601319  56.6821671  12.5616244   4.5887640  38.8161051
  12.6653151   4.8656395  37.9057085  13.4555224   4.5400837  39.1549361
  43.0340842   6.8880051  24.9048924  43.2104830   7.8163594  25.0574517
  42.5884131   6.5951103  25.6997633  36.3128880   7.3747684  36.0416985
  36.8291346   6.9352485  36.7173791  35.6917325   7.9159690  36.5290284
  37.9369716  65.7193925   6.8009627  37.8759781  64.7837855   6.9937145
  38.7385003  65.8058669   6.2849152  79.0454061  34.5522097   2.5680840
  78.3124431  34.4631794   3.1772434  79.8024662  34.7246722   3.1278622
  47.1032043   9.4616297  11.6486656  47.3251058   9.9724606  12.4271500
  46.1559214   9.5640210  11.5569985  61.8668083  42.7344799  50.8972359
  61.2282363  42.3233986  50.3145981  61.6176287  43.6585665  50.9118366
  25.1148868  48.9172554  60.5562305  24.6103120  48.1671000  60.2417421
  25.8578324  48.5293150  61.0185814  78.3016367  20.5145383  37.9804444
  78.1270681  21.4456034  37.8430533  79.2271815  20.4774427  38.2217383
  69.3853398  37.0309380  32.1839869  69.9158438  36.9360522  32.9750597
  69.8296495  37.7110794  31.6777956  72.4846867  24.3644500  59.3723106
  73.0144314  23.9561892  60.0570917  71.6281030  23.9443207  59.4496870
  74.6907003  70.9358766  26.6686213  74.8064001  71.6707112  26.0662329
  75.0620134  71.2433125  27.4955618  21.4225960  28.9012647  54.2514420
  20.9562922  29.6726561  54.5735312  21.0423422  28.7342954  53.3890247
  73.5642202  16.5388611  22.8992045  74.4063409  16.0948208  22.7997458
  73.7827690  17.4707631  22.8942168  13.7439394  50.4253864  20.6612921
  13.1613207  49.8505545  20.1649475  13.2488596  51.2382841  20.7628870
  75.1481403  57.9097366  62.0581055  76.0916118  58.0355215  61.9567585
  75.0594554  57.0134592  62.3822260   2.2934389  56.6746807  53.9253950
   2.0512521  55.8485889  54.3439007   2.1992150  57.3300362  54.6166706
  51.3597731  64.9872329  12.5676596  52.2226480  65.0670506  12.9742396
  51.2902812  64.0618684  12.3329270  77.3204242  32.8463745  52.7034903
  76.5220324  32.3256898  52.7911806  77.7761122  32.4618435  51.9546795
  16.4623451  43.6572361  55.4724979  15.6724143  43.8060760  55.9921980
  16.1795521  43.7801361  54.5663214  17.6747382  46.1653137  48.4292078
  17.7595150  45.5871534  47.6710701  16.9844449  46.7816019  48.1844378
  47.7232961  68.9509869  52.6941586  47.3344973  69.5185471  52.0286179
  47.1290449  69.0165424  53.4416866  67.6714535  10.2134684  14.7155392
  67.4643572  10.8891657  15.3611195  66.8286653   9.9968651  14.3167603
  73.0150036  44.2639446  46.3639164  72.3943070  43.7098551  46.8371534
  72.4821917  44.7155619  45.7094049  23.0758763  59.8957421   2.9790413
  23.9510950  59.5186307   2.8895342  22.6227317  59.6429088   2.1746981
  20.1400409   7.2448303  40.3432608  20.3950582   6.9369174  39.4735551
  20.7282046   7.9791976  40.5193281   6.7225510  69.2475080  63.8165808
   6.4415932  68.4306479  63.4042263   5.9111667  69.7344017  63.9608812
  69.0771623  31.1680153  19.8606169  68.6436088  31.9463232  20.2106154
  69.8746391  31.5022925  19.4500983  63.0736999  59.3518450  21.1530745
  62.1346525  59.5279886  21.2113535  63.1387238  58.3968570  21.1533320
  73.2949439  59.7218513  34.8251510  73.9030770  59.7147417  35.5643082
  72.8915939  60.5893993  34.8551798  10.5634797  43.2105064  44.5618534
  10.3415132  42.9295921  43.6741352  10.5647826  44.1666651  44.5172119
  65.2085038  43.5877541  52.7473700  65.9413548  43.9901665  53.2134402
  65.3185494  43.8694504  51.8392050  17.9684532  62.4180365  27.8362966
  17.3038816  63.1023741  27.7571893  18.1517756  62.1567392  26.9338846
  51.4078931  73.5915186   4.3683398  52.0249490  72.8637244   4.4444144
  50.9996776  73.4708096   3.5110056   1.4231880  53.8482857  47.6785469
   1.0747678  53.9472580  48.5645723   2.3703833  53.7820768  47.7996683
  31.2025631  63.0788114   1.7198288  31.9553206  63.6489226   1.5631115
  31.0566170  63.1290628   2.6645005  75.7895351  61.7257690   8.1197333
  76.4242775  62.3436928   7.7570927  76.2981240  61.1890650   8.7276095
  29.4341683  23.3418155  18.9019454  29.0335703  23.6562824  19.7124171
  29.2725539  22.3983645  18.9052522  71.0820063   3.6492279   6.6215336
  70.6263550   3.3697060   5.8275044  70.6611271   3.1557587   7.3255074
  15.7553077  40.1310492  60.6575775  14.8430312  40.2737713  60.4053593
  15.7787263  40.3289127  61.5938091  19.6878290   3.2164603  62.0672512
  19.8889732   3.8584542  61.3863564  20.5425525   2.8906229  62.3492289
  12.7463579  53.7469244  59.9433470  12.5774133  53.4906960  60.8500099
  12.2488868  53.1184101  59.4201660  33.6639953  48.8866425  18.5607982
  34.3648148  48.5942221  19.1435254  33.0588937  49.3593550  19.1323125
  65.2308086  55.3169107  60.4696846  65.1974348  54.7268057  61.2226105
  66.0539917  55.1002693  60.0318861  74.7674743  10.1501489  62.3550367
  74.1550744   9.8866481  63.0418873  74.5655424  11.0719943  62.1948624
   8.0860537  12.9535329  53.8233757   8.4560293  13.8323307  53.7393332
   8.8414633  12.3909283  53.9938593  17.4818385  23.1552124  61.6546392
  17.6951146  23.7508178  60.9363079  16.6778219  22.7186942  61.3731384
   7.6411513  11.5454796   4.9558937   6.9396237  12.1221426   4.6533215
   7.8230242  10.9766653   4.2078268  75.5227137  44.0469646  40.6301022
  75.0186614  44.3283939  39.8665857  75.5205981  43.0911064  40.5794430
  64.5821519  22.5389031  39.5115626  65.2382632  21.8426445  39.4803107
  64.8449130  23.1468180  38.8204634  51.9725827  54.0669693   2.8647864
  51.5970520  53.4010710   3.4407961  52.9129771  54.0324857   3.0399954
   7.7245573   3.8688830   5.3426754   6.9742326   3.4510020   5.7653105
   7.9059581   4.6380452   5.8827841  44.5397675  72.6846689  57.9711533
  44.2013401  73.4769312  57.5539970  45.4887044  72.8091297  57.9872608
  10.1190770  50.5361128  53.1678915  10.7929969  50.1765823  53.7447834
  10.5051935  51.3401508  52.8205252  50.2755381  18.5046652  37.5065863
  49.4866230  18.3760861  36.9799864  50.7701738  19.1762379  37.0369589
  26.8232155  34.4204450  27.6514149  26.9524932  33.8205934  26.9167757
  27.6535249  34.8909092  27.7254581   2.5328851  42.8752470  24.8975849
   3.2436100  42.2389126  24.8189640   2.0259736  42.7688122  24.0926361
  14.8576105   0.9858783  30.4172277  14.9966955   0.9036613  29.4737625
  14.0209234   1.4439487  30.4969645  28.9515448  71.7529440  50.8299208
  28.5931921  70.9189034  50.5262852  28.5931492  71.8610907  51.7108774
  64.4447402  42.4406052  11.2841725  64.0368549  42.9944420  10.6184983
  65.2432588  42.9084539  11.5285432  65.7277329  39.8997191  11.2001049
  65.1696034  40.5397442  10.7584154  65.4901119  39.0611819  10.8043539
  77.6147451  54.3123484  54.2490435  78.2465326  54.7183418  53.6555386
  78.0141043  53.4759998  54.4883299  72.6937766   0.2574089   8.1116879
  71.8281503   0.6632450   8.0645764  72.7084930  -0.1771232   8.9644444
  21.1051182  66.5847208  12.1352827  21.7855028  65.9845402  12.4403870
  20.9085611  67.1308257  12.8964436   9.1555830  68.6185455  47.2951508
   8.5156675  68.0696297  46.8419075   8.9972254  68.4533691  48.2245970
  35.9435630  73.4699535  64.2868376  35.6632161  73.3701849  63.3770657
  36.6085792  74.1578341  64.2584753  78.9122231  16.9498375  18.0480063
  78.8268025  17.0361021  17.0985377  78.0313261  16.7261866  18.3484041
   8.5388402  44.4684723   8.9454472   8.7028007  43.7424210   9.5472824
   9.3945984  44.6590355   8.5612690  67.6512937  20.9729530  62.7026892
  67.3977546  20.5200530  61.8984270  67.0225076  21.6902877  62.7820206
  34.7146964  34.7017002  18.4554183  34.1041422  34.3052268  19.0769196
  34.4687986  35.6265497  18.4349561  76.9008644  27.4169138   0.5587160
  77.0542128  27.1624878  -0.3512228  76.2104781  26.8260554   0.8595240
  78.7138173  62.8535700  49.6439219  78.5402751  63.5575962  49.0190506
  79.5293511  63.1107235  50.0740480  53.8137011   4.4726469  30.8655524
  54.0673236   5.0265647  30.1272535  53.3136729   5.0528623  31.4396214
  20.2573681  42.0766830  60.4926968  19.3638825  41.8320608  60.7336855
  20.7944226  41.7734098  61.2246990  39.1626859  66.9193220  32.3034811
  38.3640027  66.5144968  32.6417947  39.3743396  67.6010275  32.9412198
  75.3737376  67.5465536  43.7141180  75.0692502  66.7842865  44.2065287
  74.7090182  68.2163906  43.8744164  66.0487624  17.9897955  20.4265749
  66.7367251  18.6466435  20.3193819  66.2785073  17.2987536  19.8053610
  30.5493331  71.8455410  57.3911190  30.7853556  72.1470118  58.2684088
  31.0586882  71.0445213  57.2680140  28.1903625  72.1205378  53.6131525
  28.7765265  72.3775959  54.3248892  27.8752232  72.9488325  53.2514238
  70.0940080  31.4747599   7.3640787  69.4848998  31.9521454   7.9273951
  69.6561785  30.6416109   7.1897328  63.4390406  17.8898193  18.8323009
  64.2819480  17.9016639  19.2857325  63.5149650  18.5744525  18.1676650
  18.6411820  12.8156043  62.4404812  17.7510104  12.4860336  62.5638103
  19.2046086  12.0933391  62.7181959   9.3736104  33.6671570  32.9804289
   8.6962990  34.0633372  32.4322283   8.8955287  33.3000306  33.7239897
   6.9102673  31.1128357  15.6537783   7.4512271  30.3595856  15.8908808
   7.2742943  31.4169339  14.8223746  45.6680528  43.3802368  61.4878845
  44.9388949  42.7626373  61.4319229  46.3138834  42.9389621  62.0396233
  61.4820651  17.7609111  42.1547651  62.1204189  17.5819065  41.4643335
  61.9077352  18.4130718  42.7112961  65.9190329  56.3123349  21.0298216
  65.9497602  57.1484021  20.5647528  64.9952169  56.1953476  21.2514269
  18.3409321  35.6947708  50.4024553  18.4716022  35.5607510  49.4637346
  17.5077355  36.1619186  50.4640055  23.2398141  21.7164566  55.3052044
  24.0975814  22.0081951  54.9963999  22.6671238  21.8084575  54.5437622
  11.7443919  67.0593309  48.4409952  11.2335324  67.8506565  48.2705212
  11.3012862  66.6427946  49.1801739  76.0922304  56.5694475  64.3525028
  76.2799699  55.6517315  64.5494318  75.2713040  56.7496300  64.8105907
   7.1995811   1.4022926  13.3843338   7.8686289   1.2242249  12.7233517
   7.6906637   1.5127471  14.1984999  61.8694249  69.5927429  29.8561287
  61.9953123  69.2070436  28.9891696  61.3169376  70.3585720  29.6996379
  20.4428530  24.7614264  58.3996582  20.3985834  25.6172633  57.9732609
  21.3771820  24.5551372  58.4262753  33.3367991  71.9722128  51.7306328
  33.2887030  71.2494802  51.1048746  32.4771023  72.3901033  51.6804314
  74.9880428  42.5294638  50.9759331  74.5446692  43.3733749  50.8895397
  74.6779511  42.1804285  51.8115473  19.1408992  59.6460962  47.7785969
  19.8585927  59.9418259  48.3386803  19.4147551  59.8839045  46.8927717
  31.4764047  59.5171213  64.2100906  31.6307259  59.3282890  65.1357031
  31.7571855  58.7239170  63.7537766  65.3946574  32.0034150  18.1935274
  64.5076759  31.8735197  17.8579390  65.8510454  31.1880043  17.9860461
  27.9565883  66.9798136  60.1765203  27.7991343  66.1211061  59.7840118
  28.8289261  66.9096184  60.5642414  56.0970034  67.5927571  18.4399283
  55.2472307  67.5663689  18.0001318  55.8934869  67.8506974  19.3389666
   6.8924717  26.8499735  17.9481470   6.5202240  26.1234311  17.4483549
   6.7245726  26.6224650  18.8626349  53.8785056  18.7622215  27.5696611
  54.3061451  17.9076530  27.6250291  52.9703430  18.5613872  27.3435211
   2.2360787  73.3846045  47.5137520   1.6863772  72.6135731  47.6536655
   2.1568331  73.5685968  46.5777540  31.3628840  56.8049479  62.4999142
  31.8217516  57.2544861  61.7902756  32.0292020  56.6821909  63.1760693
  51.4121775   6.3322689  41.2767220  51.1442069   6.2804462  42.1941853
  50.9238724   5.6314899  40.8446360  17.5696111  72.2685575  45.6945896
  17.6320529  71.3150501  45.6384039  18.3170307  72.5261402  46.2342596
  33.0137221   1.3768579  62.5619984  32.3332373   1.9400217  62.1931934
  33.0909667   0.6547452  61.9384432  44.4822077   2.8100826  39.0838337
  44.0103523   2.0493175  39.4226909  44.4537560   3.4470703  39.7977400
  14.3412745  70.4898214  50.6971502  14.8606944  70.9130239  51.3807726
  13.9664292  71.2151766  50.1975632  10.0155524  29.2321947   2.5967276
   9.2715506  28.8378027   3.0518639  10.6190733  28.5041312   2.4486792
   4.9994159  67.0426130  34.9673533   4.7967759  66.4124918  34.2758942
   4.6095553  66.6660690  35.7563090  65.1842669  28.4071113  57.3214531
  65.2113656  27.9914428  56.4596415  64.4088892  28.0356933  57.7422428
  31.1008453  61.6397953  61.8811226  31.2766433  61.0504007  62.6145697
  30.2829480  62.0777941  62.1165609  34.0638319  14.0996696  24.4858527
  33.6965237  14.9256565  24.8006058  33.8952241  13.4774925  25.1934505
  38.2958841  66.9648170  18.4922993  37.5591969  66.9796228  17.8813136
  38.5586524  66.0450983  18.5284173  49.8902682  24.4645645  25.9227037
  49.4574193  24.7829582  26.7148495  50.8242611  24.5810653  26.0968137
  57.8390030   4.1189052  33.8865304  57.7058629   4.5251037  34.7429824
  57.1151618   4.4448806  33.3517146  11.3101614  66.5935183  28.4556150
  11.9169021  66.3784695  27.7471972  10.5025458  66.1332560  28.2272530
  26.6632427  61.4079930   3.7006962  26.1888067  62.0309283   4.2512333
  26.8859396  61.9051601   2.9136336  35.4769740   4.3210651  43.3570719
  35.8323924   3.9499427  42.5494957  36.2095050   4.3003560  43.9728642
  57.6820554  34.0030030  26.1044180  57.7386271  33.1806353  26.5909731
  57.3245318  34.6294812  26.7336523   3.2499856  69.4274712  37.2695231
   3.4069198  69.1518402  38.1726456   3.8507748  70.1603985  37.1349597
  68.6190251  20.6602718  28.4412813  69.1410712  20.4434349  29.2137313
  67.7826003  20.2177574  28.5855460  27.4419856  13.8058330  58.5049868
  27.1381450  14.5729686  58.0197811  28.2903361  14.0687515  58.8619280
  72.5995026  42.0489740  63.5691166  72.3237107  41.3444042  62.9828119
  73.4668723  42.2994947  63.2510853  28.7419486  70.0292492  46.1475325
  28.7501049  69.1197538  46.4458275  28.2811809  70.0021553  45.3089666
  14.1338456  58.3747387  49.9423504  14.7248709  58.5950470  50.6623411
  14.2984331  59.0485001  49.2826653  10.2191722  71.2556124  47.3572206
  10.7811975  70.4982805  47.1934795   9.4315743  70.8872890  47.7575493
  66.4162059   9.3824271   1.0486138  67.2181113   9.7126749   0.6435072
  65.8119579  10.1243666   1.0232842  42.0878506  68.0217409  46.5097046
  41.6735315  67.9123306  47.3656273  42.6864338  67.2783852  46.4365816
  59.2853574   5.3576948  51.6644573  59.5300154   6.1212017  51.1415577
  60.0714854   4.8116590  51.6734266  64.0656658  30.1804236  23.1161749
  64.9013479  29.7170189  23.0602801  64.2553587  30.9530285  23.6484587
  23.6859584  61.7796946  34.2996478  22.8363347  61.3394690  34.2756534
  24.3117976  61.1072826  34.0305352  28.9661241  73.3871841  42.6208448
  28.3830976  73.8012171  43.2571554  29.3471718  72.6461267  43.0918741
  69.3734059  67.2792959  38.5062528  68.4229616  67.3626328  38.4291625
  69.7173027  67.7455139  37.7442741   1.5738544  59.7685623  30.6091475
   1.4556265  58.8275766  30.7387710   1.7354149  60.1129055  31.4875317
  10.8390665  62.6319790  42.8006792  11.2910759  61.7889690  42.7653265
  11.2913775  63.1175232  43.4905243  33.8429562  19.5720436  59.1629648
  34.4518779  20.2551414  58.8821936  33.2598881  19.4483329  58.4139919
  22.1858120  60.3514719  22.6459384  22.0833731  61.2472534  22.3245096
  23.1324720  60.2298641  22.7185941  69.1216441  29.1629246   8.8102972
  68.6516924  29.4555786   9.5911515  69.9312921  28.7796381   9.1476261
  46.4651442  69.1105318  55.3068113  46.4145279  69.2226505  56.2560749
  45.5547523  69.1429853  55.0129223  73.8883813  52.8472737  13.4062159
  74.8192008  52.7126339  13.2282316  73.8233240  52.8379086  14.3611538
  59.4635240  48.4779501  22.1236849  59.7253553  48.4557676  23.0441117
  59.2536250  49.3967581  21.9564557  41.6927794   1.9361688  48.3419418
  41.2819783   1.5562679  47.5653124  41.8948010   2.8371288  48.0895567
  15.7482433  63.2945490  60.1468372  16.6436839  63.0505228  59.9125957
  15.2010906  62.8434515  59.5038986  55.3646783  18.7470771  38.9392090
  55.2826075  19.1180564  38.0606437  54.9051265  19.3674613  39.5050430
  32.7281475  68.8746881  41.1981010  33.2623959  69.6658230  41.2682486
  32.7195716  68.6736727  40.2622843  24.8899364  53.8875866  15.5115080
  24.8704743  54.2251110  16.4070141  24.6295094  54.6321201  14.9692154
  57.0764078  33.2666615   1.1536085  56.8477480  33.7427309   0.3552925
  56.6190349  32.4297074   1.0726845  57.3213005  59.2068863  23.6711931
  58.0031395  59.8705959  23.5671973  57.3061275  59.0242577  24.6106863
  22.0019245  32.1990395  58.8381481  22.2340631  32.1810937  57.9096985
  22.3751497  33.0186129  59.1625500  53.0944494  27.0943001   0.4079687
  52.5104336  27.7525833   0.7845509  53.1606869  26.4187220   1.0828316
  69.0892831  46.7015457  55.1434040  69.0572039  46.2622261  55.9932280
  69.4773940  47.5563669  55.3301859  -0.1672145   1.0374788   7.1804440
   0.4487161   1.5424612   6.6495430   0.3793625   0.4003003   7.6403248
   5.4370693  10.4815319  41.6495478   5.2463750   9.7917679  42.2852385
   5.3288130  10.0587204  40.7976401  22.6184944  -0.0729559  31.4998412
  22.4385590  -0.4652117  30.6454444  22.5179122   0.8682062  31.3572669
  12.3028076  55.2901602  47.1185350  11.8740463  55.0739288  46.2905025
  11.6063225  55.2282429  47.7722216  27.2812853  16.6306545  39.7341418
  27.2155158  16.2967826  40.6288147  28.2047317  16.5238811  39.5059347
  71.4082547   6.5163782  13.3299839  72.2980495   6.4806584  12.9789555
  71.0587652   7.3490122  13.0124771  18.7432373  48.5896158  60.3139925
  18.0131984  47.9940367  60.4829741  18.3379841  49.3563557  59.9088812
  66.3430313  23.2554485  47.2254324  65.7180194  23.9191295  47.5171757
  67.1048240  23.3784439  47.7918053  19.2329220  50.9756306   2.3683226
  19.3664555  51.0322216   1.4221728  18.6268238  51.6891411   2.5677693
  76.5703257  34.3490723   3.6193526  76.1196382  33.8837031   2.9146921
  76.3638051  33.8475064   4.4080317  72.6030310  29.6847847   0.9610045
  71.8879815  29.8336390   0.3423130  72.9009517  28.7947491   0.7731020
  12.4037492  64.4851303  36.5543294  12.4747872  64.8921537  35.6908965
  13.0364454  63.7671518  36.5334487  11.2521128  33.7444952  27.6789152
  11.2619642  34.6370963  27.3333704  10.3439454  33.4590224  27.5790655
   5.6185997  71.3976526  37.5634575   5.4718095  71.8355179  38.4018826
   6.4966726  71.0241032  37.6388311  58.3080033   9.7526885  61.5953922
  57.3518399   9.7860195  61.5658712  58.5717920  10.6440212  61.8238115
  52.6145891  18.1014492  45.6633520  53.4395985  18.1483509  46.1464596
  52.6970533  18.7697841  44.9830914  78.0970040  66.1793995  41.4595366
  77.9444139  66.0539198  40.5229425  77.8348459  67.0848799  41.6257143
  68.2813616  19.3437889   3.2559311  68.5649927  20.2563122   3.3114493
  68.0822714  19.0994433   4.1597521   1.5084852  74.0531349  38.1985641
   1.4590733  73.1213713  37.9850101   0.6492923  74.3998528  37.9581332
  22.3639321  54.8698950  49.4081020  21.6106367  55.4463339  49.2796755
  22.3575664  54.2935848  48.6438656  11.2738419  36.5299106  36.6480923
  10.8710861  36.8976593  35.8614659  11.6580164  35.7031584  36.3563323
   6.9434337  36.0073450   2.5369656   6.7232040  36.9054297   2.2896302
   7.4253968  36.0966853   3.3591330   3.0795435   1.4829208  45.1457930
   3.6795167   0.7955791  45.4353285   2.2762827   1.3241483  45.6415701
  34.7302437  48.2536364  25.3290105  34.6592999  48.8858414  24.6138072
  34.0946913  48.5544300  25.9784937  71.8555172   8.9760617  27.6266157
  70.9668656   8.8466624  27.2952807  71.7883296   9.7389773  28.2007944
  23.8501668  68.3177471  38.7885547  24.7178745  68.1079674  39.1339636
  23.3858562  68.7087297  39.5286751  37.6977340   6.6620590  50.0161505
  37.9261390   5.8911468  50.5355310  37.3186199   6.3058044  49.2126703
  44.5093183   8.9819099  63.6025429  43.8597659   9.2305709  64.2601776
  44.0346579   8.4065296  63.0026579  77.2176454  57.3057222  29.9831772
  76.6940547  57.7333021  30.6608629  78.0248107  57.8187943  29.9447870
  24.3240261  64.0751934  47.9335117  24.7560740  63.3642292  47.4601221
  23.5762644  63.6582327  48.3615637  49.8074032  14.8714760  19.8334753
  49.8204796  15.1575116  18.9201033  49.2481314  14.0946606  19.8332083
  68.6567282   5.0903492  33.5517084  68.3663928   4.7302894  32.7136767
  68.8981437   5.9950237  33.3529436  41.9175188  10.4472591  40.1494122
  42.8303961  10.2097942  40.3121853  41.6884581  11.0289718  40.8742428
  26.1862636  46.2449789  33.5344839  25.9853578  47.0220089  34.0561152
  25.7656765  45.5253077  34.0050197  27.3909789  12.0815612  63.4802675
  26.7199709  11.9112731  64.1413164  26.8984741  12.3212291  62.6952696
  15.0037817  67.9980210   4.0099060  14.6579842  68.0473641   4.9011004
  15.9080605  68.3023671   4.0866816  44.4361973  32.9876685  63.9668751
  44.5685673  33.8417840  64.3782091  45.2294922  32.4950314  64.1771650
   8.4781522  65.1814604  51.0383415   8.1931084  65.6180620  51.8410635
   8.1963134  64.2731333  51.1466980  21.9013790  32.2818163   1.0553610
  21.1564831  32.0139721   1.5935290  21.5099768  32.7676085   0.3293812
  53.2345418   2.3495199  62.4543285  53.6163739   1.8981554  61.7015266
  53.8023857   2.1140768  63.1880522  64.1312833  29.3601635   1.6003191
  64.1334351  29.3820504   0.6433689  64.2159100  30.2772692   1.8610585
   3.3952227  36.9731617  60.0513458   3.9572719  37.4463940  60.6648445
   3.1400800  36.1802721  60.5229998  50.1355247   5.1935960  33.1533480
  49.4898514   5.4369117  33.8167739  49.9064640   5.7241394  32.3902678
  30.4273558  72.2290754  45.5742311  31.0890269  71.7732573  45.0539875
  29.8438072  71.5350294  45.8808231  20.3135542  26.8419436  38.8004744
  19.5939640  27.4395636  39.0036356  21.0759930  27.2306040  39.2292559
   9.8925614  63.8609028  37.4877882  10.8083141  64.0466785  37.2801375
   9.8284453  62.9064083  37.4551678   2.0513895  63.4369946  23.8924885
   1.1985980  63.1542921  24.2227244   1.9030848  63.6091423  22.9626489
  13.0733446  43.1547669  28.9080965  12.9032759  42.2298792  29.0867102
  12.3579077  43.4228447  28.3314574  28.9322142  25.0555447  16.4320624
  29.2933039  24.5617226  17.1682608  28.1672100  25.5017832  16.7952025
  10.6874299  56.8654728  43.4313107  10.4548514  56.7406368  42.5112247
  11.4498007  57.4438667  43.4092951  70.8422752   2.6034382  13.1239617
  70.4001100   1.7817787  13.3374989  71.7379971   2.3442558  12.9077732
  59.9208450  38.4680939  55.8678818  60.2537155  39.0191603  55.1595354
  60.2840042  38.8560605  56.6640139  61.4666851  38.8375357   4.0197289
  60.7460816  38.5917071   4.5998442  61.0380788  39.2217615   3.2549441
  63.9522640  64.4061089  37.8376222  63.5317222  64.9547386  37.1755195
  64.8861615  64.5959425  37.7480102  25.7363367  64.3835068  30.4405355
  26.5599084  64.2090988  29.9849677  25.0773263  64.3990135  29.7464919
  53.7976875  36.2406710   8.0457222  53.2733600  35.8340100   8.7356055
  54.6770252  35.8840540   8.1715119  66.5420230  57.2385720  42.1879637
  67.1582563  56.5334538  42.3861944  66.1267658  56.9703701  41.3682997
  48.0644226  64.2189455  56.7340899  47.6003695  64.8099852  57.3270178
  48.4878492  63.5839605  57.3117876  40.5939054  54.6274376  18.4990466
  41.2954473  55.1212072  18.0744708  39.8742676  55.2536154  18.5781538
  21.2048254  10.6114246  37.4347615  21.6046888   9.8258735  37.8079200
  20.8650080  11.0895969  38.1911397  78.4972902  69.5292616  35.0371718
  78.9257153  68.8264513  35.5257821  77.5618372  69.3828964  35.1776600
  52.9461408  18.8360957   2.1763336  53.5830384  19.2938259   2.7250397
  52.2123823  19.4461754   2.1012795  13.5001298   8.1951790   2.0415890
  14.0843018   7.4865513   1.7717278  13.0824407   7.8705768   2.8393376
  32.2978568  53.5206747  57.1639013  31.5893865  53.0491495  56.7257643
  32.9943800  52.8711557  57.2598934  79.2108754   2.8150798  49.0931845
  79.7243432   2.0341541  49.2999029  78.4300307   2.7404596  49.6417713
  53.9490322  71.2954618   7.0026076  53.3199004  71.0382058   7.6765835
  53.7235741  72.2030451   6.7984164  41.2467197   2.1313192  61.8653536
  40.4891566   1.9599439  62.4247837  41.8000809   1.3570119  61.9676876
  48.6294321   8.7057258  62.4779034  49.1176204   8.8250305  61.6632414
  47.9301671   9.3580200  62.4358082   6.6734318  45.3228215   7.1854603
   7.3290352  44.9770001   7.7911198   7.0168666  46.1768082   6.9227850
  43.6953942   5.1404954  40.4035664  43.6665110   6.0780479  40.5943537
  43.1223635   5.0327875  39.6444416  41.4821617  12.2318412  42.3792410
  41.7026595  12.7484561  41.6041756  41.1599235  12.8741981  43.0115175
  55.3430203  20.0079013  36.6198325  55.4037980  19.7548438  35.6986928
  55.5441050  20.9437324  36.6248965  45.0553731   8.8085033  25.0269413
  44.4160942   8.8819553  24.3183088  45.8404426   8.4582950  24.6059346
  51.4342737  71.1639929  64.0428638  52.3851967  71.1675692  64.1522312
  51.2870693  70.6591129  63.2430744  32.6605296  68.5516071  38.3901048
  33.2073259  69.3037605  38.1631422  32.7315354  67.9673910  37.6352000
   1.3115573  32.0173694  53.8503408   1.0123992  32.3575927  53.0071449
   1.4988875  31.0936977  53.6830759   4.9120048  52.1830416  40.8802080
   5.7532251  52.1191931  40.4279852   4.2818633  52.3801184  40.1871586
  66.8657807   3.1000282  25.1561594  66.2119822   2.4790336  24.8349977
  67.6866559   2.8111602  24.7574735  47.7402333  13.0454494  63.6004591
  47.4683789  12.7966739  64.4838858  47.1710638  13.7806083  63.3728170
  24.0647987   9.7028759  10.5142462  24.4709782   9.1838768  11.2084305
  24.4444994   9.3598011   9.7053206  58.0198626   7.1217205  24.2671633
  58.1851629   7.5344898  23.4195018  57.8145579   6.2113525  24.0542889
  17.1654467  58.1372574  17.4181902  16.7571167  57.9079655  18.2530081
  18.0009274  58.5358837  17.6617110  77.8384332   7.8870822  51.7514610
  77.3352221   7.1379329  51.4324045  77.1956042   8.4311439  52.2064304
   9.9439120  13.9338638  62.1652079   9.4988752  13.3004524  61.6022205
  10.2379346  13.4204437  62.9176569  67.4023990  22.8579570  35.7695603
  67.0230130  22.6258804  34.9219537  66.6720704  23.2276870  36.2656999
   8.9937452  22.3447970  12.2040379   8.2742671  22.2990731  11.5743601
   9.2331890  21.4313916  12.3608649  24.5571303   4.6887733  46.6002560
  25.4160333   4.9513723  46.2692547  24.6029115   3.7342025  46.6543722
  50.3844738  45.8533192  60.7158136  50.3165531  46.8041372  60.6288433
  50.9879971  45.5917025  60.0204420  62.8121666  14.1828109  56.0254097
  63.4572343  14.8590900  55.8186197  62.5698594  14.3532516  56.9356155
  52.1811823   5.2702476  48.9403868  53.0020122   4.9632837  48.5553598
  51.5966276   4.5137693  48.8927364  61.6679688  39.2715624  17.4278319
  61.4536668  39.9109629  18.1071532  61.9756098  39.7991732  16.6908037
   3.8062290  58.0437973  10.1767599   3.9582137  58.9566067  10.4215300
   4.6499471  57.6143196  10.3178799  58.5450156   4.9589901   1.6908467
  58.6544259   4.6012382   0.8097803  59.4085725   5.3035526   1.9183886
  67.6467208   0.6148864  56.0341883  67.2503594   0.6752540  55.1650047
  66.9640473   0.9222604  56.6306067  62.3468188  18.7988998  46.2525654
  62.5227074  18.5751201  45.3386593  63.0616526  19.3866493  46.4970827
  32.3098663  26.6607788   7.2972643  32.6121763  25.7558897   7.2197211
  31.4110903  26.5863827   7.6180470   1.5469675  68.3230066  15.3414571
   2.1985626  68.6421251  15.9658122   0.7050864  68.5215187  15.7514107
   2.9889417  65.3396465  57.0892477   3.7699771  65.8883239  57.0173597
   2.2750592  65.8975460  56.7804575   4.7055459  15.0399734  30.8754849
   3.9832759  14.8075344  30.2919412   4.4084907  14.7687770  31.7440701
   3.3752111  43.6045694  15.9834981   3.6814561  44.4459772  16.3218451
   3.9543086  42.9586458  16.3880491  75.0468329  13.3554698  63.0498743
  75.6708936  12.9356815  63.6419535  75.3277329  14.2698528  63.0148983
  45.1471806  67.5904417  50.3393364  45.1172543  67.9102945  49.4376516
  44.4743967  68.0961084  50.7952976  45.6875086  52.2274828  59.0979242
  45.5324268  51.3153982  59.3434477  46.6295052  52.3502874  59.2153406
   8.0049360  61.8593931  39.7308540   8.2768995  62.6917601  40.1174212
   8.7043643  61.6415644  39.1147518  34.0182829  62.2452450  54.0851927
  33.1320477  62.0935726  54.4135427  34.5456553  62.3799133  54.8725748
  27.2128510  67.7481365  31.2533832  26.3622212  67.4603224  31.5847802
  27.6190853  68.1974697  31.9945359  24.1000986  61.2197685  57.2345400
  24.2409062  61.8952417  57.8979731  23.1787682  60.9784651  57.3302031
  44.7488976  70.0171232  44.0988159  44.9402666  70.7282400  43.4873199
  45.4674292  70.0446558  44.7306204  29.4598317  68.8663912  54.5820570
  30.0597811  69.4809961  54.1595030  29.8906112  68.6394548  55.4061699
  15.0335316  36.0144213  19.5748007  14.8442558  36.7220810  18.9586603
  14.5065073  36.2214354  20.3465616  32.5093035  16.4592675  22.3016226
  33.1286959  17.0665911  22.7062666  32.9043106  15.5962447  22.4256956
  19.1535640   4.8125221  51.7566347  19.2240548   3.9878417  51.2758446
  18.3780217   4.7033979  52.3069572   2.2196269  46.3976051  27.9279780
   1.9292569  46.9934417  27.2374034   1.4104295  46.0281803  28.2814670
  14.9592642  19.1247967  21.9084227  14.7011141  18.5405758  21.1954844
  15.7325844  19.5807770  21.5763247  72.4909858  23.4165718  47.2599602
  73.3616332  23.2743503  46.8885040  72.0385913  22.5821449  47.1363020
  55.4239491   9.6747924  61.3161087  54.5756511  10.1181556  61.3089275
  55.4389028   9.1731121  60.5010509  39.8212528  45.1854897   5.0943798
  39.0731025  45.5030012   4.5887214  40.5530882  45.7320547   4.8081732
   3.3859209  61.1676529   2.4666989   3.1908206  60.5341366   3.1572211
   2.6676134  61.0695103   1.8416941  71.3065795  15.0400402  59.3756056
  71.5127448  14.1176464  59.2242336  71.3327674  15.4372932  58.5051250
   3.3636633  67.4114323  61.1684656   3.7023178  67.6857758  60.3162479
   3.8841319  66.6410875  61.3963175  57.7338456  71.1865834  20.9443056
  56.9187494  70.8323601  20.5888140  58.3758755  70.4890374  20.8121836
  46.4263916  72.6926470  34.4314098  45.8763838  72.0586729  34.8916245
  45.9199810  73.5047722  34.4467807  45.4867104   3.2587196  41.7867661
  44.6624736   2.9034139  42.1193647  45.2708546   4.1510154  41.5157509
   6.2303561  56.7579412  39.5455098   5.7436794  56.8891335  40.3592443
   6.9167215  57.4247837  39.5667624  60.5005983  21.6475154  40.8037281
  60.9628681  21.6923763  39.9667549  59.6374945  22.0187808  40.6208420
  53.1479148  12.8063156  64.1451406  52.2864131  12.4695445  63.8989019
  53.7481455  12.4162246  63.5096979   1.7500520  19.4806625  16.4313650
   1.5707612  20.2968074  15.9644675   1.4747644  19.6542503  17.3315406
  64.0739659  30.8958866  49.4704247  64.1863994  29.9835350  49.2035580
  63.5601572  31.2900402  48.7655306  34.2393041  72.4295425   7.8688008
  34.1456270  71.5511560   8.2374364  34.0167332  73.0172777   8.5907847
  27.3644260  32.1277264   4.2263043  27.7925257  31.3311079   4.5399296
  27.0403198  32.5537566   5.0198328  62.6445414  42.1128586  16.2154829
  62.7964576  41.6607979  15.3855479  63.3407112  42.7681378  16.2622320
   2.0254827  15.6187869  60.5207729   2.3742080  14.7488262  60.3263903
   1.0763621  15.4967929  60.5434704  33.7045858  18.6471988  64.3468714
  34.0328047  17.7513267  64.4238186  33.8764963  18.8878967  63.4365177
  20.5936805   2.2515012  26.8389320  20.6815908   2.5329591  25.9282804
  21.0169093   1.3933851  26.8663216  61.3802318  28.3192588  43.3101273
  60.4474167  28.1960823  43.1342936  61.8212966  27.7992202  42.6383734
   3.9497570  39.6553734  14.7818672   3.8421945  38.7516859  14.4852078
   3.2648782  39.7745875  15.4398596  54.8851252  54.8009872  57.3489189
  54.0693092  54.4229650  57.0206261  54.6693230  55.7157564  57.5301933
  38.0394864  53.3915377  26.8143368  38.2223010  52.7340555  26.1431241
  38.6002159  54.1320801  26.5832281  56.0197572  49.2413379  63.7332582
  55.8498196  48.6158706  64.4376278  56.2224630  48.6964561  62.9728317
  74.3210061  27.6296738   9.9109423  74.1025217  27.0270279   9.2000878
  74.5797785  28.4381083   9.4685519   2.6887012   2.5193073  51.0628891
   3.2694173   3.0786611  51.5787601   3.2736802   2.0524360  50.4661798
  19.9522901  70.4456091  41.0214758  20.3078938  69.6597290  41.4364100
  20.6665683  70.7713938  40.4738379  -0.3108001  16.0677577  32.1729469
   0.1507068  16.9002582  32.2738552   0.3528428  15.4024078  32.3549366
  67.1331386   6.8845035  52.9158878  67.9518012   7.1338035  52.4870729
  66.6728620   6.3555480  52.2642899  68.8299684  30.0082637  47.4105644
  68.7778501  30.9639598  47.3979664  68.1196526  29.7373058  47.9921722
  29.3917946  55.6590584   1.2409413  29.4341330  54.7478512   0.9508717
  30.1250605  56.0858277   0.7977354  49.4404296   8.2371379  15.6344032
  48.7244610   8.7846996  15.9565830  49.6204380   8.5709335  14.7555351
  25.5279660  21.6796638  50.8375168  26.4102531  21.3096572  50.8674383
  24.9591661  20.9663822  51.1272192  29.2551732  44.4078779   4.2263713
  28.7883687  43.6061573   3.9906296  29.4776297  44.8110628   3.3872133
  78.6179809  26.9502880  49.9759722  79.2375783  26.9007827  49.2480421
  78.6365775  26.0764362  50.3661776  61.1353330   5.6879760  41.1380386
  61.7306117   6.1753990  41.7075014  60.5555872   5.2218725  41.7404318
  15.6683115  42.5797108  26.0481226  15.4321150  43.5048989  25.9812319
  14.8313860  42.1251706  26.1439192  65.2177409  18.4242870  52.9857922
  65.7298569  18.2408763  52.1981859  64.4024471  18.8041259  52.6583052
   1.4045119  11.6460659  50.8391190   2.0122600  11.8027832  51.5618324
   1.2304521  12.5159599  50.4796410  43.9335088   4.8598005  34.2383671
  44.5863561   4.5010997  33.6372352  43.1043223   4.7799493  33.7668729
  16.0738719  70.6809092  24.4131732  16.7869473  70.6897449  25.0516677
  16.4554000  71.0628366  23.6227298  69.7555752  19.3308476  26.3142931
  70.2920158  18.8919953  26.9745028  69.0221043  19.6984557  26.8073618
   5.7302836  46.7854145  15.8494913   5.4212002  46.1473969  16.4926493
   6.0412005  47.5231102  16.3742506  67.6199333  43.6867189  29.5164347
  67.0249823  43.4582758  28.8022351  67.2486202  43.2538700  30.2852011
   1.3794446  25.6996776  44.6630716   1.6735244  24.8492004  44.3368340
   2.0597577  26.3119651  44.3828773  37.9997182  69.8274231  54.3390942
  38.2933974  68.9617205  54.6229029  37.1023655  69.6885538  54.0362644
  76.8589238  14.1325141  58.0841398  77.2206668  13.3083583  57.7583456
  75.9792022  13.9054634  58.3854151  76.9850405  37.2613409  21.6289103
  77.6108201  36.6104439  21.3111651  77.0803602  37.2403649  22.5811255
   1.1204747  22.6432446   1.0526669   1.4826516  21.9910220   1.6523897
   1.4233498  23.4822396   1.3999235  41.7808151  58.9824438  24.3099213
  41.2057018  59.0449238  25.0725293  42.5810051  59.4355774  24.5756245
   3.0230546   6.9633342  25.0173855   3.1644940   7.0527126  25.9598494
   2.2643876   7.5178958  24.8353958  15.2205658  65.0071192  56.9772673
  15.7179523  65.3578472  57.7160692  15.2958822  64.0571356  57.0672226
  77.8748826   9.9193241  44.5033312  77.2725896   9.9726345  45.2453804
  78.6552648   9.4936611  44.8583603  66.3224987  12.5108768  39.4980884
  66.0753445  12.7374889  38.6015439  65.7648257  13.0622627  40.0469112
  18.2232976  29.6702053  59.4351006  18.9332843  29.7758342  58.8018608
  18.4419274  28.8674308  59.9083614  75.2859791  42.7681092  45.3036368
  74.6413596  43.4209851  45.5764925  74.9180706  41.9329766  45.5924952
  19.4569123  74.3819809  51.0725403  18.7035334  74.3195820  50.4853773
  19.5268488  73.5120630  51.4657116   3.4640402  61.2324762  49.2762947
   4.3265441  61.1628962  48.8670540   2.8930297  61.5536928  48.5784435
   7.6257304  19.6321658   4.6669256   7.4498443  19.6253613   3.7260496
   7.8832535  18.7326697   4.8689568  42.1974373  74.4817781  49.1375303
  41.6510677  73.7240887  49.3463945  42.4659491  74.3404770  48.2296944
  39.3154434  35.6773785   9.3445027  38.9491896  36.4156464   8.8576281
  39.0402369  35.8268240  10.2490246  71.0036421  62.8225470  49.8346663
  70.1656055  63.0429268  49.4280148  70.9398746  61.8861008  50.0223684
  76.6058425  21.2178756  40.9402514  76.7017011  21.1990501  41.8924522
  76.6660432  20.3000499  40.6752729  13.5042560  66.4932251  40.3143120
  12.8481042  65.7963228  40.3187227  13.8976908  66.4462566  39.4429731
  32.7839217   1.3724090  27.8027558  32.8984384   2.2530652  27.4456024
  32.4054048   1.5132476  28.6705828  61.1187363  64.3946266  42.0094156
  61.7899370  63.8600492  41.5852070  61.5141344  64.6613836  42.8393173
   2.7025294   5.0080539  38.6690784   2.8492904   4.8210432  37.7418661
   3.5809732   5.1164152  39.0335226  32.7669787  70.8240414  45.1203203
  32.8737473  71.0752058  46.0377884  32.2513318  70.0181913  45.1510525
  44.1425943  65.1632023  60.2338266  43.8553381  64.9031687  61.1090994
  44.3114233  66.1026001  60.3063869  18.8151840  40.8766011  10.3472101
  19.6481470  40.8338192  10.8168614  19.0601019  41.0698155   9.4422686
  64.3548460  26.9612482   6.7389643  63.6910303  26.2759951   6.8164932
  64.0877350  27.6263502   7.3734104  32.7703524  72.6226091  28.0959582
  32.1132708  72.2174788  28.6619496  32.7969360  73.5373783  28.3765388
  12.9734254   1.7190696  41.6919518  12.1908307   2.0196153  41.2299395
  13.0976462   2.3582460  42.3935604  13.4338836  29.7766617  26.7738688
  12.5374226  29.5226887  26.9931662  13.8652090  28.9548138  26.5398562
  47.4443007  74.4333553  55.5027580  46.8153620  74.9567795  55.9994459
  47.4449968  73.5816526  55.9396076   5.7560996  32.0571497   3.2481920
   5.9364943  31.8815020   4.1716873   4.8078851  31.9554737   3.1658280
  23.6476302  67.4870491  54.9799442  22.9934812  66.8720245  54.6481848
  24.0692282  67.8352070  54.1942739  29.6175575  71.3635683  24.5576310
  30.1354337  71.0513973  25.2996469  28.8644695  71.7986917  24.9573231
  27.2452760  68.5924435  44.2416620  27.8336978  67.9133511  43.9117718
  26.4018416  68.1509018  44.3411207  51.5818337   5.4623844  58.9708710
  52.2242550   5.9699584  59.4667435  51.2873320   4.7867633  59.5816374
  75.0397710  28.7433196  57.5165224  74.7599629  27.8757240  57.8084564
  74.2541913  29.1311885  57.1309614   1.4052085  32.6669815   1.3419783
   0.7749156  33.2970646   1.6912043   2.0355109  33.2013825   0.8588993
  14.4939021   9.1289665  57.2224998  15.3729621   9.2270233  56.8566179
  13.9140765   9.4931842  56.5536356  67.1791533  17.0497180  60.0376892
  66.9187478  16.3219119  60.6022406  67.7848605  16.6593028  59.4076681
  16.9123177  32.0855168  12.8862393  16.6525320  32.7258566  13.5485899
  16.1176828  31.5790442  12.7180874  11.2512092  37.4261263  11.4826023
  11.1190299  37.5755003  12.4187910  12.1388535  37.7414969  11.3127196
  55.8521418  26.3835002  51.0195351  56.5014438  26.8857624  50.5272293
  55.5494360  25.7154705  50.4044390  51.3113646  35.6810692   3.0905401
  51.9985155  36.0533217   3.6432421  51.4817909  36.0422114   2.2206175
  40.1134968  65.9015226  57.9650450  40.6141329  65.3253984  57.3873997
  39.2906451  65.4355764  58.1135035  61.1626438  10.3112747  56.3429642
  61.4548973  10.5733730  55.4699659  61.9605235  10.0226261  56.7860222
  46.0260725  72.0990801  37.5654149  45.6228447  71.8622637  36.7302132
  46.2206030  71.2604189  37.9837942  64.7799499  34.7251252  18.6445963
  65.0381072  33.8280848  18.4326899  63.8275845  34.6859005  18.7323153
  71.1281709  26.8322612  30.8476520  70.9997682  27.4485923  30.1266217
  70.5862359  27.1774150  31.5571594  30.9767223   1.4385654  53.9717484
  30.0555015   1.4274694  54.2314625  31.1128879   0.5972339  53.5360289
  55.1720764  73.9488343  26.5212500  54.9937290  74.8174504  26.1607802
  54.3062876  73.5665921  26.6645300   8.6662030  11.1733676  61.3925886
   9.2640567  10.5490352  61.8037033   8.1641603  11.5393306  62.1207809
  27.2090916  26.9311884  17.1116984  26.7992977  27.7467945  16.8234503
  27.4816994  27.1054438  18.0125582  70.6591538  33.0635883  52.8483725
  69.9908761  32.5522281  52.3921394  70.8883265  33.7607337  52.2338057
   6.8233875  60.3405503  12.5354397   6.4840654  60.7450608  13.3338558
   7.4334649  60.9869030  12.1801054  74.5393904  41.3367108   9.8301279
  74.9578340  40.4773024   9.8806727  73.8296993  41.2956313  10.4711258
  52.0123772   0.6126930  23.5885262  51.4691237   1.0542966  22.9357672
  51.4473633   0.5347492  24.3572378  34.7167830  51.2767723  11.1815130
  34.9091105  51.4876965  10.2678644  34.9748663  50.3597859  11.2750733
  50.0321341  60.6525278  33.5755181  50.1855850  61.2427616  32.8377461
  50.7439899  60.0146866  33.5240459  27.5250693  62.5191711  63.7542825
  27.2866555  63.1084560  63.0386409  27.6698133  61.6734336  63.3300144
  65.0756741  70.4785824  41.7706633  65.9286118  70.1480961  41.4886904
  65.2425861  71.3862038  42.0248270  14.7918153  45.1153995  20.4934764
  15.0689769  44.2352058  20.2391815  14.9953723  45.1702167  21.4271736
  74.0293817  12.5851108  24.3758512  73.6445264  13.4565879  24.4688249
  74.0426377  12.2329475  25.2658153  62.4691371  21.9913722  30.9341216
  62.0037035  21.2855865  31.3829875  62.3594383  21.7966129  30.0033879
  51.2050013  13.6692859  33.8421011  50.3716783  13.2867099  33.5674310
  51.0145024  14.6001197  33.9582372  18.8234953  54.0707997  17.5797426
  18.9505152  54.1896561  18.5210001  19.4856648  54.6318081  17.1759760
  23.8654876  11.1628295  53.3944464  23.7504602  11.8984844  52.7929354
  23.6289573  10.3921844  52.8783131  55.7692079   3.9471485  36.5505314
  55.7477931   4.4081022  37.3891592  54.8514704   3.8916065  36.2842488
  16.1481988  16.6777396  48.2844496  16.2969530  15.7757199  48.0007887
  15.2861428  16.9002831  47.9329252  71.0550497   2.7190581  38.3487988
  71.0070787   1.7660005  38.2738876  71.5555409   2.9947808  37.5808692
  69.3533979   2.1186946  40.4252958  68.5562638   2.6400411  40.3303957
  69.7730914   2.1642755  39.5662212   3.3468036  53.4814705   9.6646607
   4.2970494  53.5964860   9.6586239   3.1578783  53.0938794  10.5192435
   8.6524912  36.1315011  39.6855402   8.0123850  35.7538580  39.0823150
   8.4791537  37.0725392  39.6604061  53.7276510  51.3957788   7.6733505
  54.1475920  51.1145117   8.4862292  53.0229858  50.7626225   7.5362694
  69.7312007   4.8707595  11.7460763  69.9720279   4.1175216  12.2853971
  70.2164320   5.6028068  12.1267176  38.4057216  64.7480204   3.6210119
  38.7899033  64.1919591   4.2988264  37.5231639  64.9382259   3.9390433
   0.8025241  24.4447565  31.1716056   0.6759983  23.6745453  31.7256832
   0.0648482  25.0164986  31.3841534  78.8968563  73.0424227  43.5775328
  78.7768340  72.8292416  44.5029449  79.0091967  72.1939585  43.1489086
  16.4317203  44.2358589  23.2438183  17.1277142  44.3903875  22.6051140
  16.4469373  45.0099611  23.8066363  10.5860496  27.3382378   6.9819665
  10.6604123  28.1469893   7.4885470  11.1515796  27.4784565   6.2225282
  13.5857081  24.0151405  58.8639021  12.8788006  23.8655448  59.4917059
  13.1386673  24.2600012  58.0536985  68.8530413   4.2557308  50.6054544
  68.1687931   3.7404874  50.1781845  68.9903835   3.8205439  51.4468718
  71.8390345  35.6688570  20.4175186  71.9966578  35.8297275  19.4871926
  72.6250088  35.9975027  20.8539462  63.9756755  18.7552857  30.7486510
  63.9164428  19.0191233  31.6668630  63.2945827  19.2641079  30.3088284
   7.6950920  38.4793091  53.1441259   6.9771785  38.1231236  52.6207113
   7.2617763  38.9532208  53.8539696  55.5973605  13.8137603  42.7320719
  55.1178340  14.0805399  41.9477797  54.9361233  13.8001072  43.4240341
  76.3977885  58.9067076  43.4728098  77.1928906  58.4787332  43.7904310
  76.3986730  59.7624003  43.9017868  25.7045412  11.5469575  22.1828985
  25.6611776  12.2900486  21.5810966  25.8776474  11.9409680  23.0378962
   8.3626640  24.5269847  13.6243987   8.3651960  23.6353493  13.2762408
   9.2081237  24.6146369  14.0645659  24.4612193  66.1411427  60.9106541
  23.7188673  65.6930368  61.3160515  24.1502166  67.0342611  60.7628441
  22.2346115   8.6700684   6.4098841  21.5335226   8.2188499   6.8801057
  22.6601481   7.9827720   5.8972692  58.6707810   5.1483709  54.8727894
  58.1262449   5.7127100  54.3239450  59.0091328   4.4843763  54.2720747
  72.1680228  15.6545103  27.0772076  72.8407732  15.5354083  27.7476215
  71.8164013  16.5291250  27.2434664  73.5708836  36.1789131  48.6110973
  74.1205458  36.9549727  48.7198830  72.8263519  36.4835453  48.0923462
  44.0862709  63.1928574   9.1804248  43.3705908  63.8257931   9.2389733
  44.2987543  63.1571733   8.2477891  61.2164676  41.2224268  46.6878366
  61.5568948  41.9074915  47.2631884  61.6252255  41.3966797  45.8400249
  69.5634766   0.8669690  15.8419382  69.5976992   1.1426166  14.9259245
  70.0798185   0.0614336  15.8691084   0.4889894  23.0911424  11.9980728
   1.3479829  22.7915039  12.2956908  -0.0647950  23.0426754  12.7773058
  12.8641796  31.5453315  41.5400648  12.8569734  30.5886483  41.5094042
  13.6779511  31.7929125  41.1010742  59.8059052  54.1541790  27.3851967
  59.4243687  53.8601779  26.5580153  60.5992150  53.6276673  27.4835753
  22.1966410  51.7749357  21.1300540  21.9581985  51.7161274  22.0552111
  21.5394092  51.2448645  20.6791615  30.6555629   3.4479323  59.5710373
  30.7137966   3.5185000  60.5238581  31.3970160   3.9594248  59.2472267
   8.8752393  62.8776862   4.9871838   8.5104505  62.7633120   4.1096413
   9.2577795  62.0265390   5.2003538  35.7134543  65.9127428   9.7869837
  36.3415358  65.1906611   9.7684967  35.8719430  66.3889648   8.9719212
   1.8326344  34.1108036  49.0595102   1.4067140  34.9081373  49.3742895
   2.1105346  33.6574912  49.8554420  29.8546362  25.4282665  23.5523343
  29.0152526  25.1174569  23.8915467  30.2772832  25.8444095  24.3036175
   7.5030398  36.8583322  42.0270157   8.0800205  36.4268851  41.3967943
   7.8141290  37.7630997  42.0561981   4.7908795   6.6916114  20.3263450
   4.2380375   6.0552144  20.7797694   5.5551577   6.7922223  20.8937836
  75.7734799  59.9030243  27.5975728  76.4060259  59.8813246  28.3156586
  75.4699778  60.8105026  27.5730777  21.8051863  36.3990664  50.4560518
  22.4624944  35.8412814  50.0400543  21.0095978  36.2545776  49.9438095
  32.8654647  17.8834915  54.6398640  33.5591173  18.5395598  54.5716333
  33.2628822  17.1650350  55.1319122  73.1641070   2.9567605  53.5482836
  72.7845583   3.4972104  54.2411661  73.8513926   2.4543130  53.9857960
   1.5174989  61.4486458   0.4142344   1.8856172  61.0641338  -0.3812969
   1.8255214  62.3549010   0.4069245  44.3148041   5.3965521   8.6039847
  44.1220474   5.2103496   7.6850700  44.5685291   4.5500410   8.9717835
  75.9472335  38.4377074  56.0066557  75.6404421  38.6334586  55.1213360
  76.7735452  37.9724407  55.8763981  65.1370338  22.5535083  60.3987455
  64.9176911  22.9850674  59.5729876  65.3444318  21.6526318  60.1504755
  45.8915190  43.4125223   8.6414587  46.2842146  43.1698610   7.8029263
  46.5538720  43.1802346   9.2922747  45.1035881  25.3165102  48.9003372
  45.1690531  25.4824257  49.8407698  46.0115051  25.2864480  48.5986567
  19.1683599  70.1316656  59.0296793  19.5963546  69.2797361  59.1149282
  19.7542878  70.7401784  59.4798231   7.9429853   6.7005134  49.8522520
   8.8769507   6.5380520  49.9847126   7.7068752   6.1472464  49.1076851
   4.5271686   7.9193115  42.7313137   4.5332459   7.8247875  43.6838198
   5.2630240   7.3848134  42.4328852  52.3233235  57.8306459  23.4682298
  53.1946330  58.1475233  23.2302380  52.2934933  57.9055236  24.4220304
   5.5517644  25.9748673  34.6860552   5.0219661  26.6574740  34.2742372
   5.7026213  25.3358722  33.9895225  15.9215093  11.8370104  44.1701937
  16.1471081  12.2523475  45.0025558  16.3533652  10.9834218  44.2036390
  18.5090208  17.9151022  39.5480084  17.5824797  17.8300345  39.3232489
  18.6641884  17.2226989  40.1904488   0.4031657  34.9786544  24.0762973
   1.0000689  35.4759240  24.6354580  -0.4696965  35.2737975  24.3355918
  21.4554405  21.3824272  53.3107519  21.1458111  22.0773268  52.7298260
  20.8916759  20.6349111  53.1117105   7.5097889   7.7645320  42.9200315
   7.8822809   8.5729909  43.2719898   7.2126627   7.2820097  43.6914682
  37.3403998  37.3374914  16.4391100  36.8585607  38.0630516  16.0420883
  36.7198487  36.6086935  16.4377999  54.3439433  62.4866246  15.9317386
  55.2574867  62.2056435  15.8795905  54.0986451  62.6732157  15.0255132
  51.5867142  16.0630774  47.1652222  51.7082147  16.4564455  48.0293560
  52.1818117  16.5495825  46.5947771   4.3630061  36.9646406  31.1307812
   4.1543967  36.3300896  31.8163896   4.6315339  36.4301991  30.3834534
  12.9134631  40.4531574  60.0662088  12.3478329  41.2072849  59.9001026
  12.5137293  40.0147867  60.8173895  67.2065464  20.9712148  50.1935673
  66.3441423  20.5632234  50.2712536  67.4273173  20.8898115  49.2657423
  56.8593363  29.2378354  51.9416857  56.2078241  28.6193156  52.2721386
  56.4136771  29.6978927  51.2303686  66.2302852  70.7611163  11.7050266
  66.2694776  70.0754060  11.0383201  65.7392514  70.3666131  12.4257803
  30.3309215  41.6978796   1.9291460  29.4724480  41.5796040   1.5226137
  30.2822936  41.1949306   2.7421105  74.2783284  65.2224349  44.7546911
  73.7934780  64.7429817  45.4264641  73.6701035  65.2836375  44.0181112
  77.7179719  34.6932507  61.0219431  78.3741379  35.2330112  61.4627790
  77.3298045  35.2745128  60.3679609  49.8794755  54.3443869  22.1835899
  49.8410284  55.2606879  21.9094586  49.3345204  53.8810323  21.5475416
   5.0603884  63.0633926  63.6927366   5.1268572  62.7684307  62.7845430
   5.4904348  62.3750830  64.2001963  76.1997215  30.0565720  44.9389887
  76.5213747  29.7294641  45.7790899  75.4271717  30.5750966  45.1637745
   1.7164199  17.9199517  24.3863845   1.0362817  18.5922849  24.4265223
   2.3856410  18.2192051  25.0018692  36.7184210   9.9669105  47.1751356
  36.2712884  10.4915476  46.5110111  37.5419569  10.4291904  47.3310709
   5.3213450  63.8007723  59.3561649   5.2072855  63.3827399  58.5026598
   4.4557520  63.7560760  59.7623444  10.4343760  19.3236482  25.9325767
  11.1294961  19.9386799  26.1666155  10.6442821  18.5277331  26.4211345
  22.9751706   9.0338647  31.4759994  23.2764816   8.4268123  32.1519661
  22.1832895   9.4270039  31.8428755  16.9430089  35.8562851  21.5761018
  16.2542510  35.9193182  20.9143829  16.8764508  36.6736937  22.0697069
  16.1108867  69.6342565   7.7498352  17.0218728  69.4825222   7.4982130
  15.9869889  70.5774428   7.6436245  20.2463937   6.7878282   7.2708243
  20.1469970   6.1041373   6.6083145  19.3930960   7.2206837   7.2981989
  68.1992952  14.2968202  52.1220160  68.6769811  14.8529828  51.5066051
  67.5118474  13.8907933  51.5940094  77.9530852  18.6152315  63.7013388
  77.2944859  19.0017033  64.2785025  78.5021458  18.0892754  64.2828321
   7.8015161  18.1780815  40.9718275   7.1555322  17.5619721  40.6263590
   7.2827870  18.8290596  41.4444542  15.1199122  71.4729743  20.4716301
  15.6097909  72.1026917  21.0005021  14.6386500  72.0111369  19.8431396
  31.9469452   5.9618652  30.1752400  31.3389897   5.8874524  29.4396544
  32.5722241   6.6332167  29.9022102  69.5512084  29.6111822  40.2304792
  68.9703087  29.5166898  40.9853649  68.9667169  29.5799875  39.4730949
  75.3420965   4.4235107  61.4322662  75.4370079   3.7112805  60.7998514
  75.3675411   5.2198470  60.9017658   8.8468421  19.7677457   9.0925932
   9.3490261  19.1572773   8.5528058   8.3913702  20.3259063   8.4623277
  15.1377881  29.7194433  18.4270823  14.7915459  30.5807900  18.1937742
  15.8732605  29.9069023  19.0103245  16.9046688  32.0250821  24.6521139
  16.8169940  31.0759473  24.5644546  17.7676618  32.1504641  25.0467706
  43.6239544  48.6352016   2.4850428  42.8946701  49.0631928   2.0364868
  44.2232136  49.3490757   2.7029955  27.4365377  74.0718157  17.5144506
  27.6751614  73.1509666  17.4080157  27.1145058  74.1333895  18.4137475
   4.1112876  32.4623561   6.6862416   3.2434779  32.6716447   6.3407916
   4.3109375  31.5986729   6.3250989  62.2798741  68.5336195  27.1697950
  61.6514808  68.1714355  26.5451550  62.9121137  69.0051173  26.6273975
   2.1818520  39.8704886  61.8645954   2.5288066  40.6373596  62.3204041
   2.4986947  39.1250324  62.3746347  11.8627977  14.0653706  53.5676718
  11.4513540  14.2937624  52.7341318  12.3945749  13.2946610  53.3690453
  70.2468041  30.6514144  33.6694598  69.6597645  31.3325572  33.3413410
  70.7304940  31.0736775  34.3793702  12.8556609  19.7847104  12.9427052
  12.8520954  19.8936319  13.8936806  11.9303405  19.7882235  12.6977539
   3.6635500  26.4901114  15.0651801   3.3009622  25.6196094  15.2294528
   4.6067184  26.3840556  15.1893461  58.2037210  16.2745559  46.1367750
  58.4380770  17.1806681  45.9361029  58.8373661  15.7494009  45.6479645
   3.5433826  73.1593657  35.8822966   4.0733007  73.3784389  35.1158595
   4.1760769  73.0799818  36.5961790  68.0265963  63.2959603  60.0345469
  67.5646138  64.1085444  60.2407312  68.0365467  62.8102170  60.8592844
  28.7439203   0.8644546  56.2938261  28.2996273   1.6727875  56.5496254
  28.0364561   0.2325726  56.1655569  55.9594154  57.5612627  12.4526227
  55.5850854  56.8643783  11.9136798  56.4804989  58.0826055  11.8419623
  23.7175012  33.5364318  25.2776766  23.0123949  33.0167270  24.8917174
  24.4023085  33.5450935  24.6089506  69.9810795  25.6878853   3.2643163
  70.0833885  25.8963513   2.3357117  69.3283365  26.3129783   3.5796177
   8.6278296  24.3863893  24.0618038   8.1744784  23.9230633  23.3575058
   9.5203358  24.0411568  24.0399337   2.9911208  42.7408409   8.4343112
   3.0194318  43.4130716   7.7534771   3.6932877  42.1336794   8.2007545
  14.1553962  14.6159005  46.8902493  14.7037625  14.9195313  46.1668301
  14.4005036  13.6981046  47.0077419   3.6517251  17.7335775  49.2563200
   3.6680967  17.3655057  50.1397705   3.2161656  17.0657635  48.7266541
   5.9136540  20.1492190  34.2805839   6.2082297  19.4644439  34.8810339
   5.4776597  19.6754098  33.5723138  23.2591462  40.5542994  12.9945314
  23.6373138  39.9925232  13.6710131  24.0132117  40.8716393  12.4976265
  12.8579378   3.8571739  33.5317349  13.4075582   3.3033410  32.9772830
  12.1537542   3.2788619  33.8248467  73.3027432  21.6450953  15.3999722
  73.0489532  22.3190093  14.7693658  72.8666947  20.8511496  15.0905466
  79.1346778  24.7442484  47.1838665  79.5013581  25.0252795  46.3455391
  78.2320049  24.4992733  46.9803953  27.3705864   2.9997066  31.6420460
  26.9782782   2.6323843  32.4341321  27.4196839   3.9402220  31.8130803
  30.1927567   6.3252056  20.1060724  30.7564306   6.3625193  20.8788013
  30.0717735   7.2405034  19.8534358  73.2054589  37.0756674  57.2146511
  74.0061048  37.5063968  56.9152021  72.5398890  37.7631402  57.1895695
  13.1337905  22.7597380  34.4663858  13.4609413  23.6490870  34.3312383
  12.6669836  22.5507212  33.6572909  18.8904115  73.8731133  37.3610926
  18.9858600  72.9909842  37.7202153  18.2812520  73.7694827  36.6300559
  74.7272324  70.9160815  36.7424560  75.5521345  71.3994773  36.7882276
  74.0729332  71.5791886  36.5224218  13.4975851  15.2423513  35.1943898
  12.6256418  15.1662922  35.5818963  14.0893459  14.9089909  35.8688688
  76.3361482  39.3505478  10.8821499  76.3447357  38.9663100  10.0054979
  76.0962642  38.6254406  11.4591324  28.2716687   3.8318756   7.8023350
  28.9624007   4.4937828   7.8338778  28.4880765   3.2960394   7.0392620
  16.3925028  29.9527001  33.8923550  16.1354184  29.6103168  34.7484565
  16.9872904  30.6755400  34.0922594  74.0326301  19.1116691  22.9075122
  73.9871708  19.9152887  22.3894763  73.5118363  19.3001759  23.6881971
  54.8191835  74.0354522  53.7330294  54.3877289  74.8339078  54.0372419
  54.2104289  73.3326854  53.9605570  15.0190079   9.2839986  50.2146435
  14.6155572   9.3612248  51.0792208  14.3482137   8.8673306  49.6736670
  23.1445813  55.4601669  64.3591261  22.5712538  54.7853041  63.9956903
  23.6612940  55.7630205  63.6124516  23.7345457  21.7309833  39.7957420
  23.2117701  21.0697722  40.2493191  23.2904553  22.5578189  39.9837828
  11.2113750   8.6027181  -0.3489244  10.7205462   7.9357928   0.1312104
  11.9315541   8.8376927   0.2361919   7.8284574  47.2080231  41.3407803
   7.1642095  47.6986551  41.8248129   8.6142617  47.7519894  41.3941240
  21.4154346  22.1651222  30.3808045  20.7753531  21.8698360  29.7332454
  21.1266247  21.7668868  31.2019157   0.4355541  60.7137632  43.5500956
   0.3316021  59.8170471  43.8684130   1.2314215  60.6886005  43.0188751
  71.3059596  39.7166488  37.7761805  71.7002133  38.8489861  37.6869833
  71.6067771  40.1968731  37.0047343  24.2846044   3.0377129   3.0575478
  24.7706373   2.5787643   3.7426531  24.6912129   3.9031723   3.0142224
  57.9596102  20.0624726  44.0238393  58.4983605  20.8452056  44.1392148
  57.5321352  20.1886676  43.1767428   6.8534112  50.8278551  16.3253557
   5.8989835  50.8466663  16.3956225   7.0297074  50.1989092  15.6256544
  30.6988645  18.8612413  41.4464188  30.2249837  19.2344236  40.7031822
  30.2468681  18.0375862  41.6295099   1.1580137  63.7942817   5.5645954
   1.4425401  62.9985907   6.0142052   1.1453489  63.5543277   4.6380436
  67.6843814  26.4131093  31.8701458  68.0123440  25.9138465  31.1222100
  67.9584125  27.3135185  31.6957903  68.9769331  41.7910051  36.7582536
  68.8609806  41.2252522  37.5216055  68.2637457  41.5466070  36.1684537
  72.7492320  66.5006791  25.2515817  73.4745693  66.3037197  24.6588564
  72.9019737  65.9394388  26.0117865  10.4767486  74.3402063  60.5056953
   9.9618479  73.8973364  59.8311758  11.3810535  74.2734955  60.1990747
  63.5729221  28.6172152  63.5799885  63.2958428  27.7015209  63.5489559
  63.9481584  28.7833476  62.7152157  56.9877154  66.2313800  15.2863121
  56.0680574  66.1437844  15.5368865  56.9816288  66.8680923  14.5716155
   1.4270397   8.6433059  46.3716745   0.7058264   8.0218142  46.4708281
   1.2311518   9.3395412  46.9986677  74.8628125  38.5839558  41.2395048
  75.2381772  39.2895126  41.7663050  74.4890765  39.0267277  40.4775953
  22.4569178   2.7187258  46.3904238  23.1039214   2.1383217  45.9894896
  22.4152637   3.4731978  45.8028269   0.1202358  37.5582194  16.2499070
   0.6424639  36.8522525  15.8689582   0.7639853  38.2120180  16.5226102
   3.2236755  50.0626421  47.7647209   3.1805217  50.8291769  47.1930599
   3.5942224  49.3733549  47.2135305  22.5630713  26.9058132  34.0927505
  23.1747150  26.3949442  34.6229744  21.7179680  26.7948341  34.5283127
  77.7213903  58.5106846  63.1648641  77.5119110  57.7670428  63.7299709
  77.3688074  59.2704245  63.6282353  60.9852351  23.5771016   1.3893807
  61.1981137  22.7910450   1.8924010  60.0812878  23.4419945   1.1050284
   1.9810373  53.1915426  29.5653677   1.8589829  53.4695053  28.6575842
   1.2515965  53.5918331  30.0385618  45.0519740  70.5498304  35.5681348
  45.2306229  69.7824533  36.1116862  44.2632365  70.3177656  35.0779605
  28.1833029  17.3091269  34.9041128  28.6545730  16.6662610  34.3741512
  28.3983302  18.1522465  34.5051861  13.4379169  73.8821323  28.8179922
  13.7420722  73.0633377  28.4264612  14.0663549  74.5389445  28.5181665
  28.3411074   9.4103932   8.7385732  27.4235249   9.2122841   8.5514146
  28.6802793   8.6128360   9.1448939  28.0386114  29.5141292  28.7015080
  28.2546306  28.7453866  28.1736803  28.7224174  30.1496863  28.4900665
   6.4965141  30.1767087  63.9194727   7.1412760  29.7524953  64.4856548
   5.7486099  30.3453016  64.4925785  44.2609644  10.8633649  37.7488828
  44.4003534  10.0241315  38.1876206  44.9399757  11.4359021  38.1057811
  22.3067021  27.7744174  40.1416683  22.1691585  27.6932859  41.0854530
  23.2510066  27.8992176  40.0470972  77.6802280  56.4179945  27.1320987
  78.1224030  56.9231510  27.8143978  76.8245486  56.2079239  27.5061512
   8.8994110  30.6306481  61.3860130   8.1880760  31.2659264  61.3044262
   8.5981023  29.8688078  60.8909941  30.7566524  11.0287976  39.6626425
  31.7058420  11.0973775  39.7654366  30.4305911  11.9075370  39.8568916
  74.6840263  23.2007408  45.6994581  75.1664130  23.9233971  45.2978325
  75.2729831  22.4497294  45.6263638  17.4545634  19.2070150  42.0801353
  16.8219090  19.5844483  41.4689684  17.3907232  18.2625687  41.9380856
  22.2467637  33.4537768  35.2671862  22.0885754  32.5327086  35.0602055
  23.1994581  33.5259700  35.3254509  29.7531915  46.1928606  22.5481105
  29.9452734  45.4957581  23.1753159  28.8506508  46.0276794  22.2754025
  29.7906041  15.3378427  44.5945930  29.3693852  14.8481631  45.3010082
  29.0773797  15.8259177  44.1831017   4.5335988  62.1661069   5.6583416
   5.0862483  61.4277508   5.9145462   3.6549548  61.9190242   5.9467184
   7.2073823   8.2704192  33.9026260   7.3978633   7.8184730  33.0806208
   7.2558057   7.5853652  34.5694017  15.5625224  29.5365882  60.8541536
  14.9937236  29.5494127  60.0843906  16.4404798  29.3930721  60.5008459
  54.5645980  21.0629010  14.4024301  53.7936667  21.6271806  14.4614768
  54.8095826  21.0881042  13.4774542  24.4966259  71.0056855   4.6474468
  24.2395643  71.8930342   4.3969166  25.3177232  71.1202695   5.1258814
  55.5232808  71.9699557  10.0595629  56.4724356  72.0734538  10.1275730
  55.3898924  71.0247584   9.9885607  75.1599438  20.1207900  62.7310991
  75.3061692  19.2487276  62.3645544  74.2929009  20.3720903  62.4128008
  35.2199302  51.8310322   8.5586321  35.1243130  50.9494163   8.1982958
  36.0467193  52.1494784   8.1963598   6.6347325  60.8665323  15.4865050
   7.2506315  60.4267406  16.0725808   6.5002191  61.7274380  15.8827090
  70.7466113  53.0797027  36.1116052  70.9388304  53.8694857  35.6061077
  71.0245466  52.3595260  35.5456305  38.9008764  42.2708707   2.9274094
  38.4648005  41.4834877   2.6016819  39.5445231  41.9452669   3.5566389
  53.1562658  55.8141073  54.5872832  54.0409180  56.1489126  54.4405449
  52.5886460  56.5748009  54.4632495  62.8363696  44.9992514  48.4197664
  63.1017212  45.9019518  48.2438135  62.4032573  45.0388002  49.2724562
  27.4116254  24.3389225  36.6964293  26.8382168  23.7949085  36.1565375
  26.8966269  24.5237231  37.4818301  10.0870216  36.5986586  53.4932041
  10.3553712  36.4357209  52.5889492   9.2861688  37.1171665  53.4156466
  22.1478891  23.4010291  13.9876425  22.6366949  24.1076612  14.4095147
  21.4749885  23.1615996  14.6249092   6.8382029  69.6331455   5.9631073
   7.3198310  69.8563578   6.7596256   6.0059813  69.2798783   6.2774908
  29.7536898  22.8143549  55.6802130  29.6949291  22.8475237  54.7253942
  29.2048478  22.0703936  55.9282541  26.5075564   8.9314693  38.3138442
  26.9229078   8.1431347  38.6634779  25.5939722   8.8640523  38.5914230
  73.8245735  17.7067852  46.0222769  73.1663869  17.2208989  45.5253506
  74.6176169  17.1752715  45.9529448   3.2377023  32.5655603  47.5049877
   3.4332758  33.2240677  46.8383932   2.8849095  33.0665731  48.2403469
  21.8649626  32.3307300  30.2972388  22.3082685  32.3615384  29.4494390
  22.5440407  32.5615358  30.9311271  67.6677207  49.0663004  46.0560226
  67.1847359  48.9707994  45.2351427  67.0618991  48.7540007  46.7280912
   1.3185620  40.9420395  51.5216160   1.9067927  41.3669062  52.1458817
   0.4483524  41.0390091  51.9083548  34.1639769  63.8081013  40.2499771
  35.0142848  63.3692657  40.2751064  34.3679178  64.7119390  40.0097322
  26.0440564  51.8220997  62.1327400  25.1864839  51.6257715  62.5099039
  26.6107392  51.1173773  62.4465322  67.2529427  42.2328615  61.8004894
  67.9923323  42.7905369  62.0424271  67.6322070  41.3588333  61.7084837
  11.2704051   2.3032670  34.8903251  11.0656881   1.5578040  34.3258715
  10.4400003   2.5165716  35.3159547  22.3344088   6.5791667  51.3071489
  22.6298308   6.3378280  50.4292488  21.9044733   5.7914549  51.6401672
  22.6912427  10.8194697  49.1391420  22.9623318   9.9044412  49.2130804
  22.8346610  11.0381055  48.2183456  26.6436100  55.2248582  64.4832484
  27.5539526  55.3779277  64.2301113  26.1817705  55.1021823  63.6538591
  17.4363015  47.6940240  -0.1623619  16.8185023  47.3709573   0.4935229
  18.2942841  47.4188568   0.1607191  68.7664449  31.5936206  59.9865109
  69.1651952  31.1111138  59.2623437  68.6908269  32.4914096  59.6632698
  24.0940213   5.0115454  22.1601081  24.2186689   4.2271888  21.6258073
  23.1554723   5.0270307  22.3475075  17.0975029   9.3744338  56.4975691
  17.2583759   8.4536254  56.2914991  17.8411174   9.8392051  56.1138248
  11.4890742  17.6225626  18.5014391  10.9189272  18.3499992  18.7504387
  11.2327206  16.9072318  19.0835190  20.9288859  12.9722500  52.1715164
  20.7589102  12.5911295  51.3100719  21.1276865  12.2212303  52.7306938
  16.1682264  73.0752017   0.1036703  16.3655690  73.2649090   1.0208952
  16.3552431  73.8938119  -0.3558290  58.1234860   9.5086406  49.0314698
  57.7031746  10.1048873  49.6511960  57.6388052   8.6882184  49.1221500
  28.1551719  27.0204043  27.3321557  27.8046393  26.2293029  27.7414441
  29.0256786  26.7660666  27.0259500  22.0098352  26.5209985  18.8939393
  21.8582153  25.6270623  19.2007339  21.2357259  26.7292356  18.3708501
  19.4659555  27.2296166  18.3208156  18.8381577  27.0143223  19.0105629
  18.9940441  27.0590854  17.5056767  33.1172132  23.5309577  50.7931089
  33.1726146  24.4854093  50.7463598  33.4799457  23.3117390  51.6513634
  31.0922404  73.4275919  39.5153880  30.2411529  73.0374548  39.7145700
  30.8914491  74.1486319  38.9187169  32.5822878  39.4725943  11.1299717
  32.3931217  40.3555918  11.4473951  33.5379028  39.4304061  11.0945642
   6.1257267  23.1765485  10.0847411   7.0705438  23.3220482  10.0359273
   5.7621831  23.7295723   9.3931973  15.2827791  34.5948588   9.9472821
  15.1889113  33.8626598   9.3379318  15.3464595  35.3672848   9.3855536
  34.0926409  50.1004410  33.5620499  34.2887068  49.2365599  33.1994200
  34.0538549  49.9599123  34.5080829   1.7522654  26.1485529  59.6539688
   2.0543656  25.4947901  59.0234470   1.6142219  25.6554627  60.4626989
  35.5316234  26.4474654   6.4869803  34.8639894  26.7497182   7.1027243
  36.3248539  26.9175339   6.7439812  68.4494022  32.5591612  33.1562471
  68.0261818  32.6504827  34.0099311  68.1153945  33.2951236  32.6433778
  49.8538279  72.2304605  29.1476178  49.1384512  72.6377991  28.6592078
  49.4206896  71.7644213  29.8627591  74.1055069  47.0805407  44.5939493
  74.5581979  46.2799168  44.3287992  73.2039360  46.9551945  44.2978239
  25.4150418  36.3620222   5.4390776  25.0162207  36.0601926   6.2552130
  25.4510713  35.5809649   4.8869145  46.5567044  26.6755762  10.6269419
  46.3893942  27.6071264  10.4839289  46.1550025  26.4875462  11.4751827
  71.6568831  58.1308557  13.6638939  72.4330548  57.6983692  13.3078730
  71.3579396  58.7049438  12.9587090  43.8985936  47.0791252  -0.0796068
  43.8254003  46.6147508   0.7541954  43.2038478  47.7368762  -0.0492275
   0.8900000  45.8081198  34.2586660   1.5062071  45.4249287  33.6344171
   0.2577087  45.1102448  34.4301629  20.5611491   8.1171215  48.7686443
  21.0973024   8.5208023  48.0861378  20.2644706   7.2924638  48.3837366
  30.2267518  52.0223221  61.6615257  30.2895724  52.4606403  60.8129013
  30.3583865  52.7210816  62.3023373  36.3868646  55.1855721   0.0704062
  36.1460117  55.7015504   0.8398115  37.0747463  55.6972172  -0.3553522
  17.7672243  36.3217807  28.3006120  17.3794830  36.0969305  29.1463852
  18.6095190  36.7193174  28.5213780  50.0527855   9.8582002  50.4908478
  50.6210991   9.6535226  51.2333811  49.8789307   9.0105864  50.0815130
  27.3505402  24.3602014  24.5264935  26.6705465  24.6570182  25.1312566
  26.9066596  23.7322712  23.9564896   0.6742243  16.9878733  47.1273327
   1.1122596  16.3864827  47.7295685   1.0551759  16.7898560  46.2718248
  67.3214642  31.9426632  27.7720904  67.2842733  31.9691420  26.8159795
  66.4151374  32.0736194  28.0507565  66.4261547  19.5307362  29.3167734
  65.9679011  19.2247581  28.5340786  65.9538428  19.1261101  30.0443935
  28.1578541  44.3726683  20.0872350  28.8943648  44.7258139  19.5881617
  28.1692457  43.4341621  19.8993325  18.6327827   2.5743142  56.7887020
  19.1675019   2.6951575  56.0040331  18.4313107   3.4634089  57.0805120
  74.2104506  68.3605991  27.5183201  74.4981217  69.2730485  27.4881124
  73.5190916  68.3054666  26.8586135  26.0406896  59.3791209  54.0332747
  25.7650825  59.2571806  53.1247568  25.2234098  59.3960999  54.5312691
  10.7248151   3.5306937  52.3814535  10.9711802   3.4497076  53.3028555
  10.5524611   2.6322669  52.0997524  45.6014780  56.9858148  17.0534479
  44.8873297  57.5264599  16.7159140  46.1870257  56.8682267  16.3054240
  79.0334535  56.6873287  47.7064228  79.2362952  55.7838784  47.4638033
  78.1127024  56.7980228  47.4693680   4.5840502  44.7386456  27.8367686
   4.8038891  45.6631947  27.7222419   3.6412039  44.7353172  28.0018806
  15.9616220  31.7806149  28.7770200  16.4653993  31.2108731  28.1957841
  15.7982028  32.5680661  28.2579374   3.9043990   9.1829652   7.1825099
   4.3723166   9.3651175   7.9974365   4.4507983   9.5730913   6.5002483
  16.9690847  28.2584357  30.0698900  17.1488869  27.5365806  29.4675350
  16.0203516  28.2354641  30.1948285  50.7126333  11.2807206  11.4570725
  51.6585322  11.1763218  11.5600645  50.3369130  10.8004597  12.1949160
  51.4908968  66.7632698  33.0676460  51.3404399  66.7526458  34.0128875
  51.3830234  67.6810907  32.8182483   5.8814490  13.7021351  27.8448701
   6.5693122  14.3243754  27.6084518   6.3462520  12.8809512  28.0056357
  39.5716166  10.7175958  62.0382071  38.9876413  10.1428568  62.5330591
  39.2547774  11.6009033  62.2269201  23.4202790  11.8091810  36.2940741
  23.7973428  12.0704186  35.4539490  22.5147104  11.5771043  36.0883617
  18.0114786  57.7109863  14.6972286  17.7007452  57.3115875  15.5097258
  17.6500807  58.5972073  14.7124874  10.4097307  47.6151943  28.3311915
  10.1270974  46.7741776  28.6904168  10.8384526  47.3909426  27.5052738
  62.9960692  63.1384049  40.0363922  63.8021755  62.7677272  40.3955889
  63.2745147  63.5908400  39.2401481  76.7717691  32.1322608  34.0642023
  76.0691658  32.0230436  33.4233809  76.9069577  31.2552929  34.4232059
  28.6973667  34.5317960  30.5280089  28.2864881  33.6681461  30.4890347
  29.6371937  34.3507099  30.5152011  52.1126632  45.1128920  13.8474142
  51.7972568  45.0713368  12.9446280  51.4758686  44.6022155  14.3473446
  28.9415193  24.2813635  45.0847530  28.2881856  23.5874295  45.1733017
  29.6646333  23.8704753  44.6109295   5.9618187  17.8526211  27.8004050
   6.7883265  18.3184612  27.6734853   6.0308737  17.4771082  28.6781621
  68.2297865  61.3357544  29.4546700  68.5155956  61.4026737  28.5435915
  68.4142784  62.1978378  29.8275042  34.1176462  30.3989458  29.0810132
  34.2820287  31.0051560  29.8033142  33.3128667  29.9437785  29.3287778
  11.5205956  47.7537680  25.4688454  10.5802810  47.5780869  25.4345441
  11.5830696  48.7021255  25.5826378  28.4226322  32.6256013  23.3242130
  28.7915397  31.8827915  22.8463292  28.1478143  33.2372236  22.6411128
  42.4574915  37.6988016  10.9369719  42.1313290  38.4662840  11.4068854
  42.8330473  38.0531755  10.1309883  21.5434933  12.2017646  12.4191320
  21.1934638  13.0041921  12.0320642  22.3647261  12.0488477  11.9517732
  70.8281922  66.0870795  63.8161802  71.6147232  65.5739604  64.0014124
  71.0385430  66.9680689  64.1257668   7.2573572   0.4903608  24.1854906
   7.1247864  -0.0105869  23.3806872   6.5670425   1.1533078  24.1714191
  26.6220260   2.6689067  38.1419587  25.8691049   2.1035007  37.9697442
  27.3776388   2.0834388  38.0918574  30.5280428  49.4392249  62.6816479
  29.8157795  49.2275282  63.2850529  30.3078174  50.3084442  62.3467009
  20.4649758  14.1466999  34.8932886  20.8524227  14.2894351  35.7568550
  19.9372792  14.9294960  34.7351789  76.9727386  26.8449831  28.8406444
  76.1631031  27.3424840  28.7256908  77.1651942  26.4962482  27.9702544
  63.2048762  51.8539880  44.6530962  62.2819412  52.0210146  44.8442173
  63.4584319  51.1714576  45.2744627  58.7302593  56.6697218   8.7307656
  59.1331581  56.6059174   9.5966923  58.0392055  57.3236801   8.8357270
  44.2306775  69.2622487  32.0295167  45.1828170  69.2222546  32.1193099
  43.9536911  69.8928382  32.6942468   5.7768935  38.5703468  40.0248909
   5.3759283  38.1150222  40.7652521   6.6438925  38.8244677  40.3410625
   3.7425420  51.6695690  31.4225411   3.5224763  50.9094858  30.8839536
   3.0602950  52.3104715  31.2225008  15.8156085  55.4066277  12.8547263
  15.0263548  55.7058382  12.4032998  16.3176990  56.2057734  13.0144310
  28.4387255  32.1773434   9.5112562  28.7584448  32.7506328  10.2079260
  27.5933909  31.8612695   9.8302180   9.0370512  39.0832949  60.9017754
   8.3008462  39.0491772  60.2909803   8.7926990  39.7592831  61.5338850
  55.8315114  38.1937051  31.4204931  56.0676268  37.7610683  32.2410464
  56.2496070  39.0531087  31.4739084  14.4002366  38.7748981  35.5839562
  14.2240858  38.1740665  34.8599362  13.5385942  38.9574099  35.9587812
  33.1856441  28.7947178   5.8903432  32.5871801  28.0990815   6.1626679
  33.4386754  28.5573602   4.9982291  13.6560599   4.0324785  48.9660931
  14.3042950   4.7008563  49.1881180  13.2545701   4.3478252  48.1564045
  17.7382469  38.8375688  12.3851013  16.9434333  39.3709517  12.3833251
  18.2505584  39.1687012  11.6474557   8.5299224  13.9172637  44.4264984
   7.9406828  13.3816946  43.8952780   7.9470658  14.4489110  44.9685860
   2.1960720  28.8334513  44.9423218   1.3237679  28.7654757  45.3305149
   2.7939630  28.7975669  45.6889582  49.3185476   0.1523258   6.3172591
  49.5047025  -0.5004548   6.9921368  48.4120110   0.4130842   6.4798248
  60.6769172  55.3608799  18.1759930  60.2506570  54.5389366  17.9332185
  60.7247905  55.8564472  17.3584628  20.4116940  64.6740294  35.4425454
  20.2200365  63.7650490  35.6733084  19.9991095  64.7961712  34.5875096
   0.5170745   3.2559434  27.6272964   0.1854990   2.4535395  27.2242594
  -0.1277178   3.9244157  27.3957372  28.9397550  54.7838545  17.3393106
  29.6713281  54.9604225  17.9307973  28.4101367  54.1336823  17.8008461
  13.1120324  29.0419769  41.5018511  14.0052962  28.7840533  41.2742853
  12.5888908  28.2554245  41.3472891  68.8021342  31.9910932  12.9080904
  68.5338811  32.9091144  12.9469824  69.0493528  31.7755032  13.8073313
  70.1297378  74.0401226  55.7338381  70.0757956  74.5175594  56.5617085
  71.0232913  73.6975649  55.7126856  19.9366200  60.9688807  51.7744017
  20.7864571  60.9136009  52.2113848  20.0802064  61.5744162  51.0471153
  72.0290303  49.6323489  31.4654517  71.4897847  49.5600699  32.2529936
  72.4335813  50.4973959  31.5307379  54.9531297   5.0128128  25.8944130
  54.5672063   4.2561056  26.3356471  55.7637123   4.6785022  25.5104566
  23.9981532  24.5186710  35.1009822  24.5444036  23.7346935  35.1577258
  23.1014729  24.1915393  35.1729846  18.0029082  22.8420758  33.4485245
  18.2100797  23.3147883  32.6423883  17.2073150  22.3519540  33.2410550
  37.4802661  65.2836752  27.5441432  37.1142244  65.1267958  26.6737223
  37.2701454  66.1986446  27.7309871  24.6251917  40.5834198  32.2188473
  25.3766012  40.5908775  32.8117728  24.5338845  41.4934444  31.9364524
  48.7887307   1.2310246   2.8732931  49.4234274   1.5349844   2.2244465
  47.9640596   1.6406420   2.6118338   4.5022729  26.8727565  38.1051135
   3.7061700  27.3416305  38.3553314   5.2160305  27.4353600  38.4055448
  27.4091768  27.3646736  24.7141361  26.5141344  27.1552777  24.4471478
  27.4480891  27.1157718  25.6375885  17.4928963   9.8451751  24.1343904
  16.6350925   9.8303795  23.7099075  17.6421261   8.9390826  24.4044995
  24.3023920  37.7542615  33.7793517  23.3872867  37.9360723  33.9932609
  24.7084069  38.6183167  33.7101150  19.8856676  20.5309200  48.6383295
  20.7247639  20.7924771  48.2592010  19.2299557  20.9490824  48.0802822
   2.3251678  17.1830440  28.6910558   2.6536384  17.5358129  27.8640771
   2.6331842  16.2768495  28.7040639  25.0756931  71.6835572  11.7517578
  24.2268732  72.0287826  11.4750731  24.9319498  70.7419660  11.8464911
  62.9262952  66.4933252  23.4618950  62.1798865  67.0920086  23.4356809
  63.6089960  66.9816875  23.9219546   3.5514984  27.0807958  43.3228683
   3.5222042  27.3259830  42.3980665   3.0597040  27.7701688  43.7691164
  26.7234874  38.6053872  22.6706958  25.8982754  38.3808970  23.1006455
  26.9855285  39.4335556  23.0728197  33.4317851  60.2294922  41.3468647
  32.9815102  59.4038010  41.1687517  34.1115618  60.2813816  40.6749725
  28.5020041  24.2147088  21.3754821  27.6315236  24.2067266  21.7735171
  29.0802622  24.5291948  22.0704269  55.0541023  10.6619598  42.4017715
  55.6254915  10.0329353  41.9612312  55.5755977  10.9857608  43.1362247
  26.0322809  35.8290625  34.0926266  26.5409899  35.8871889  33.2838821
  25.3585792  36.5028000  34.0007615  30.3694892  62.3849392  30.6576943
  30.5095339  63.1177235  31.2574005  31.0568738  61.7575312  30.8815169
  36.7709589  62.5236273  17.2586620  37.4092078  62.1197462  16.6706586
  37.2579169  63.2205629  17.6984227  11.5270019   2.1018363  16.0368156
  12.2236133   1.6592075  16.5216291  11.7083097   3.0342819  16.1547351
  32.3974991  65.8475780  21.5100455  33.3297825  66.0205269  21.3790202
  32.2557139  65.9947252  22.4451804  27.4290943  45.6269884  31.1627984
  26.7670465  45.7675076  31.8396878  27.7955866  44.7653294  31.3614321
  19.2481399  52.8507185  21.7927051  19.0074933  52.4392509  22.6227736
  18.6887181  52.4247932  21.1431932  14.6193381  19.7261451  53.6940420
  15.0432654  19.7940944  54.5495534  13.8325711  19.2059539  53.8572383
  18.9780712  44.3596792  32.4140525  18.2245231  43.8255548  32.6652670
  18.6355555  45.2525282  32.3723698  66.7273827  19.1040209   5.6337464
  67.3857267  19.2905024   6.3031065  66.5353365  18.1722859   5.7397043
  38.8542911  57.2540496  59.5882827  39.3182632  57.1596263  58.7563884
  38.0535003  56.7419837  59.4753701  21.0320687  49.2725086  12.8948557
  20.5684686  49.9545145  12.4088788  21.1025357  48.5443735  12.2775388
  37.1306825  44.7457695  32.8646803  36.4223289  44.3415546  32.3636031
  36.8697190  45.6626034  32.9515290  58.8308954  65.7646465  47.2508955
  58.8140583  66.7109632  47.3938274  59.7413158  65.5147362  47.4087286
  65.2134132   3.6321328  44.7440040  64.2834806   3.8586591  44.7560168
  65.6428611   4.3591188  45.1948881  19.0497363  27.7311420  27.9597521
  18.9212716  28.6795139  27.9418468  18.1635213  27.3695493  27.9700303
  38.1257415  74.0824699  40.5448866  38.5418558  73.8092184  41.3624525
  37.2196865  74.2716360  40.7888460  14.8171926  72.8310490  38.5207844
  14.1977108  72.7450943  37.7961564  15.4884160  72.1726179  38.3414435
  13.3441091  70.1547194  22.2043967  13.8298273  70.8275223  21.7272687
  13.5740125  69.3361616  21.7646933  40.3794912   3.2128908  27.0001245
  40.7067934   2.3148061  27.0505595  40.4121796   3.5307552  27.9024148
  75.5492429  19.5689537  58.9723730  75.7300261  19.0642311  58.1794024
  76.4133290  19.8209049  59.2981195  61.7239670   0.2793123  47.5921154
  62.4751238  -0.1270770  48.0243635  61.0158638   0.2163936  48.2331038
  32.9179597  43.9646673  36.8116999  33.8352942  43.7017727  36.7367649
  32.4237585  43.1780005  36.5811515  35.8307552  31.6970277  19.1650891
  35.5214834  30.9953809  19.7380400  35.3873467  32.4819493  19.4868338
  70.9921408  60.3752232   8.3938074  70.2003765  60.7672119   8.7621564
  71.6824579  60.5977345   9.0184534  41.6734171  67.3020983   7.4934465
  42.3953533  67.7390528   7.0416653  41.1101532  66.9803095   6.7895883
  51.5625099  12.6820423  37.4606085  50.7252482  12.2303153  37.3549366
  51.8449072  12.8752758  36.5666604  41.3826481   3.1531192  20.6103516
  40.9925643   2.3278762  20.8985114  42.1097855   2.8901960  20.0461054
  10.9622741  52.0564175  23.3383632  11.5121126  52.2318125  22.5747228
  10.4650927  51.2737179  23.1008267  69.6886949   8.3436061  12.5001848
  69.3395928   9.2333461  12.5524092  69.1122989   7.8961421  11.8806946
  73.6019850  17.3056863  59.0936589  72.7927756  17.6999734  59.4191545
  74.2832708  17.9411958  59.3132240  43.7493467  74.1055107  46.5282297
  43.3372259  74.0056229  45.6700850  44.4689560  73.4743452  46.5232706
  27.4710679  55.8730125  32.6508331  27.5863600  56.0142469  31.7111564
  26.7339444  55.2655506  32.7130651  19.1599596  14.5197368  38.0922890
  18.9998007  14.9752307  37.2657871  20.1103544  14.4107187  38.1254292
  21.9401217  59.8907948  25.7747388  22.6377082  60.5021620  25.5384398
  21.1342478  60.3306866  25.5040121  65.1222733   7.3771335  20.8639693
  65.1583890   8.3049633  21.0964680  66.0028271   7.1750118  20.5477309
  37.4646473  64.4605923  58.3442402  37.7156425  63.7076950  57.8090906
  36.5932417  64.2405224  58.6735582  25.3747368  37.2650695   9.2159051
  26.1816287  37.6836872   9.5157647  24.6743941  37.7838778   9.6116203
  46.1449432  61.2975311  35.5999207  47.0873404  61.4652109  35.5979514
  45.7754850  62.0127726  36.1177635  30.8053605  -0.2573584   6.7101568
  30.3304181   0.4683258   7.1151823  31.2555096   0.1379873   5.9636325
  67.9499988  35.5648090  27.8341746  68.3261279  34.7296096  28.1120276
  67.0703725  35.5687381  28.2116318  57.4910311   3.3465768  51.7065573
  56.9492225   3.7401821  52.3904800  58.0212001   4.0710308  51.3744116
  52.2862128   5.5589725  51.9120455  53.0196575   5.2912809  52.4657869
  52.4526552   5.1325180  51.0714102  59.2981986  16.3749076  42.6032734
  60.2114228  16.6547061  42.5403261  58.7954692  17.1248294  42.2852945
  64.4669274   2.1171857  48.7876368  64.4519118   1.1640359  48.7009430
  65.3925017   2.3327304  48.9020157  73.1063012   7.1232749  25.7114744
  72.2841767   6.9192554  25.2656937  72.8482512   7.6774074  26.4480734
  50.2577305  63.3478403  23.8991332  50.9995508  62.7558517  24.0235782
  50.3774309  63.6996746  23.0170226  11.2078643  11.3017703  47.4708939
  10.6600881  10.5867721  47.1469355  11.3169122  11.8806983  46.7164516
  49.7567514  38.7517813   7.7884829  50.0594381  38.1829003   7.0806801
  50.2621607  38.4734372   8.5522377  20.5697847   1.6986991  39.1427398
  20.7028079   1.0528852  39.8366141  20.0978732   1.2224676  38.4595609
  32.4059115   1.1164381   1.7133899  32.3321382   1.1861946   0.7615900
  31.5195916   1.2813760   2.0350474  51.7404652  61.2324619  19.9596143
  52.0976067  61.6513634  19.1765404  51.4121437  61.9579506  20.4907441
  63.8904238  70.1895428  25.7005858  64.3804264  70.4093695  26.4929271
  63.8471222  71.0104799  25.2102590   0.0774074  26.8658401  11.1082983
   0.3157926  25.9736873  10.8563650  -0.1872086  26.7931510  12.0253205
  70.9163693  16.3714839  15.9601533  70.1496343  16.1489154  15.4321253
  71.2826756  15.5258419  16.2188709  39.9297881  64.4057608  32.0123291
  39.9270511  64.0196276  32.8881860  39.7806430  65.3393936  32.1617103
  55.7303790   9.4661190  27.6271772  56.4245204   9.4637729  26.9680905
  56.1926774   9.5448352  28.4616327  47.5039700  16.4350082  49.6353912
  47.6578263  15.4941131  49.7206688  47.0624045  16.5299751  48.7914515
  74.2229557  14.6086810  58.6201024  73.5508823  14.4497560  57.9573101
  73.9247775  15.3932927  59.0802193  38.9124823  56.6521740  19.6602607
  39.4254804  57.2582293  20.1948285  38.2661295  57.2065783  19.2231190
  44.9178076  64.5801163  42.4329662  44.9387646  65.4986477  42.7014494
  44.0933180  64.4889450  41.9553280   8.0216166  62.3902607  32.6296997
   8.0574747  62.9852533  33.3786488   8.8177820  61.8640471  32.7035213
  60.4947618   7.1540214  46.3765907  59.8928908   6.7096569  46.9736910
  61.2957672   7.2713233  46.8873405  62.5689939  35.6844760  27.8062177
  62.1592406  35.5982353  28.6669707  61.9456963  35.2802040  27.2026491
  57.9407835  69.6074629  60.7052135  57.6091051  68.8976765  61.2551546
  58.8372278  69.3473148  60.4932308  26.1186937  71.0307816   8.2744610
  26.4523176  71.0827092   7.3787844  25.4597048  70.3371838   8.2447541
  15.9953312  46.2716797   1.8186104  15.1900248  46.7015103   1.5305769
  16.1077932  46.5566853   2.7254450  18.5197651  52.5295687  55.9295511
  19.0580285  52.1357298  56.6161346  19.1040421  52.5931072  55.1740265
  13.0219007  39.4950820  31.9689322  12.2317004  38.9932205  31.7690587
  13.5663390  38.8927509  32.4759030  53.5244445  11.1318637  31.0505700
  53.1656460  10.8189441  31.8809795  53.7344769  10.3343345  30.5647087
  64.4194511  20.9777976  45.9912205  65.1089243  21.3108398  46.5656233
  64.6785716  21.2637569  45.1152563  68.1789942  32.2716549   9.2293465
  68.2692559  33.0463723   9.7842324  68.1941207  31.5357092   9.8412192
  54.5500040   2.4495088  14.7343397  55.2325726   3.1110355  14.6215951
  53.7959290   2.9374167  15.0653279  65.4985428  54.8381281  10.3911006
  65.1697636  54.0446138   9.9686450  64.7270918  55.2275229  10.8027589
   4.4862600  60.2246332  54.6357107   4.1987940  60.9828329  55.1443624
   4.4235178  60.5099821  53.7241888  37.6832557  57.4641657  29.8698854
  37.8585935  56.6582441  30.3556633  38.4089160  58.0447340  30.0992036
  14.2496971  20.2845505   2.3831331  13.9465288  20.9353617   3.0161917
  13.8985590  20.5843190   1.5446436  51.5796947  52.6449633   8.6506927
  52.4712896  52.8625011   8.3787191  51.3094425  51.9493246   8.0512911
  28.2298732  66.2938023  42.8125000  28.3666468  65.3475523  42.7663422
  29.0311432  66.6696882  42.4479389  22.5154138  63.2257938  18.7361705
  22.5691915  63.6190462  17.8651428  23.3989501  62.8993464  18.9065421
  35.8902494  21.7833282  53.2612514  36.4104966  21.8706085  52.4625301
  35.9564433  22.6391078  53.6849213   1.1461711  35.2172328  41.9210148
   1.6041494  34.3948127  41.7474890   0.3526282  35.1665355  41.3881493
  41.2377409   2.0660449  37.1671820  40.7911436   1.8573858  36.3466668
  40.5532817   2.4352457  37.7252483  68.8252143  18.4104873  35.0027323
  69.0728883  19.0606262  34.3453002  68.9386300  17.5685932  34.5616293
  73.3918075   0.7291509  32.2669506  74.1038016   0.1296379  32.4903011
  73.6719398   1.5747549  32.6172543  58.5013918  19.8458244  27.4003005
  58.2586054  19.4045402  26.5863252  58.5616974  20.7710220  27.1623898
  43.2111311  61.4483404  34.5917249  43.1605625  62.0520353  35.3328252
  43.4622192  60.6109810  34.9816155  30.3677438  17.3605205  28.7834334
  30.7567314  16.5600444  29.1357803  29.8588655  17.0669986  28.0277109
  19.2683423  68.9136982  29.8253489  19.4216835  69.2871857  30.6932354
  20.0989890  69.0303802  29.3642163  61.5099716  65.8580160  39.8467422
  61.0055017  65.4045200  40.5220842  61.3521814  65.3520632  39.0496564
  11.2232852   8.5030414   9.0667576  11.4079261   7.6142360   9.3703431
  12.0566201   8.9651348   9.1576064  77.8073911  19.8708202  13.6444724
  78.0352000  18.9868690  13.3564579  76.9820670  20.0625755  13.1991601
  40.2916956  65.7763338  12.4910212  40.7382488  65.6112528  13.3214247
  40.9564924  66.1886311  11.9394004  58.0372858  59.2984915  52.6017809
  58.7152576  58.6889267  52.8933525  58.4679270  60.1533508  52.6013279
  32.8783727  47.6589870   6.0863680  32.5614214  47.5437689   6.9821912
  32.4165440  46.9899940   5.5810028  56.3293314  59.0385485  26.9760036
  56.6035414  59.3297672  27.8456211  55.3944921  59.2409420  26.9393682
  46.5116501  59.9946880  25.9988856  47.2302341  60.2708769  25.4300356
  46.1830091  60.8081198  26.3817072  68.5401277  23.7080242  22.1088886
  68.0036811  23.1335689  21.5625715  67.9744796  23.9327671  22.8476429
  70.2994613  26.5232517  54.6828365  70.4843358  26.5295936  55.6219959
  70.5285815  27.4045040  54.3876648  33.4649024   5.0642444  38.9194417
  33.8113538   4.1857292  39.0756822  33.4983263   5.1692869  37.9686093
  33.5562293   3.9944269  19.0391874  33.3798394   3.1665946  19.4861972
  34.4203261   3.8745309  18.6452425  48.2725716  73.4183264  37.6833940
  48.1696558  73.2149982  38.6130714  47.6731920  72.8185558  37.2392654
  61.0208515  16.5789749  60.5219507  60.8285812  17.0817901  61.3134289
  61.9470314  16.3509609  60.6021357  26.4953876  57.0827389  19.3282199
  26.4703918  57.6977062  18.5951293  25.9204960  57.4720526  19.9871349
  75.8413124  42.7559233  21.8550229  75.9167719  41.8059874  21.9453526
  76.2268782  42.9465818  20.9999084   5.2207780   4.7568418  44.0825367
   4.9970651   4.0693475  43.4552097   4.4572997   5.3341724  44.0875578
  44.9684373  14.1922428  33.1655145  44.2221014  14.1980125  33.7648320
  44.6260587  13.8040210  32.3603487  13.1429315   7.4083187  27.1564126
  13.0100989   6.5038730  27.4402475  12.6997304   7.4611522  26.3096452
  48.1221680   5.5984832  35.0319076  47.4976782   6.1034156  35.5527616
  48.0778483   4.7142555  35.3957987  24.6834588  73.1477022  38.3878374
  23.7414551  73.2784462  38.4962964  25.0802064  73.6820316  39.0758181
  54.4867686   3.9415599  47.0133781  55.0424580   3.3829881  46.4698315
  54.6440438   4.8271419  46.6858959  15.8918834   4.6947528  46.7011166
  16.0136771   3.9824010  46.0734606  16.3164115   4.3844463  47.5009394
   5.6937245  41.7263201  30.2168619   5.8984045  42.3882464  30.8773100
   5.6419114  40.9062079  30.7077372  60.7389784  67.9078579   6.6992188
  60.4756260  68.2136250   7.5671947  60.5260324  68.6350250   6.1143124
  51.2389708  57.5480270  57.7238894  51.0784483  57.5857592  56.7810011
  52.1770954  57.7154541  57.8140211  66.1639023  73.0037594  42.6047897
  66.4248943  73.4386873  41.7930317  66.9414568  73.0486012  43.1612349
  30.9997177  60.7760477  14.8683047  30.5180454  60.3569460  14.1551590
  31.0008144  61.7062092  14.6424055  25.2978710  24.1834143  16.1773932
  25.5764631  23.6102036  15.4632151  25.3035740  23.6210755  16.9519770
  50.7009220  70.4370594  35.0417686  49.7907352  70.2605343  34.8038149
  50.6861401  71.3226032  35.4048491   2.0526358  50.9950781  51.4658689
   2.8848787  51.3536119  51.1575460   1.9465395  50.1800251  50.9752941
  78.9228848   4.8055841  44.8928642  79.0798644   5.3762342  45.6451607
  78.2286767   5.2437498  44.4006062  33.6165929  65.6946659  47.7442026
  33.1831074  65.9844065  46.9414759  32.9362607  65.2265978  48.2282448
  74.9006537  17.3036052  62.4274302  74.7747115  16.6161300  61.7734003
  75.6884889  17.0402767  62.9030418  69.9398947  27.8551410  49.3059254
  69.8910725  28.7880490  49.5145548  70.1501000  27.4339984  50.1394046
  32.3112273  21.4613868  55.3134203  31.8475700  21.7974044  54.5463848
  33.1360030  21.1225559  54.9653244  10.6899333  14.6134902  35.6046295
  10.1369691  15.3812553  35.7495070  10.2455115  14.1256381  34.9112868
  30.3586268  69.2047691  33.2957244  30.3108716  69.7372293  34.0897274
  30.7023287  69.7993326  32.6289415  54.9627542  69.1479158   9.7255182
  54.1288853  68.8454962  10.0852966  55.1881742  68.4955072   9.0623593
  52.1515254   3.3467866  33.3959699  51.2865929   3.7016489  33.1905437
  52.3998884   2.8535034  32.6141620   9.5691630  54.2691755  30.0431585
   8.9150854  53.6079025  29.8170400   9.0937086  55.0990820  30.0053430
  35.6334452  57.2294930  10.6528961  35.6243853  57.5886563  11.5401137
  34.7884420  57.4845913  10.2825939  54.5165185  16.1595108  38.5643077
  53.8391069  16.2120201  37.8900766  54.8857049  17.0418407  38.6021328
  40.8331585  71.4136744  32.9042339  40.2724266  71.0760403  32.2057986
  40.6054735  72.3412895  32.9668522   4.5528170  54.1956568  25.7765150
   5.2162882  54.1015768  26.4600253   3.7928244  53.7212324  26.1135077
  19.5143513  25.5423144  15.9075033  19.8488716  26.2957838  15.4210722
  20.2969746  25.1162794  16.2571108   3.6028314   9.8349811  26.4302969
   2.9920173   9.2664672  25.9613299   3.9227080  10.4437877  25.7645082
  10.3107524  14.4905425  23.8335800  10.0416255  15.4087783  23.8589811
  11.0289645  14.4688560  23.2011771  57.6326275  74.2897606  46.3029242
  58.3709431  73.9981508  46.8377972  57.8190327  73.9456606  45.4293823
  56.8554286  41.3530303  47.2831488  57.4593071  42.0510723  47.0295715
  55.9871630  41.7493583  47.2105169  16.3032031  20.6877185  33.0790305
  15.7533145  20.2759029  32.4124980  15.7167173  20.8228446  33.8233471
  71.2835340  18.8594486  38.4692121  71.9627408  18.8794185  37.7950358
  70.6057719  19.4519950  38.1440091  72.1042661  24.6092464  37.9356885
  72.5734166  24.1041328  38.5997581  71.4542655  23.9997531  37.5860572
  60.4883434  46.9933442   1.4914572  60.6815644  46.1376122   1.1085522
  59.8487927  46.8090371   2.1793806  75.8965997  29.9057914  47.7254248
  75.2225617  30.4144622  48.1761599  76.6327218  29.8885681  48.3370304
  24.0742946  29.6990634  26.9595981  24.6133781  29.9148036  26.1986256
  24.5295644  28.9671756  27.3758984  24.5620302  31.8186262   1.8835175
  23.7547735  32.2136525   1.5540850  24.7828440  31.1493424   1.2358010
  40.6083012  66.5739250  22.7229714  41.5562105  66.4668465  22.6439881
  40.3967428  67.2867632  22.1201968  42.0080566  65.8989573  43.5439825
  41.9491291  65.7232904  42.6048899  42.8284883  66.3812780  43.6464071
  10.3528905  16.9156600  27.4512720  10.0380540  17.0918609  28.3378768
  11.1231446  16.3613273  27.5763750  38.5707283  65.0337315  23.3276892
  38.6324811  64.2881060  22.7306461  39.2079663  65.6636238  22.9909468
  59.9079946   3.8698436  45.1286364  59.8313908   4.2298318  46.0122490
  59.4394163   3.0361177  45.1682234  14.3454194   9.5295574  32.1704197
  14.9065662   8.7619544  32.0603156  14.8299432  10.2422000  31.7537522
  69.3637065   8.8006069  35.4736876  69.3749980   8.8869811  34.5204592
  70.2691010   8.9613677  35.7394886  65.8666519   5.1856901  50.4315758
  65.2105049   5.8825065  50.4438210  66.4635686   5.4311801  49.7247076
  72.1781206  70.2300119  24.5407510  72.4947739  70.3981495  25.4282713
  71.3456774  69.7743368  24.6657634  14.9851394  59.9552679  22.0152164
  15.5418098  59.3817568  21.4884949  15.3113663  60.8369732  21.8352199
   7.4738908  25.6528999  53.3156729   7.7445579  25.0710918  52.6054144
   8.1564260  26.3231517  53.3495188  35.8278851   2.1251060  24.8672104
  35.4740063   2.5987674  24.1144514  36.0719243   2.8110267  25.4886508
  54.6301889  63.2421494  61.5646553  54.7740173  64.0131092  61.0158682
  55.4800272  63.0768633  61.9729328  57.0860720  58.9177752  10.3199458
  57.7845001  59.5005465  10.0219309  56.4123058  58.9859247   9.6434671
  60.7278351   7.1416046  28.7900782  61.0922507   6.8246795  29.6165109
  59.9361638   7.6161148  29.0437198  61.8758968   9.9520637  34.5232797
  62.3211340  10.3703548  35.2601886  62.2255949   9.0611888  34.5065665
  46.2361431  68.7329865  41.5860462  46.1328840  69.6597385  41.8021536
  46.4685631  68.3178234  42.4166203  57.3544073  55.6817961  50.1179075
  58.0064869  56.2706804  49.7381163  57.8139114  54.8480558  50.2177382
  48.7975407  64.3368196  35.8054972  48.7449265  63.3869982  35.9118176
  49.7305298  64.5129156  35.6840444  10.1667833  58.9346886  41.1189890
  10.8163655  59.5937729  41.3636923   9.3419421  59.2689896  41.4712811
  50.8113575  72.0767784  17.9658544  50.4026985  72.4579430  17.1887159
  50.3421736  71.2539721  18.1040156  36.5067363  55.5570221  37.2600317
  36.6597199  56.0496950  36.4537430  35.8665013  56.0800552  37.7424908
  68.5111932   6.8452598  20.2391720  68.4207181   7.2409393  19.3722892
  69.0191630   7.4823905  20.7414293  72.2752885  31.5125228  14.9452889
  71.5519790  31.9080974  15.4316771  72.5265626  30.7505561  15.4673111
  28.3952379  60.4918337  30.7778120  28.3472705  59.9396276  29.9974298
  29.1697407  61.0367584  30.6383920   1.2815833  43.9031364  45.7590914
   1.6726327  44.1099693  46.6079283   0.3767943  43.6668254  45.9634066
  23.8975549   8.7180377  47.5877810  23.9853978   9.6008731  47.2284317
  24.2778802   8.1483509  46.9191694  52.6482010  61.7897177  62.5524759
  53.0038500  61.3908005  63.3465862  53.3297014  62.3965263  62.2633886
  45.2270842  68.5142565  47.7174854  46.1165810  68.8477945  47.8348875
  44.7094822  69.2869568  47.4911022  42.3274088  56.3035440  24.6380377
  42.6766682  56.2995768  23.7468386  42.3292160  57.2264671  24.8918915
  39.8580623  68.6371565  37.3636985  40.3957558  69.1093874  37.9993987
  39.8420858  67.7359915  37.6859999  76.2341622  16.2801696  14.6801448
  76.6994266  16.4189197  13.8552153  76.3962726  17.0779277  15.1836669
  76.9078378   0.3385498   0.5567846  77.4677590   0.3103687  -0.2190548
  76.7548493  -0.5807398   0.7752667  70.2647209  35.1597142  54.7748661
  70.4695606  34.5540786  54.0624905  70.9145689  34.9640727  55.4498816
  27.3948598  53.1610394  18.8736999  26.6416693  53.6865044  18.6038458
  27.0469713  52.2742414  18.9674711   6.8666693  43.0548382  28.0832958
   6.6240736  42.9028082  28.9966798   6.3090464  43.7814140  27.8051281
  68.8923407  62.5541067  27.1271849  68.2208872  63.2354832  27.1605229
  68.8163710  62.1858454  26.2469339  40.5724788  74.1932656  32.6071894
  40.1316333  74.5005919  31.8150770  40.6290984  74.9684479  33.1658613
  20.2068472  67.8919411   6.3725746  20.1040387  66.9619226   6.5743840
  19.9301422  67.9709435   5.4596531  25.9888809   4.7620298  11.9917572
  25.6743549   4.5421888  11.1148453  25.4471902   5.5036498  12.2615659
  38.0641341  74.0536737  43.7437630  37.6820636  74.5146132  44.4906187
  38.7959170  74.6065998  43.4699059   7.7356702  44.9985647  39.5494699
   7.0754421  44.5857048  40.1061344   8.2390505  45.5528784  40.1457691
   3.0895343  65.9765434   8.9042121   3.6758244  65.2248478   8.8178968
   3.6749330  66.7244482   9.0232891  57.9868034  15.2416088  48.9282656
  58.9072207  15.0638629  49.1218328  57.9889134  15.5588867  48.0251789
  62.1072912  62.7049112  33.3372521  62.9579020  62.4345207  33.6830544
  61.4718628  62.1903896  33.8349795   3.1084772  59.6771622  28.2544422
   3.9483114  59.3027735  28.5204363   2.6439520  59.8318720  29.0769458
  43.1591372  31.7305592   3.5081589  42.6943926  32.4740675   3.8921368
  43.1633095  31.0680321   4.1990101   2.9394937  58.1544352   6.8869776
   2.6966149  58.1836271   7.8123909   2.7508980  57.2553396   6.6181028
  60.0834135  18.2686855  22.0554948  60.4278091  17.8653289  21.2586737
  60.3379468  17.6690055  22.7567959  42.9464483  68.0774307  55.4942608
  42.5315714  68.0776405  56.3568783  43.1179476  69.0010881  55.3107452
  43.0289868   4.2913248  22.4659753  42.6309351   3.7491752  23.1470490
  42.6339392   3.9807846  21.6512775  65.1007271  52.3443699  47.9565048
  65.9959698  52.4765968  47.6445913  65.1627350  52.4340010  48.9074802
  61.2350512  54.7793436   9.5000255  61.2746239  55.3883123  10.2374697
  61.0838223  55.3369141   8.7368238  73.2246447  71.7938185  14.0789855
  72.2752762  71.8677044  14.1763270  73.5075378  71.3064718  14.8527384
  43.4874344  70.6028700  54.4944763  43.9827347  71.3384628  54.1341877
  42.7427626  71.0095978  54.9374866  41.6415310  71.6400528  16.6203785
  41.2479639  72.3495197  17.1283090  41.5382338  70.8646536  17.1720326
  30.1718307   5.2938415  34.0732932  30.0083933   6.1368610  33.6503983
  30.0290752   4.6473981  33.3819437  61.8548802  13.7487174  15.5752373
  62.3515777  14.4392063  16.0142744  60.9411911  14.0221740  15.6566668
  35.5615163  62.1196604  26.5646076  35.9630132  61.8143129  25.7510996
  36.2196517  61.9441271  27.2371244  49.4086603   0.7573701  59.2165709
  48.4735850   0.9261657  59.3322134  49.8215250   1.1645605  59.9781275
  55.0593618  14.4639446  23.1510639  55.1539711  15.4135944  23.0772376
  54.9130086  14.1672851  22.2528410  72.2931290  68.1718302  37.6145625
  71.7763662  68.9550972  37.4256706  71.8373013  67.4673271  37.1539855
  32.2136406   7.4213961  22.0944369  33.0838541   7.5870922  21.7317927
  32.1680740   6.4693240  22.1822703  52.8021316   6.4339019  32.6098108
  51.9908170   5.9470607  32.7546620  52.6710705   7.2611190  33.0732512
  55.3633026  49.2204598   9.5650589  55.8287243  48.6376503  10.1650107
  56.0488609  49.5851258   9.0053522  52.9488468  67.9001617  45.5453539
  53.8631344  68.0438948  45.3011036  52.5854349  68.7804413  45.6416559
  52.2446875  15.3325893  51.7286348  52.3034553  15.9400035  50.9911823
  51.4488820  14.8279716  51.5604639  68.9037351  18.5703517  54.5075130
  68.1086711  19.0922405  54.6158743  69.2186049  18.7926723  53.6313486
  33.1809715  26.9774607  19.6010363  33.9832357  27.0763424  20.1137030
  32.6564077  26.3481882  20.0960886  68.7856293  62.1819592  23.7457013
  67.8449631  62.3577023  23.7233901  69.1891670  63.0008554  23.4579563
  21.3522554  35.0826026  33.4373999  22.2178483  34.9074222  33.0682158
  21.2908769  34.4972183  34.1922498  67.5800705  73.9923334   2.5730515
  68.1311226  74.5812893   3.0885109  68.1740189  73.2989073   2.2856160
   2.0915198  11.0391380  43.3973837   2.3033404  11.5013648  42.5863934
   1.8994022  10.1435520  43.1194592  53.0506563  64.4133663  53.2235575
  53.2523012  63.4782648  53.1895494  53.7428141  64.8265696  52.7074051
  50.9754495   8.3107234  26.0130358  51.7986182   8.7735702  26.1692357
  50.3845099   8.9817096  25.6712747  49.0855217  71.7412138  46.8755674
  49.4910955  72.1628523  46.1179686  48.1718302  71.6158485  46.6192770
  61.1786608  10.1193191  44.9834824  60.9821347   9.6243907  44.1880846
  60.3636531  10.5778552  45.1877689   4.6411267  73.5162306  56.2056494
   4.0267709  74.2117691  55.9710789   4.0897146  72.7460527  56.3434935
  17.8857827  25.3377677  20.9812903  18.2592130  26.2177516  20.9320426
  17.5058246  25.2875663  21.8584132  73.1909541  31.6584064  48.2751274
  72.3613051  32.1014167  48.4530544  72.9366759  30.7892848  47.9649448
  69.2744616  66.9211818  14.4727886  69.6662978  67.7642776  14.7005546
  69.6607951  66.3023044  15.0924444  56.0173512  72.6437521  34.8457503
  55.5834341  72.1306658  35.5274272  55.3780603  72.6864243  34.1346097
  59.8724083  18.8914062  40.3313494  60.0310449  19.8132087  40.5346823
  60.5457882  18.4188701  40.8207321  10.4422355  20.9600593  43.0435753
  10.6065393  20.1244499  43.4806013   9.4993568  21.0970642  43.1354237
  60.6362391  67.6006222  42.3824787  61.4584398  67.5404167  42.8688860
  60.6333447  66.8260145  41.8201590  55.8941793  44.6712542  37.1401525
  56.4078140  45.0502825  36.4268851  56.5432501  44.4313765  37.8015113
   6.1522126   8.9491989  23.3064938   6.7540431   9.0182067  24.0476203
   6.3086009   8.0740596  22.9516435  63.2680825   6.8834640  42.3687315
  63.2395009   7.7676727  42.7342367  64.2013315   6.6797592  42.3072433
  44.8956493  28.1691483   6.9508850  44.3332581  28.9351061   6.8357670
  45.7692675  28.5328987   7.0947945   4.2046666  32.3828269  38.8944507
   5.0815797  32.4187519  38.5124016   3.7303567  33.0996753  38.4732723
  13.2222819  42.9496910  31.8380499  12.4948573  43.2067920  32.4046040
  13.6967063  43.7644531  31.6727829  53.8151169  63.4425068  35.4657984
  53.9835072  63.1588078  34.5672488  54.6828318  63.6271572  35.8252549
  75.0520829  23.0614330  12.9712713  74.8301724  23.9289047  12.6329350
  75.8594207  23.1971313  13.4672749   3.8501620  12.5963069  16.6577983
   3.5770059  11.7267753  16.9502580   3.3625674  13.2011939  17.2169065
  76.8375234  15.4563667  53.1336260  76.4410047  15.1697780  53.9563513
  76.2833003  16.1793186  52.8396845  37.5183316  71.8673347  59.1667539
  37.9975720  71.0487769  59.0381652  37.6006623  72.0485328  60.1030341
  31.5881801  20.2505065   2.5856495  31.9176078  20.5642749   3.4278211
  31.3740420  19.3304111   2.7399874  19.3463540  16.6886093  49.3692493
  18.7958074  17.1332599  48.7247229  18.8269639  16.6953231  50.1732492
  20.5289149  10.1347591  32.2410250  20.9585118  10.8019306  32.7763438
  20.6577420  10.4311229  31.3400221  52.3562387  21.4060070  62.8262901
  52.9366592  21.2612583  63.5735464  51.4740709  21.3365509  63.1912470
  58.2209281   0.8075429  35.5040503  58.2508544  -0.1362942  35.3474998
  58.2101659   1.1952545  34.6289515  64.3639565  61.1956739  22.8703046
  63.9401722  61.0201979  23.7104511  63.9424515  60.5919218  22.2587085
   5.1008586  43.0573586   6.4224922   4.9061541  43.2474736   5.5047858
   5.8374576  43.6305836   6.6347801   8.7415338  31.9598915  43.6462879
   8.0813861  32.6358940  43.4931278   8.2399058  31.1482955  43.7231445
  24.3191528  64.8877954  27.6778460  23.8547158  65.6813240  27.4116898
  23.6598396  64.3667030  28.1361055  56.8947268  70.7384968  31.4853692
  57.5511503  70.1894665  31.0565281  56.0669136  70.2808237  31.3387871
  37.2285656  48.0251339   7.6156723  36.3679699  47.6988629   7.8786337
  37.5143913  48.5667828   8.3513081  14.5334383  67.7389479  48.0305338
  15.0241133  68.4518766  47.6216269  13.6279436  68.0489635  48.0451584
  53.8088036  71.1990881  36.4927626  53.3084154  71.3465309  37.2953248
  54.3512774  70.4344416  36.6858053  36.2839007  15.2745582  41.7532110
  35.8038783  15.2221347  42.5796890  35.6905151  15.7358123  41.1604404
  57.8597216   9.3110897  25.8788204  57.7721814   8.4761287  25.4190350
  57.9022268   9.9652816  25.1813507  30.0376844  66.7391109  56.7854738
  29.2683411  66.3465071  57.1980286  30.1892924  66.2059450  56.0051012
   8.0597691  70.4272774  12.5689614   7.5126199  70.1292160  13.2956087
   8.7217239  70.9832695  12.9799568  39.1128401  32.9248503  21.0108149
  39.2131666  32.4152163  20.2067911  39.7019009  32.5033930  21.6366064
  46.7670683  15.9629203  62.9637003  45.9841064  15.4253627  62.8444147
  46.6366176  16.3917304  63.8094759  65.7157044  44.2900971   9.7661078
  65.1102833  43.9388111   9.1131937  65.6750778  45.2386788   9.6445429
  74.6270446  12.5243999  60.4940510  74.4363574  13.1860782  59.8291826
  74.5519618  12.9920818  61.3258410  13.0778205  55.5082846   7.9557520
  13.3897471  55.1730347   8.7963122  13.8708568  55.6108856   7.4296361
   8.9598278  65.0286415  27.9622328   8.0974583  65.3951481  27.7667296
   9.3060211  64.7631958  27.1102202  32.7050123  23.5198070  48.2075834
  32.6830784  23.4291793  49.1602325  33.4767381  23.0221607  47.9373550
  74.6877936  20.3543807  45.3839970  74.2395429  19.8721553  44.6891928
  74.6787003  19.7587348  46.1332369  78.2447795  49.8248149  53.5574293
  78.2399491  48.9559699  53.1557894  78.0467299  49.6633579  54.4798946
  11.6415429  32.7306797  39.3040991  11.4821124  33.6739208  39.2708969
  11.5257144  32.5004913  40.2259588  69.8853759   4.3736125  56.1523867
  69.2440633   4.8224307  55.6014681  69.6539000   4.6283914  57.0455503
  59.2344522  68.5670471  47.4505186  59.4856167  68.8071060  46.5585995
  60.0371790  68.6707306  47.9615116  20.3596854  15.5079032  53.1290388
  20.6730437  14.6128036  52.9993153  19.6544480  15.6097747  52.4899054
  41.4815569  66.0333443  54.4529533  40.6018066  66.2779570  54.7400761
  42.0047712  66.8241215  54.5839310  66.2633399  25.1956798  34.2511702
  66.7801026  25.5874587  34.9552274  66.5867499  25.6159545  33.4542990
   4.3129945   7.9124214  54.7271681   3.6788583   7.7847721  54.0216112
   5.0353980   7.3234130  54.5093870  75.4452896  68.6408472  49.6036100
  75.8134079  68.4543562  50.4672861  74.6219492  69.0933752  49.7868013
  50.1126103  54.6306637   6.2552082  50.2729992  55.5453518   6.0231459
  49.1721396  54.5888737   6.4284289  39.2091465  69.8359966   8.3943331
  38.9327073  70.4193163   9.1011232  40.1232576  70.0703812   8.2340509
  16.6733146  29.0244914  52.8533888  16.3679099  29.0171482  51.9462490
  16.3122726  29.8311092  53.2211399  64.7328643   2.1156885  27.7512908
  63.9840178   1.9143297  28.3124661  64.5821551   3.0165101  27.4648762
  19.6414236   9.1074897  19.8818707  19.5073519  10.0549556  19.8584473
  19.9629513   8.9328815  20.7663846  43.1259004  11.0309268  32.7649188
  42.7703527  10.4638912  33.4492373  42.9436282  11.9192649  33.0712819
  65.5666399  71.6791105  57.1415281  65.0800848  71.7093706  56.3177681
  66.3180256  72.2542667  56.9971609  65.5474428  11.0352661  57.9798460
  66.2474326  10.7433654  57.3958635  65.8701734  10.8362438  58.8587475
  58.6650948  24.6338442   3.8439381  59.2190365  25.4031638   3.7115204
  57.8438381  24.9861983   4.1868889  16.0184074   4.6622325  51.7747259
  15.7786918   5.1275255  50.9733105  15.7970309   5.2703000  52.4800491
  53.5981087  37.3407391   0.1041996  52.9835991  36.6112116   0.0242436
  53.6681370  37.4927166   1.0466635  64.4993667  10.1293231  40.4027319
  63.9442305  10.8958198  40.2593994  65.2157883  10.2319480  39.7762823
  51.3639736  63.5781717  21.2146425  50.9585905  64.0214729  20.4694057
  52.1640491  64.0758896  21.3831282  12.2224947  46.1240292  19.8082542
  11.8716093  45.4488039  19.2275846  13.0164572  45.7352972  20.1753330
  75.6470374   6.5005447  45.9372234  74.7249011   6.2571861  45.8555174
  75.9703139   5.9725334  46.6672468  62.5593805  51.1975384  59.1912270
  63.1991863  50.9025908  58.5432386  61.9358349  51.7231750  58.6900997
  53.0265379  54.8431253   7.0638537  52.1542692  54.9005556   7.4538302
  53.6234283  54.8358297   7.8121191  14.7584462  12.1253730  39.3344283
  15.6211639  12.2342349  39.7345495  14.9401164  11.7561771  38.4701800
  42.8360033  71.2258244  51.3828850  43.4184742  71.5737343  52.0581007
  42.1643400  71.8993378  51.2757206  64.2285061  57.5545454  36.7111182
  64.6536875  56.7380476  36.9733810  63.3980608  57.2783566  36.3234186
  60.8606863  47.5120163  41.3936567  60.8953238  47.4974775  42.3501205
  59.9295473  47.5975943  41.1889839  58.6149263  68.7846851  30.5146265
  58.8108349  68.6382580  31.4400506  58.2124472  67.9667568  30.2226758
  31.9528727  64.7575596   6.5057528  32.7231220  64.6097878   7.0544874
  31.9832186  65.6911686   6.2967598  43.8941356  21.0879634  64.2504428
  43.0867930  20.7105039  64.5996680  44.0340730  20.6294845  63.4219229
  70.9524345  74.3035746  12.5438607  70.1331520  74.6761227  12.2179568
  70.9123898  73.3806944  12.2930264   7.8184247  36.5325595  35.8712220
   8.4815002  37.0170642  35.3794718   7.0407128  37.0895721  35.8375764
  66.7828083  66.8501472  43.5086250  66.1254692  66.4470577  42.9414749
  66.3700342  67.6563501  43.8182735  48.5424648  35.5467966   2.2227871
  49.4870342  35.5313757   2.3770010  48.3927883  34.8504618   1.5832960
   1.9500491  26.9682026  35.0746322   1.5732577  27.2829819  35.8963203
   2.1479659  26.0463190  35.2395391  72.0896146   0.0468791  40.8014536
  73.0213324   0.1307134  41.0042000  71.7048488   0.8717239  41.0977936
  57.7960968   3.0635020  39.3837714  57.2805119   3.8228896  39.1122270
  57.4255753   2.8126127  40.2299404  39.5039272   2.9866186  39.3749189
  39.2161560   2.0837483  39.5099950  39.9713707   3.2118914  40.1792717
  18.2896328  22.7209377  22.1125054  18.7033939  23.4224582  21.6096139
  17.8714156  23.1682038  22.8482223  57.1135488  63.9589714  31.9163680
  57.3888054  64.6100091  31.2709093  56.2773937  64.2876957  32.2465444
  53.4388641  41.7124434   4.8145783  54.2516331  41.2970086   5.1027691
  53.5458592  41.8178363   3.8692343  25.5509942  74.0663549  58.9665365
  24.7389396  74.5674249  59.0422237  25.5945683  73.8189479  58.0428905
  39.0420588  19.8763868  58.6014617  39.0874394  18.9902028  58.9604181
  38.4184094  19.8102459  57.8783304   4.9286023  17.8405952  12.9932177
   4.6195605  18.5765433  12.4649119   5.7955635  18.1105554  13.2960916
  64.1149048  10.9557247  24.7536874  63.8175169  10.2158046  25.2831316
  64.8070530  11.3611221  25.2760053  10.2596375  69.3473910  27.8107882
  10.5529877  68.7479113  28.4969401   9.3191191  69.1853951  27.7372289
  23.2358646  19.5511758  11.5266943  23.0317426  19.6017981  12.4605060
  23.1521797  20.4520011  11.2140572  15.9104892  39.8736857   1.7825648
  16.0529014  40.2280019   0.9048349  16.7510720  39.4838928   2.0228007
  23.9048362   7.3141152  33.3970022  23.3883572   7.7286482  34.0881205
  24.7228074   7.0639372  33.8266134  55.9889513  66.9586067  25.0029802
  55.8613995  66.1657558  24.4820666  55.2520940  67.5218420  24.7662544
  75.4901647  52.4190591  26.8908381  74.8149705  52.0180653  26.3435292
  75.1663303  52.3148869  27.7855515  45.5979329  72.2390615  46.6191912
  45.5059934  71.2951534  46.4895105  45.4785651  72.3642320  47.5606346
   8.4517050   8.3259779   9.6692324   9.3957323   8.4583575   9.7559524
   8.0622840   9.0499985  10.1595151  61.7911529  60.0354122  37.9575062
  61.3819539  60.8989452  37.9018402  62.7161395  60.2188300  38.1217909
  77.5224998   0.8013388  37.1106744  78.0858953   0.3747123  37.7562809
  77.1645202   1.5610272  37.5699735  44.6582564  28.1831839  53.5099864
  45.5951329  28.0066356  53.4243989  44.6014889  29.1338363  53.6062610
  13.6041963  17.4806535   2.4987467  12.9174733  17.3465908   1.8455464
  14.0924025  18.2400441   2.1806084   2.8271957  52.9340886  12.2841167
   3.5796162  52.7024745  12.8285885   2.2811576  53.4799908  12.8498590
  68.7292281  24.6235228  11.2152505  67.8521947  24.6678853  11.5961373
  68.7002257  25.2306962  10.4758358  15.1924010  63.7259089  19.6535265
  14.6662494  62.9458390  19.4777799  16.0979529  63.4298466  19.5610619
  68.4456900   0.3260328  38.6094594  68.1780938   0.7451134  39.4273806
  69.0884808  -0.3311630  38.8761902  59.7913206  55.4325555  31.6419363
  59.7651541  54.5398806  31.9864368  60.7229340  55.6502496  31.6112995
  47.4623227  70.6231035  23.8109684  47.8127563  69.8458056  24.2459822
  46.6676140  70.8340375  24.3010473  59.5592469  69.9579744  11.7114544
  58.7228322  70.0301810  12.1712673  60.1876944  69.7205658  12.3933065
   3.4293899  14.5770693  25.5543590   2.6069918  14.2645288  25.1772499
   3.3897033  14.3077695  26.4720392   5.2328938   2.9972288  18.0903244
   4.4996393   3.3775219  18.5740042   5.4572630   3.6590052  17.4361515
  31.2670732   5.6054568  10.8977568  31.9632196   6.2552810  10.9943986
  30.4601145   6.1199415  10.8788848  57.5669956  45.0614999  39.3970680
  57.7794540  44.2144941  39.7890806  57.3851383  45.6321381  40.1437473
   1.8685721   8.7429118  63.7345219   1.6053984   7.9595929  64.2176199
   2.6988035   8.5028732  63.3230257  68.0302250  60.0540184  49.1510439
  68.0660379  60.3900741  50.0465965  67.5373983  59.2364691  49.2215395
  42.9405578  39.5541714  59.4025219  43.8684078  39.5516200  59.1673219
  42.9284795  39.8022552  60.3269351  24.3016291  28.6996603  11.4327455
  24.7172999  28.6249709  12.2917402  24.7839856  28.0856657  10.8790517
  78.2675908  37.8020334  18.7520111  78.3730439  37.4974108  17.8507245
  77.4165256  38.2400680  18.7587547   3.9069051  37.5017667  41.7864990
   3.2069293  37.5343847  41.1344242   3.5150763  37.8724813  42.5772429
  61.3715263  28.5428920  49.2005277  60.9541007  27.9603418  48.5660017
  62.0737143  28.9688280  48.7088537  60.4131726   5.8969563  57.0931578
  59.7180179   5.7251960  56.4579487  61.1447922   5.3536141  56.8003368
  31.9137979  12.6270771  14.2442894  31.0393429  12.9928577  14.3775797
  31.7904091  11.6803420  14.3128490  76.6489982  56.1159514  19.9116945
  75.8783960  56.5126322  19.5054340  76.3486004  55.8419047  20.7782340
  19.5681334   7.5300890  32.4596906  19.3737543   7.3605508  33.3814859
  20.0188184   8.3745486  32.4613309  73.7188816  54.2429613  36.9657445
  73.8938069  53.3018969  36.9600701  73.0719137  54.3705057  36.2719154
  11.4476836   1.4707832  46.8228149  11.0400414   0.9737775  47.5320673
  11.5151370   2.3627907  47.1634054  15.8634734   7.3264378  31.9664860
  16.5093398   7.0522034  32.6175499  16.2898707   7.1674281  31.1243844
  50.5934334   2.4428993  21.7999482  49.7558832   2.5405824  21.3469601
  51.1223841   3.1763962  21.4862251  13.8609954  52.9343222   4.3228132
  13.5320779  53.0660294   3.4336013  13.2087990  52.3702143   4.7383305
  78.9461018  28.8122511  41.3466740  79.0520170  29.7515202  41.4976215
  79.0052171  28.4213972  42.2184372  24.0987086   3.2489714   7.3330557
  24.6091390   3.5576129   6.5844345  24.3638992   2.3359174   7.4436802
   8.0291992  29.1219568  17.0879734   7.9694688  29.6173239  17.9048419
   7.5710011  28.3017635  17.2711945  23.8687253   4.2578447  35.2483392
  24.3719101   4.8383099  35.8193874  22.9561543   4.5018390  35.4029727
  68.4339785  66.8534295  11.8704879  67.5689220  67.0506899  11.5113270
  68.3093190  66.8721686  12.8193510   2.6656088  14.8528683  46.4576054
   3.3876863  15.0300252  47.0604753   2.3813696  13.9659142  46.6784048
  77.2452915   9.1039950  36.5424752  77.3710749   9.1497946  37.4902678
  77.9950856   9.5745760  36.1783385  22.7139306   4.6357661   0.2775642
  23.0349493   5.1245189   1.0353900  23.1542325   5.0382203  -0.4710326
  38.9054652  17.1136567  59.8676980  37.9745921  16.8908259  59.8604152
  39.3431981  16.3243028  59.5490414  28.4671926  19.1353095  29.1777945
  27.7442336  18.6943567  28.7315631  29.1895795  18.5084045  29.1406822
  20.6530976  30.5417395  20.1658368  20.8417559  30.3332400  19.2508662
  21.4971638  30.8092141  20.5294895  65.8096361  22.7183342   1.8140608
  64.8578691  22.7837992   1.8920739  66.0101557  23.1320119   0.9744798
  52.0874782  34.9492591  60.8693198  52.3890015  34.6076059  60.0275427
  51.1372562  35.0150926  60.7745838  21.1177131  67.1163736  31.5804267
  20.8688088  67.6089035  32.3625350  22.0476743  66.9258182  31.7032528
  33.2146859   5.3032339  41.6189194  33.4142041   5.1403940  40.6970167
  33.9578962   4.9316293  42.0940828  26.0149550  10.0261581  42.4820662
  26.6596508  10.2443993  43.1550980  26.3810039  10.3859580  41.6741180
  16.9771516   2.1771604  19.0373814  16.6528118   3.0662647  18.8941038
  16.2821770   1.6115355  18.7007666   1.8065031   2.6475197  39.5171547
   1.9714612   3.5493174  39.2418718   0.9929913   2.6953843  40.0192881
  23.5374949  33.2009431  18.5256827  24.0089319  33.7770705  17.9239714
  22.8297464  32.8310101  17.9979765  53.7240219  10.0416255  46.2057686
  53.0755186   9.6658480  45.6103992  53.2797050  10.0763631  47.0528889
  69.8262761  40.2257299  21.4573526  69.2755917  40.0710106  20.6898618
  69.5597104  39.5522237  22.0831037  68.7397150  13.1620586  40.7270670
  68.6182371  13.3514214  41.6574526  67.8659300  12.9278123  40.4142380
  18.7238991  49.0173054  25.8605814  19.6095061  48.9117956  25.5130148
  18.5592985  48.2089996  26.3461566  45.4851371  72.1759421  42.0821190
  45.5857760  72.8855161  41.4476061  44.5632017  71.9265507  42.0183182
  23.4462547  13.1274819   3.4273568  23.7158370  12.2386074   3.1961417
  22.8002834  13.3627427   2.7613202  20.5151320  33.3888006   4.1636863
  20.9746361  32.5566936   4.2763072  19.5947850  33.1772447   4.3200058
  10.1155420  63.4229718  53.1006527  10.4195043  62.5154863  53.1182432
   9.2327949  63.3728205  52.7339458  63.5626233  35.7682966  35.9373641
  63.0027723  35.6347583  36.7021966  63.9455676  36.6355704  36.0693455
  68.5621735  32.7198040  47.2161710  67.6059862  32.6860353  47.1878910
  68.7887045  33.5079458  46.7224634  13.0672371   5.3331202  29.0261698
  13.7838066   4.6990988  28.9982915  13.2330668   5.8473974  29.8162651
  52.3023411  68.9986383  59.5563173  51.5651668  68.9719544  58.9463234
  52.5479060  69.9229957  59.5949602  36.8062778   5.5314108  54.3328977
  36.6517647   5.5243250  53.3882773  37.6454969   5.9803268  54.4349599
  76.3694310  34.0972708  19.6346354  77.0382094  34.4461487  20.2239156
  76.8581700  33.5684537  19.0039861  33.0743718  19.6791220  40.1105213
  32.2913599  19.5387876  40.6429005  33.5831261  18.8752413  40.2162504
   8.2906004  72.2865310  24.1833043   9.2357942  72.1904205  24.2999411
   8.0404874  72.9685867  24.8065805  60.1015544  57.3746239  42.5736332
  60.2960449  58.2093512  42.9998207  60.0078910  56.7531727  43.2956171
  62.8772402  53.1885742   5.4971915  62.0376444  53.4669040   5.1313478
  62.8658497  53.5137580   6.3973904  38.4121251   6.4739686  23.4551620
  37.6499200   6.6850406  22.9159713  38.9470410   5.9051317  22.9015160
  28.1372547   5.4771781  51.4722157  28.6842966   4.7805491  51.8350983
  28.1609535   5.3321767  50.5263567  19.8719895  19.7893620  51.3012981
  19.1207004  20.3432560  51.5134239  20.0371051  19.9548912  50.3730869
  53.9681387  67.9324554  51.4005232  54.1919853  68.1600724  50.4981279
  54.2466096  67.0214270  51.4938641  30.7453370  21.9253826  35.7557344
  31.1183810  22.6392817  36.2728596  30.7109690  21.1841750  36.3604355
  38.3626461  10.8431005  30.8896923  39.2081714  11.0365081  31.2945533
  38.5837913  10.3693366  30.0878978  26.8056440  42.9110813  26.2027383
  27.2524071  43.1852436  27.0036578  25.9419703  42.6219845  26.4972234
  27.2299051  58.6411381  13.6363804  27.4626088  57.8503561  14.1229498
  27.0602441  59.2971373  14.3124819   0.9819399   8.0301589  17.9860902
   0.4624733   8.3868486  18.7066174   0.4639237   7.2949708  17.6583874
  61.8474790  61.3875386  47.4282372  62.6441379  61.2637350  47.9442215
  61.9695302  60.8280369  46.6612339  51.2997404  69.2272835  12.4547148
  51.8540953  69.9642165  12.1980977  50.4646015  69.3919663  12.0169318
  14.8379171  34.1196203   6.6066533  15.1486957  35.0134873   6.7503458
  13.9118028  34.2204809   6.3867211  41.1592102  16.7328167   1.1255269
  40.6377649  16.0426855   0.7155955  42.0668125  16.4666820   0.9783381
  34.5435596  20.0306058   6.7839652  34.6940804  19.2112279   6.3125908
  35.4182386  20.3981638   6.9107234   9.3099374   9.4047719  57.8597736
  10.1003075   9.2336315  58.3718872   8.6063254   8.9910311  58.3597565
  47.7273750  55.2068806  10.8760571  48.1467104  54.3492508  10.8063364
  46.7949009  55.0108671  10.9671783  61.2177352  49.3922758   1.2731972
  60.8641497  49.9634838   1.9550559  60.9768776  48.5088634   1.5521236
   4.4396693  58.9223862  24.1178584   3.9432693  58.1473398  24.3807793
   4.9826792  59.1285038  24.8787045  35.2156186  15.5169189  44.2337704
  34.5576644  15.3313470  44.9037647  35.9951258  15.0446451  44.5262814
   1.7101464   7.7932513  34.8501229   1.8444049   8.3559769  35.6127143
   2.4699640   7.2111124  34.8452854  51.0818366  52.3678698   0.4891169
  50.1897720  52.6924600   0.3662550  51.3781671  52.7826287   1.2993014
  40.3006462   0.6837366  20.6027293  40.9112648   0.2980207  21.2309027
  40.6124882   0.3821761  19.7494721  49.0588065  21.0369321  49.2874372
  49.5360895  21.3623211  48.5241843  49.4366332  21.5128955  50.0269890
  24.3342495  24.0758491  51.7052698  24.7291183  24.5854092  52.4128389
  24.8663092  23.2816553  51.6562748  20.3033352  12.9725027   4.7439978
  21.0799217  13.2669866   5.2198398  19.7776902  13.7643003   4.6300456
  68.7882125  69.1008584  42.9531956  68.2525134  69.4275789  42.2303486
  69.0200102  68.2086705  42.6953173  35.5516624  11.0004652   4.6614879
  35.5192685  11.8859041   4.2992988  36.0967851  11.0816145   5.4441041
  38.7053919  13.9977670   7.7783900  38.9467788  14.4512606   8.5860455
  38.8031816  13.0686998   7.9869694  62.9511169  66.0647156   9.2788565
  63.1708983  66.9849541   9.4240820  62.2714476  65.8758070   9.9258435
  11.0871097  29.6375369  27.9447460  11.3052031  29.7546958  28.8693762
  10.1301642  29.6346091  27.9228830  50.6669136  74.8248574  61.4104453
  50.7530924  74.9833128  60.4703936  50.1487871  74.0223357  61.4715553
  35.2828526  19.4572830  17.1256161  35.3651381  19.1543913  16.2213385
  34.6446943  20.1694155  17.0825434  61.1588267  21.3796735  28.4332085
  60.4429404  21.8317914  28.8796687  61.0377053  21.5941882  27.5082517
   8.7035269   9.8350906  43.7425423   8.4323454   9.8862612  44.6590996
   9.0148038  10.7162237  43.5353136  16.9389653  26.9381356  33.9141965
  17.5206864  26.2966728  33.5063291  17.4305797  27.7589774  33.8864994
   7.1243179  45.5584764  26.1169696   6.3097781  46.0380983  26.2676954
   6.8571520  44.7806549  25.6272268  53.0429264  26.8403348  64.2121628
  52.7863117  26.0830924  63.6858879  52.4871751  27.5520757  63.8946747
  57.3786811   6.9875813   4.1435334  58.1070761   6.4942968   4.5208183
  57.7213887   7.8745836   4.0339518  77.9279137  72.7066524   1.2373045
  78.2536888  73.5322670   0.8788852  77.1318102  72.9485349   1.7105305
  22.2429180  24.6614361  20.9488988  21.6297054  23.9271522  20.9168363
  22.2273326  24.9467850  21.8624449  10.0286198  35.7217169   8.1530046
  10.1827741  34.9227691   7.6488727  10.8996141  35.9950733   8.4408873
   8.6702251  10.1280940  40.8781910   9.3437064   9.4509900  40.9428835
   8.4010899  10.2854526  41.7831993  35.2998376  31.0880089  26.8057227
  34.8785424  30.7283235  27.5863409  34.5734286  31.3724065  26.2510347
  25.8128500  17.8308368  14.8164558  25.8944249  18.0276072  13.8832581
  26.1727548  18.6012101  15.2560282  70.0292180  14.6267843   0.1215126
  69.3061278  15.1919830   0.3934003  70.8036206  15.0168610   0.5269418
  77.3046287   9.9997118  16.8347227  77.2856553   9.6587590  17.7289450
  76.9857653  10.8987215  16.9143545  67.3383665  56.9783853  18.0379057
  67.5751936  57.5101183  18.7977767  68.1381225  56.4984392  17.8227890
  41.7750406   7.3197550  29.2731881  41.5741110   7.9561394  28.5869861
  42.1612501   7.8406495  29.9772787  65.0814450  73.4017267  31.6539049
  65.1022541  72.5488986  31.2197590  64.5692515  73.2533895  32.4488187
  69.3056742  15.7899868  24.5512342  68.7939040  15.5188203  23.7891388
  69.8444048  15.0272822  24.7616744  22.4725103  37.3795748  30.1289248
  23.1477475  36.9821548  30.6787825  22.9244876  38.0860281  29.6675444
   7.1090132  14.1166079  30.4296494   6.4722401  14.4155514  31.0787916
   6.6514236  14.1930640  29.5923924  23.5192442  19.8793137  51.5479040
  23.9482999  19.0408921  51.7187548  22.6816678  19.8177159  52.0071459
  19.2584753  16.5405297  35.3479028  18.4476936  16.0355175  35.4097676
  19.0390396  17.2768664  34.7770381  43.1759115  38.6066417  46.6574872
  42.5747224  37.9900639  46.2395942  42.6052757  39.2508685  47.0765066
  23.2288957  17.0691836  15.2897453  24.1691732  17.2151303  15.3937197
  23.1476021  16.6223633  14.4471455  31.4413166  11.6856110  23.0069923
  32.0938730  11.0643780  23.3302116  30.6471038  11.1628854  22.8964591
  60.2143232  12.7917945  12.5131035  60.8336846  12.4084818  13.1341469
  60.3588799  12.3069525  11.7005372  43.6814552  68.7609808  28.9950252
  43.9120370  69.6536915  29.2521834  43.0263340  68.8718651  28.3060002
   2.9879552   4.2317536  18.7736166   2.3894121   4.1491243  19.5160115
   2.4484050   4.0348446  18.0078852  34.9122453   2.5114250  38.4994173
  34.4139338   2.1181133  37.7830195  34.8470736   1.8769124  39.2131233
  31.6817379   4.2073661  26.6127443  31.1725450   3.3969247  26.6009045
  31.0690641   4.8795456  26.3143492  72.6082364  35.8020186  14.4519067
  72.3006842  35.2491903  13.7335587  72.8958378  35.1837921  15.1237035
   0.3120515   8.8259470  55.1506042   0.5145098   9.3144679  54.3527412
  -0.6191051   8.6177617  55.0742006  33.9100122  12.9762912   6.1158526
  34.3052983  13.6557424   5.5696601  34.6522641  12.5568867   6.5510452
  21.1831351  60.1802681  31.9916153  21.2752601  60.0691126  32.9378653
  20.3862115  60.7002793  31.8880033  13.3671840  74.0442940  45.1660359
  13.4196766  73.0901500  45.1104975  14.2773279  74.3300578  45.2448356
  58.8257140  63.8079749  15.7039046  58.3799028  63.1193946  16.1972010
  58.1194872  64.3707322  15.3864455  55.6511861  64.5654760  29.2410326
  55.6594473  64.5511709  28.2839751  54.7899215  64.9161677  29.4679046
  64.5702282  53.9108467   1.9089182  64.0725294  54.5206594   1.3642533
  64.9921945  54.4654083   2.5651479  33.1832576   7.8235435  10.4762459
  33.9676404   7.8319585   9.9276960  32.8074574   8.6974812  10.3702283
  51.9699572  70.0144018   9.0385205  51.7120504  70.4412373   9.8555440
  51.2521262  69.4109945   8.8465571  76.8504216  26.7367697  46.7223501
  76.9566763  26.2061477  47.5118923  77.6439404  27.2707081  46.6840267
   1.9666867  31.9812489  21.7866564   2.1054761  32.9122925  21.6130853
   2.8308254  31.6523600  22.0343041   6.9708359  32.0795131   0.6238512
   6.6423327  32.8857183   0.2259159   6.8579674  32.2136283   1.5648644
  37.9053593  31.0695648  27.0811677  37.8638768  30.2995300  27.6482296
  36.9974303  31.2241793  26.8204117  19.5414197  37.9371524  23.5308719
  18.8757014  37.2715783  23.7042570  19.8212409  38.2278442  24.3988752
  48.6645111  68.3560585  10.9786510  48.0760708  67.6588623  10.6890166
  49.5372170  68.0517893  10.7295787  50.0559588  59.7718116  58.9863295
  50.6242343  59.0282604  58.7852675  50.0561829  59.8218342  59.9422214
   0.4837157   5.6877798  48.3615255   0.3461787   4.7474396  48.4758759
   1.4352605   5.7905865  48.3465338  15.2732146   1.9872351  37.4758244
  15.5346882   2.3224290  38.3334422  14.4549799   1.5188077  37.6410508
  76.0368074  38.5753989   8.1787115  76.7212928  37.9166555   8.2960463
  75.7647342  38.4781790   7.2661567  38.2509041   9.8485094  41.8248796
  38.6971855   9.0297276  41.6088676  37.8894830  10.1512885  40.9918547
  43.5760832  44.7024822   6.6043133  42.8863621  44.0439987   6.5211618
  43.1417894  45.4547739   7.0064080  78.9906400  14.4512379  51.4814997
  79.6422579  14.3682885  52.1777391  78.1838912  14.6935225  51.9361305
   9.8386937   6.4034265  17.3742568   9.3719709   6.3351882  16.5413427
   9.2267346   6.0523838  18.0211782  16.7288983  52.5773191  16.6890216
  16.1494803  53.3297682  16.5693057  17.5252295  52.9465818  17.0707726
  47.1917776  12.5326967  43.7790918  47.2071127  12.6625705  44.7273159
  46.7811493  13.3260548  43.4352922  43.8583517  17.2993469  15.6706285
  44.4138384  18.0695021  15.7911658  43.2037878  17.5742650  15.0286043
  19.6423896  34.9355216  59.5865584  20.5940207  34.9030487  59.6844143
  19.4550957  34.3343478  58.8656265  55.7917911  66.0852669  46.6793633
  56.4677259  66.5659778  46.2015963  55.5539194  66.6633074  47.4042892
  71.9821773  26.2119293   8.5674745  72.8944597  26.0129380   8.3568186
  71.5015683  26.0107088   7.7645063  37.8411698   8.6453813  14.7801054
  37.7193546   7.7438277  15.0777531  36.9824386   8.9056820  14.4468534
   1.9188395   6.9907022  30.6095052   1.8830884   6.0800183  30.9020948
   2.7489436   7.3204303  30.9536552  68.1483535  49.3248844  29.3895102
  68.3037189  49.7155046  28.5295630  68.8423995  48.6726856  29.4852495
  19.8333108  17.7309179  31.2342691  20.4901099  17.0914316  31.5097737
  19.0770674  17.5537109  31.7936659  50.8492599  70.4930334  42.5903606
  51.2708101  70.8955018  41.8310547  49.9597287  70.2983819  42.2952747
  32.8358507  31.7432189  11.1699581  33.7748098  31.5683389  11.2332392
  32.7539968  32.3477912  10.4323781  10.1485085  32.4402523  47.3037100
  10.2823973  33.2147884  46.7574501   9.2253286  32.2183013  47.1824312
  66.8318025  34.7796321  62.7542353  66.1737124  34.3584609  63.3071899
  67.5141207  35.0591707  63.3645868  62.3835321  65.6697914  61.0116136
  62.5568028  66.4126250  61.5898931  62.8286811  64.9323532  61.4290610
  65.1932180   2.6822970  60.5219290  65.6591952   1.9035051  60.8261985
  64.2691147   2.4342011  60.5486691  47.6232767  10.1814318  16.3483429
  48.3558655  10.7876587  16.4580488  47.1101904  10.2781081  17.1506059
  12.5433028  18.8095701   4.9674445  13.2476258  18.8882160   4.3240350
  12.1135354  19.6648121   4.9578500  47.1440367   1.0196059  32.1002746
  46.5095047   0.9764749  32.8156352  46.8317083   1.7346682  31.5458655
  -0.1041573  12.3309088  27.0174265   0.6100873  12.2324944  26.3878226
  -0.3054546  13.2666445  27.0069337  29.3346456   9.3915868  11.8706107
  30.2174047   9.4496721  11.5051007  29.0256409  10.2971971  11.8954706
  24.4217920   1.4493410  26.5094137  25.3166151   1.2432024  26.7796469
  24.5015502   2.2697052  26.0227180  14.3424463  33.6638260  58.8904619
  15.0459588  33.0766296  59.1670513  14.7948015  34.4313884  58.5405302
  25.2793479  59.7450018   9.3888193  24.8602057  58.8872385   9.3195868
  26.2156224  59.5511341   9.4339216  23.6252522  39.8020935  28.8431191
  24.1119099  40.6246042  28.7895322  24.2559934  39.1729808  29.1932845
  34.6123171  13.8846350  16.9917309  33.8803768  13.8994646  17.6083958
  35.3926444  13.9085531  17.5455773  71.1051834  49.3739937  37.6151347
  71.5269923  49.6784280  36.8116236  71.0691214  48.4221266  37.5208831
   6.5047189  73.5414243  13.2111597   7.1541377  72.8970642  12.9295754
   5.9479805  73.0664794  13.8281691  25.7249852  70.7179193  18.4698808
  24.7987624  70.4830082  18.5260606  25.9817620  70.8977221  19.3742967
  37.0606923  15.8213377  51.7296362  36.1150694  15.7332504  51.6101742
  37.1964931  16.7561102  51.8845224  14.1921735   2.4511831   4.8070362
  15.0962555   2.1370116   4.7942191  14.0008307   2.6675245   3.8944486
  35.5968237  31.6447401  11.6917229  35.9054875  32.4280238  11.2362862
  36.0628748  31.6544938  12.5277448  60.6129531  61.2133934   3.9704716
  61.4569930  61.5949752   3.7291777  60.6740645  61.0750987   4.9156582
  21.6564441  32.3563981  16.6250718  22.3327184  32.0714545  16.0105050
  21.2091327  31.5494633  16.8800247  39.5974898  22.1358347  18.1543970
  38.7892938  22.6459789  18.2073295  40.2251625  22.6256943  18.6857128
  76.3135154  15.4709578  41.5260124  77.1709476  15.0902236  41.7159653
  76.1042920  15.1621246  40.6444883  12.5357652   4.0526441   6.5662497
  12.7284384   4.8430234   6.0618603  12.8477693   3.3348566   6.0151899
   4.8864663   3.3268118  46.4505863   5.1827991   3.7834078  45.6632233
   4.4140279   2.5624722  46.1207056  19.9217534   8.6839598  22.5739861
  19.6589351   8.4635586  23.4676194  20.8776879   8.6364776  22.5868678
  32.9153323  25.5359316  27.1642733  33.4191179  26.1726665  26.6573238
  33.4156322  25.4235578  27.9725456  47.4846083  52.2681950  14.9478447
  46.6405815  52.6597689  14.7230804  47.2641462  51.5431999  15.5326617
   4.4249815  23.7871695  12.2571945   4.9456012  23.1587005  11.7569792
   4.8272684  24.6350741  12.0689106  18.3526812  42.0968978  18.5808241
  19.0609662  42.4265041  19.1339266  18.5484747  42.4422159  17.7098143
  73.5578465  48.0265735  50.0294876  74.3957448  47.9509281  50.4860353
  73.5796428  47.3311661  49.3720961  41.9105959  65.1786248  30.1521230
  42.4450970  65.8752184  30.5333042  41.6486859  64.6413569  30.8997726
  32.5938153  66.2754159  58.2181740  31.7268228  66.3469534  57.8188753
  33.1477725  66.8529658  57.6930094  21.3060228  55.5814626  16.3960993
  21.3913367  56.3646295  15.8524096  21.5203223  55.8791663  17.2802222
  17.8861773   4.9293226  58.0151796  18.7652576   5.3080410  58.0105734
  17.3644328   5.5413508  58.5342503  23.5542583  19.0314937   2.6851347
  23.2217479  19.7816980   2.1923254  23.5588050  18.3126926   2.0530456
  21.7686701  14.2146242  37.4130678  22.1398687  13.6840189  38.1179810
  22.5220442  14.6624362  37.0281982  26.7074684  66.2585618  16.4155161
  26.3078820  65.4012491  16.5624201  26.3220904  66.5649368  15.5946314
  11.6633034  56.5336895  15.8322406  12.6135170  56.4577246  15.7453239
  11.4650476  57.4194574  15.5283654   9.5244944  29.3556905  37.3788309
   9.0666914  30.1385427  37.6850820  10.3231847  29.6896648  36.9704366
  18.9306831   6.0547048  45.6152916  19.5566034   5.6854248  44.9923229
  19.0966296   5.5814308  46.4305830  34.4465971   2.4333008  33.7612510
  35.1182294   3.0214378  34.1065550  33.9251375   2.9826152  33.1759572
  57.1877245  70.8157517  13.8269722  56.2512425  70.7207300  14.0007746
  57.4175791  71.6626026  14.2093909   1.3172813  19.1034244  59.7167844
   1.9906446  19.3176482  60.3624791   0.5322667  18.9324163  60.2371121
  32.5330257  17.5898564  45.1641846  33.0400515  17.9699934  44.4467926
  32.7558541  16.6590941  45.1480484  10.9800053  29.0877390   9.0713286
  11.8871033  29.3027973   9.2884761  10.5125773  29.1523743   9.9041349
   6.1063677  14.4000876  34.6394682   5.2121890  14.5480132  34.3315816
   6.2295651  15.0448859  35.3360963  16.9880649  74.1887981  33.1648993
  17.8657790  74.4382765  33.4540510  16.8889543  73.2820784  33.4551883
  17.4448156  12.9443884  46.1656809  17.4922395  13.8245773  45.7925177
  18.0058467  12.9821038  46.9403124  73.0659862  21.7927322  56.9917059
  72.6320120  22.6430079  56.9214952  73.1787439  21.6583535  57.9326946
  55.4078432  36.0769649  59.9191410  56.0780903  36.5450056  59.4212073
  55.5652924  35.1533334  59.7233197  17.9244161  17.8212786  46.7238569
  17.1589935  17.7895248  47.2977495  17.9428267  18.7213826  46.3987303
  19.1038990  39.4797897  32.6525307  19.9427581  39.9159861  32.8017926
  19.3388641  38.5802364  32.4248695   9.9901474  13.5962296  29.1156125
   9.2183000  13.3213258  29.6104980   9.7021306  13.5955536  28.2027721
  31.9103336  25.5081129  21.4851594  31.0044861  25.4442191  21.7877936
  32.3923802  25.8431554  22.2412086   6.7898291  34.2070699  35.0479913
   6.8892372  33.4816766  35.6645584   7.1678424  34.9604607  35.5015779
  77.6101351  67.4167763  45.2876091  76.8760705  67.2036408  44.7114515
  77.2646332  67.2927074  46.1716127  33.3629680  54.6989346   2.5678775
  33.1560135  54.7346926   1.6340023  33.4663630  55.6149864   2.8255370
   2.6763034  14.5680726  35.8300352   2.6997164  13.9747250  36.5807819
   2.1007124  15.2812517  36.1062622  75.6080527   6.6323221  64.5604515
  75.9388406   5.7755744  64.2906475  75.4564256   7.1000111  63.7391663
  46.0684443   7.3081219  19.4240046  46.0461950   6.3629937  19.2741048
  46.9955969   7.5383818  19.3640208  22.8917003   8.9457601  28.5535216
  23.4379125   8.5771233  29.2477775  23.4741759   9.5402086  28.0806708
  46.7041427  72.6410775  18.0423069  46.5413338  72.2190760  18.8858938
  46.9702995  71.9260810  17.4642313  20.9569979  10.8656096  29.4832659
  21.5922809  10.1605523  29.3586016  20.1486659  10.5311346  29.0947318
  26.2478566  17.3660529  18.1012082  25.3511500  17.6943862  18.0352795
  26.3598251  17.1599376  19.0292227  31.2239242   1.3765538  18.0332446
  31.2836218   1.7445943  17.1516478  30.7305717   2.0279108  18.5318112
   9.0013760   5.3567541  19.7207296   8.4145004   4.8180792  20.2514243
   9.2810386   6.0577255  20.3095078  16.7573063  63.0081340  49.6289492
  16.2514917  63.4829995  48.9694870  17.6668827  63.2477066  49.4514573
  15.3228509   0.4502613  46.4905119  15.0111175   0.2409183  47.3709822
  14.5447803   0.7631184  46.0290337  55.4179439  73.2855126  59.4625378
  55.2371745  74.0972170  59.9365520  55.6309706  73.5696057  58.5736370
  63.3133241  67.4220773  57.3049551  62.7372952  67.1800920  58.0301208
  62.7191826  67.5960561  56.5749121  15.6654549   4.3474001  56.1131001
  16.5879345   4.1068006  56.1989880  15.4211366   4.6728092  56.9794989
  78.8516068  67.3857461  27.5914407  77.9148793  67.2049819  27.6695442
  79.1585874  66.7740809  26.9222164  20.3961134  32.7998900  38.8158417
  20.0009346  33.0207014  37.9724503  20.9699130  33.5403252  39.0126705
  49.1010618  17.7907467  23.8759208  48.2018471  17.5677991  24.1166282
  49.6166754  17.5798237  24.6543074  71.8293742  19.0708876  33.9110112
  71.5912024  18.2244587  33.5327721  72.4013803  18.8520622  34.6466446
  29.2096543  17.3899031  26.0800052  28.6008978  18.0171227  25.6898189
  29.9169874  17.3125947  25.4397440  19.5992589  20.4789042  18.6506104
  19.5275819  19.7393274  18.0471885  18.9498746  20.2974844  19.3300354
  50.6719869  71.4258881  49.1275072  50.1740831  71.4841570  48.3120775
  50.1859781  71.9729997  49.7445154  30.4893236  23.6750206  59.5345527
  30.9484240  23.5247072  58.7081969  30.9086596  23.0774447  60.1536584
  38.0159903   3.4078416  45.3374195  38.1557083   4.3412054  45.4972410
  38.8974667   3.0364782  45.3011227  22.7699018  30.8080149  22.0034289
  22.2474623  30.9946179  22.7834725  22.9762959  29.8757601  22.0707679
  50.6855889  73.1957828  21.4654255  51.5055530  73.0378673  20.9975004
  50.9140333  73.0954865  22.3895383  71.4312080   2.6997983  42.0108366
  70.6625453   2.5784212  41.4534664  71.2826619   3.5403684  42.4439716
  37.8584671  25.8980489  22.3370528  37.7046394  26.2447548  23.2158947
  38.0603337  24.9728298  22.4765229  68.0981914  40.0077629  43.5695553
  68.7600414  40.0770140  42.8815174  67.3130707  39.7001648  43.1165600
  19.2100072  33.0341315  29.1615152  20.0665927  32.9174614  29.5724678
  18.6118460  32.5209785  29.7047520  18.5279226  52.7506924   5.6666833
  18.8132536  53.2692194   4.9143878  19.3370306  52.3913908   6.0306597
  47.3876115  11.1829111  61.7018855  48.1424566  11.4488312  61.1767906
  47.3928138  11.7812654  62.4489972  49.2993307  13.4112585   5.1912344
  49.6690607  13.0643594   4.3793273  50.0318575  13.4108090   5.8073807
  23.5186887  10.1595032  14.7001493  23.8142061   9.3768102  15.1652217
  22.9972053   9.8226166  13.9715934  23.5609555  22.7316713  11.5459871
  23.8419175  23.0890441  12.3883498  24.2051482  23.0609775  10.9192479
  65.4064906  53.3754276  62.3580933  65.5793548  53.1176041  63.2635641
  64.7456264  52.7533530  62.0539379  31.7468524  21.6581821  22.8828573
  32.1819806  21.1562133  23.5720062  32.1717668  21.3727808  22.0740151
  11.4922893  24.4986820   8.1606084  11.8143606  24.7875285   9.0144646
  11.3396132  25.3095412   7.6753980   5.1088917  40.4132843   1.7686437
   4.3875086  41.0234880   1.6153765   5.7079607  40.8900833   2.3431095
   1.8726393  52.2264741  60.3963852   2.5534340  52.8404330  60.6717062
   1.2243148  52.2564529  61.0999537  73.0800247  52.5244950   9.4572467
  72.9417777  52.7291058   8.5324478  73.8712692  51.9859265   9.4677097
  68.0926947  22.0436740  42.4424982  67.9777936  22.6297832  41.6944981
  69.0388886  22.0202971  42.5853348  16.3688374  41.5467262  22.9343367
  16.8243444  41.3328171  23.7485766  16.4727104  42.4939251  22.8434992
  24.6809149  37.0165491   0.8405588  24.8020697  37.3744464  -0.0389086
  25.5687976  36.8409109   1.1520782  37.1021605  20.7077503  19.5042217
  37.5054407  21.5674448  19.3837321  36.5764475  20.5770779  18.7150562
  24.8316336   8.5718948  16.3749754  25.5848980   8.2216233  16.8505120
  24.7219229   9.4581866  16.7194784  17.1205942  46.3208905  64.3353333
  17.4264566  47.2210279  64.2238460  17.8644507  45.8617326  64.7253081
  36.6886520  25.4887509  28.7416053  37.2092390  26.0708332  28.1880689
  35.8412194  25.9269381  28.8195753  52.8171015  23.7202358   4.6781746
  53.6617517  23.6565733   5.1239812  52.6630211  22.8418565   4.3304092
  44.9690866  15.7063460  11.1341870  45.1346016  16.3519859  11.8211997
  45.8246708  15.3118753  10.9650695  53.4384441  42.4110126  14.0657866
  53.2076311  43.3146858  14.2810500  52.7569675  42.1285486  13.4558415
  37.2422528  39.7934985   9.5146507  38.1302166  39.5697665   9.7933906
  37.0555329  39.1857123   8.7991363  32.9224682  39.3906832  14.3446338
  33.2620192  40.2687407  14.5177007  32.5751495  39.0978312  15.1871538
  21.1480904  13.5038793  41.0805273  20.5406785  14.1211784  41.4882278
  21.8037009  13.3312953  41.7562628  37.1059012  53.8175821  21.2635088
  37.5284386  53.8888979  22.1194339  36.8165302  54.7079897  21.0643220
  30.7936859  54.8528337  28.1508040  30.7039094  53.9098740  28.2886457
  31.6489959  55.0688362  28.5223150  46.8313221   4.6236803   4.7409338
  47.4161700   4.1434337   5.3270632  47.2566275   5.4727985   4.6211365
   9.5126534  23.5939503  33.4631538   9.7132349  23.5714674  34.3988323
   8.8731426  22.8927445  33.3383775   2.4875542  65.1896618  18.6495566
   1.7916533  65.4780702  18.0589855   2.9714366  64.5339929  18.1473744
  25.0309467  59.1311550  30.4522777  25.9239030  58.8207912  30.6023908
  24.6832585  59.2936230  31.3291764  37.3004723  48.3879185  26.1410069
  37.8794718  47.6271725  26.0935092  36.4654183  48.0754709  25.7927370
  33.3343649  26.0923100  55.7363510  34.2180562  25.9329963  56.0679293
  33.0165267  26.8354917  56.2490845  78.3210522  34.7152495  21.5309048
  79.1031346  34.7448325  20.9798098  78.6590835  34.7113419  22.4264216
  18.6142874  70.7848406  22.7498412  18.4751499  71.4649153  23.4089112
  18.9399469  70.0337076  23.2458067   6.4129615  28.5081911  39.0216136
   6.4628869  29.2065287  39.6743512   6.2687296  28.9648676  38.1928349
  31.9269204  41.4012480  36.0878158  32.6224303  41.2492323  35.4479790
  31.5783596  40.5295038  36.2743497  39.5621777  40.4833603   0.1062330
  40.2968073  39.8736382   0.1754242  38.9562917  40.2074051   0.7939698
   3.0672451   1.0410855  61.6585109   2.4844810   0.7988904  62.3782048
   3.9435454   0.8235357  61.9763211  71.7678845   6.9929479  58.7113977
  72.3669314   6.4032910  59.1692996  70.9880113   6.4625524  58.5479695
  45.2589083  22.7735901  12.3518014  44.5043373  22.5269151  12.8865945
  46.0088634  22.6836419  12.9397738  19.6927607  15.4371119  42.5008583
  20.5699730  15.5959177  42.8494453  19.1178489  15.9757340  43.0445433
  20.9202167  73.2974765  22.6316643  21.5337678  72.7499652  23.1215763
  20.4100343  73.7471973  23.3052325   2.2291609  69.3532090   3.4884030
   1.5778299  68.6875253   3.2673502   1.9994112  69.6275993   4.3761849
  43.2023843  59.3374654  59.4799370  43.6410042  58.6807009  60.0207734
  42.9933198  58.8774535  58.6669719  32.0859313  10.6208181  34.9227309
  31.9393015  11.3252592  35.5539942  32.7603722  10.9620488  34.3354297
  30.7104158  42.1867990  28.1462002  31.1342335  43.0144978  28.3732009
  29.7892046  42.4154615  28.0224276  45.9008809  10.4275535  57.8278959
  46.0475131  11.3676189  57.7229470  45.3588220  10.3559421  58.6135656
  65.6255674  32.9376936  23.4622598  65.2149868  33.7625885  23.7214971
  65.7350063  33.0121660  22.5142550  13.8551390  34.6415639  28.8834095
  14.3949103  34.5732427  28.0958748  12.9547870  34.6247602  28.5588837
  43.5391712   3.3085775   0.4325781  43.8281202   3.3821264   1.3421552
  42.8966475   4.0103167   0.3278964  53.3374500   9.6536189  26.2707376
  54.1445732   9.4849885  26.7568946  53.5811043   9.5333177  25.3529167
  24.3380260  27.2270250  28.3280516  24.5562959  26.3731503  28.7015343
  23.4261870  27.1407866  28.0499434  33.9260817  37.3916793  12.9543805
  33.9889073  37.9061460  12.1496403  33.5715652  38.0014849  13.6014390
  14.2002916  24.9582314  26.9577146  13.5544848  24.2525959  26.9929647
  13.6809480  25.7520509  26.8297863   4.2082450  45.9484959  39.9646997
   4.9830872  46.5002537  39.8578668   4.4276983  45.3655291  40.6914902
  53.8351870   8.3983678  30.9361744  54.7375202   8.6514795  31.1310148
  53.8213396   7.4489278  31.0570216   0.3764983   1.9622515  52.5821746
  -0.4392127   2.1614216  52.1226359   1.0650178   2.1875117  51.9565320
  44.8887682  59.1760206  15.2809691  45.6143570  59.3426800  15.8826184
  44.2348099  59.8380566  15.5052006  17.7466595  18.2199538   7.7166867
  18.4754622  18.7614954   7.4136800  17.3241019  18.7454164   8.3960730
   8.6000651  32.1430635   9.6057403   7.8109384  31.7302799   9.2548555
   8.6298078  31.8637609  10.5208015  25.2311945  33.1149840  23.1114483
  24.7534919  32.8890610  22.3133302  26.1503124  33.1292915  22.8445244
  13.9500356  26.7882919   1.8169294  13.7431979  27.4531412   2.4737602
  13.1013453  26.4159441   1.5775260  11.1792433  45.2172470  36.5774345
  11.3230741  44.2751884  36.4875865  10.2933443  45.3572416  36.2430453
  21.0030031  45.5180073  18.5701036  20.1075578  45.6451988  18.2566869
  21.3503170  46.4044666  18.6690497  27.8255963  41.6799736  19.5391381
  27.9578614  41.5006590  18.6082339  26.8840957  41.5705872  19.6727157
  22.0249224  25.8795309  46.6612148  22.3543572  25.3022575  45.9724045
  22.6140451  25.7304263  47.4007654  11.1636460  42.2479582  59.5098019
  10.9167111  41.9126701  58.6479187  10.4846513  42.8887081  59.7210741
  19.1378844  24.0180302  49.0986204  20.0881314  24.0675712  48.9946604
  18.8712406  23.3000445  48.5244846  67.6601151  54.2159796  16.7501414
  68.1731991  54.2528009  17.5573707  67.9080144  55.0075531  16.2724543
  24.6001983  53.0340672  25.9758759  24.0818930  53.8368845  26.0312867
  24.5864463  52.6782942  26.8643951  65.6937496   9.8301482  21.3354969
  65.3412942  10.6890976  21.1026621  66.2995664  10.0069153  22.0551991
   7.8006536  44.6747923  53.7768364   8.6508572  44.9591780  54.1122627
   7.8219885  43.7205029  53.8483477  39.9554253  18.9153874   1.9424854
  39.3140483  19.2477179   1.3144536  40.1017523  18.0072916   1.6775651
  67.3882929  41.9384861  39.9142289  67.6394287  41.2506819  39.2977166
  68.0232815  41.8650293  40.6267071  32.8799319  20.3350568  20.0675249
  33.7859249  20.0826502  20.2455640  32.4143696  19.5042777  19.9711394
  44.2358903  20.8366108   6.9467175  44.2349581  20.0279260   7.4588311
  44.3274788  21.5322924   7.5977707  10.4420567  57.9321098  57.2674656
  10.3979790  58.1651115  56.3401031  11.2753522  58.2960129  57.5665092
   9.1259090  47.7511295  57.8290236   8.9823620  48.1874045  56.9892073
   9.1260044  48.4612319  58.4708852  20.3316476  63.0936047  56.1079937
  20.9165784  63.8280579  56.2941903  20.7594897  62.3384043  56.5115446
  74.4056607  33.0067062  14.1053522  74.4684152  33.4701157  13.2701600
  73.4899232  32.7333188  14.1593564  38.2624888  61.1609411  15.1545620
  38.2703781  60.2571106  15.4696167  38.1040740  61.0852146  14.2136037
  25.7433248  70.9116936   1.7739762  24.9886322  70.3804445   1.5201113
  25.4366541  71.4201212   2.5247663   4.2475000  46.6040468  13.4299362
   3.6996803  45.8214664  13.3691752   4.3965155  46.7198324  14.3683505
   4.9567750  26.9512463  30.8768034   4.6007115  27.8038597  31.1268091
   4.3040985  26.3205957  31.1809826  14.4830458  67.1149608  55.2097333
  15.3345577  66.9515845  54.8041892  14.3990938  66.4311573  55.8742583
  28.9583421  17.5731850   5.6423610  29.0262914  16.7328429   5.1891053
  29.7801590  17.6511085   6.1268991  32.1950173  38.0536509  24.6284366
  32.2066808  38.8044667  25.2220464  31.4093184  38.1808925  24.0967226
  36.3077470  60.1041018   3.2090002  36.8652793  59.8439060   2.4757300
  35.4585334  60.2920006   2.8092924  47.0635458  47.3639783  63.8923878
  46.6323205  48.0744895  63.4175723  46.7663284  47.4651977  64.7966268
  32.5163555  45.6702709  25.4683471  31.6060758  45.5560160  25.7414150
  32.5159001  46.4868498  24.9689150  13.8128209  22.8864574   6.5118802
  14.2575717  23.4592271   7.1366715  13.0234408  22.5988150   6.9705445
  27.1919322  34.6002698  36.8171883  27.0190477  35.4577136  36.4284325
  26.4760470  34.4705725  37.4392152  78.0253787  21.4603448  17.5799215
  77.3333750  21.9877338  17.1808934  77.9798385  21.6714358  18.5124433
  73.1441069  34.9831533  29.5475912  73.0165958  35.8702803  29.8837209
  72.7245617  34.9903965  28.6872625  51.7433834  49.9334240   4.0834510
  51.0797787  50.2071381   3.4502506  51.5597486  50.4562235   4.8639587
  33.4713650  25.7934427  13.5068297  32.8049707  26.2645888  14.0070009
  33.2965350  26.0272980  12.5952506  47.9514456  44.7491026  15.7748604
  48.0365133  45.4573393  16.4131343  48.8532352  44.5129871  15.5574763
  45.1242638   8.5886812   3.5291296  44.6690559   7.8146040   3.1977344
  45.9541130   8.2521093   3.8672179  33.5807991  13.9030612  21.9097948
  33.3168888  12.9830170  21.9199467  33.8117099  14.0960360  22.8184581
  16.8548727  23.7388301  42.3962784  16.8637466  23.0940938  41.6888380
  17.7592540  24.0477324  42.4501705   0.3679625  45.0625753  21.6021013
   1.2783171  44.8937607  21.8449783  -0.1460619  44.6255922  22.2811127
  16.4716756  47.4578714  11.8864977  16.1007023  48.2086611  12.3500943
  15.8532262  46.7458582  12.0501781  51.3523865  37.9624939   9.9000543
  51.7972803  37.1149659   9.9012887  50.9502888  38.0231857  10.7665789
  43.5464859  30.3548813   6.1686808  42.6983356  30.7008839   6.4464569
  44.1584826  31.0765839   6.3130236  12.1469831  48.7929487  17.2131801
  12.4997985  47.9205751  17.0379162  11.9435823  49.1473866  16.3475978
  69.2547846  59.2593050  27.1039796  68.5811377  59.5541000  26.4911771
  69.4017792  58.3415890  26.8750286  43.2015800  46.9414949  24.5440745
  42.8587627  47.8065062  24.3194413  42.6395035  46.6389227  25.2573419
  46.7492076  66.1012408  62.2376359  47.1205040  65.9344813  63.1039858
  45.8026036  66.0442015  62.3677193  18.4801602  35.6975269   6.4674658
  19.2892766  35.9554768   6.0258484  17.7833080  36.0720420   5.9286088
  22.5152516  21.2865688   6.3428962  23.1996656  20.7900287   5.8942783
  22.0558953  21.7486526   5.6416845  72.7256945  36.1664081  34.6539378
  71.8271510  35.8458066  34.5760512  73.2624415  35.4683495  34.2786431
  41.7198133  43.7589502   9.4200957  41.9280958  44.6397543   9.1086006
  40.8077288  43.8151073   9.7050172  63.8530970  68.2272863  12.6589370
  63.9041662  67.4310398  13.1877232  63.0403519  68.6486769  12.9384029
  36.6383195  46.5942144  14.5967019  37.2438335  46.0482883  15.0982463
  36.7713857  47.4775839  14.9404836  48.8425684  60.3907967  24.6849132
  49.2651367  60.9994268  25.2909136  49.4803572  60.2720785  23.9810944
  34.5703936  53.6999130  38.0770922  34.8910666  53.1192017  38.7671447
  35.3392029  54.2052126  37.8128171  14.0972209  54.7210121  10.3292644
  15.0534499  54.6994829  10.3666294  13.8210523  53.9422035  10.8124030
  39.5777726  46.6000032   7.8630376  38.7244391  47.0238686   7.7714449
  39.7336555  46.1891890   7.0126462  16.2043548   9.1811038  19.9576163
  16.5240502   8.7360622  19.1727793  15.9954858  10.0672676  19.6621466
  75.6420946  30.3095078   9.2858940  75.1878119  30.8464026   9.9352014
  76.3853073  30.8456588   9.0094626  36.3558694   8.7933372  62.3705559
  35.9140607   9.5034001  61.9048819  36.4530107   8.1016658  61.7160470
  78.7412786   9.8911164  41.7459715  78.3652401   9.8891328  42.6262129
  79.5156526   9.3327258  41.8150747  38.9139295  35.5663252  21.1540341
  39.7418427  35.9092736  21.4904547  39.0068984  34.6154809  21.2130594
  36.9238782  42.6835537  29.4888306  36.9754052  43.3792496  28.8334060
  37.7673459  42.2350121  29.4288278  33.5346127  46.6060352  28.0635095
  34.4291162  46.7452240  27.7525163  33.1090307  46.1183405  27.3583388
  32.4742174  38.1130576   4.7562954  32.6472926  37.3981547   5.3688234
  31.8620062  37.7414083   4.1212314  17.8616977  36.2379456  25.1162767
  17.5895667  36.9224215  25.7275629  17.0468807  35.8022070  24.8664045
   3.0221792  43.5072374  34.2021346   3.8041922  42.9651690  34.3063188
   2.3924872  43.1411171  34.8231649  75.0586223  39.3647073  58.8959474
  74.7742581  38.4891532  59.1581857  75.6966901  39.2106555  58.1992632
  36.3793945  66.6925812  36.2198663  35.6110001  66.1606264  36.4267993
  36.4945149  66.5897894  35.2751899  44.2089462  36.8090868  13.3550787
  44.6925640  37.2674441  14.0422869  44.8795033  36.3271666  12.8709996
  63.6630344  37.4939823  33.1827068  64.1165876  37.4784446  34.0254879
  62.7669907  37.7530670  33.3976746  65.5117130  62.2954702  28.7491035
  66.4174795  62.0451546  28.9312124  65.0484371  62.1327734  29.5707679
  44.4044971  67.1692705  44.0069485  44.3527889  68.1084108  44.1846514
  44.9734068  66.8260908  44.6960068  53.6612940  61.7782974   9.9065739
  54.2048073  61.2192822   9.3513000  54.1674042  61.8797779  10.7126689
   7.4274393  65.9613609  10.0944579   7.8892084  65.2224541   9.6982092
   8.0882212  66.3950443  10.6343806  61.0713387  43.2577991  39.9804306
  61.2720776  42.5631714  39.3531895  60.8537626  44.0153837  39.4373298
  48.8636494  66.6448355  40.2648878  48.4755278  66.2943029  39.4631886
  48.4176397  66.1774063  40.9711552  -0.0165800  52.4630547  15.3293192
   0.3753945  53.2981110  15.0738311  -0.2231506  52.0317793  14.5001268
  62.9302979  53.3863020  18.7122238  63.3572865  54.2352724  18.5975027
  62.3381805  53.5142088  19.4533503  73.9440441  70.1560259  39.4319391
  73.0934715  69.7366905  39.3018770  74.4630861  69.8847628  38.6748099
  72.7564506   7.5740005  41.9314289  73.4867839   8.1795646  42.0584631
  71.9992093   8.1400634  41.7817879  69.4011545  49.9548960  32.4886084
  68.5540819  49.5102262  32.5197339  69.4427443  50.3296614  31.6088080
  66.1612865  48.0334971  48.1183386  66.3208171  47.0928214  48.1951714
  65.7108375  48.2671187  48.9299762  51.5649319  61.6382980  29.8820019
  51.6337395  61.9873190  28.9933634  51.2690973  62.3807907  30.4087067
  58.4459925  73.7659168   7.6145971  58.9374495  73.3901072   8.3449894
  59.1108322  73.9629745   6.9547570   8.5293528  55.0963306  40.2203226
   7.7514788  55.6493235  40.1472282   8.5459944  54.5972157  39.4037199
  45.0026989  58.6433792  30.0056577  45.6284904  59.3312740  29.7789001
  44.3978453  59.0621996  30.6180024  58.7922812  51.0885525  21.4880347
  58.0935669  50.8112097  20.8954883  58.6954117  52.0391798  21.5442276
  43.8989353  54.1630936  18.4010780  43.2993126  53.4240580  18.5035861
  43.3758640  54.8376274  17.9679179  78.0467776   9.0493919  19.6970129
  78.5341863   9.8312522  19.9565601  77.7995185   8.6357643  20.5240583
  13.3210254   5.0160457  36.3243437  12.7247739   5.3787948  35.6692648
  13.8002324   4.3306972  35.8586311  25.9690261   5.1429130   6.2548155
  26.0382295   5.3827621   7.1788907  26.8525958   5.2672197   5.9082830
  44.0721321  67.6259756   4.2510477  44.5038462  66.8091631   4.0007001
  44.2814398  67.7328873   5.1789439  30.6142378  71.3917017  20.3917432
  31.3370466  71.2648153  21.0063004  30.6743908  70.6464481  19.7940731
  62.6335382  45.8260202  18.1234932  62.4253368  46.5198851  18.7491453
  63.4760189  45.4813910  18.4196210  65.5459642  70.7196951  27.7989388
  65.4885292  71.5121746  28.3327055  66.2359571  70.2014351  28.2131243
  53.8335943  68.4086847  24.7124004  53.2530355  68.6047697  23.9770532
  53.3531094  68.7094307  25.4837108  75.5938101  37.5718403  32.8489518
  75.0842667  36.7628908  32.8021073  75.6990147  37.8418112  31.9366574
  66.9559860  73.5572433  14.2492163  67.5274038  74.2990494  14.0506268
  67.4744320  73.0056572  14.8350477  39.9243832  58.3579779  26.3947606
  39.0659451  58.4802961  26.8001628  40.5430317  58.7167883  27.0309687
  45.2224159  73.5467863  15.4741037  46.0353613  73.1869411  15.8288765
  45.3140068  73.4557295  14.5256567  16.2425256  17.8844406   5.4519725
  15.8915019  16.9980098   5.5371433  16.8193507  17.9873802   6.2088799
  40.4523210   4.3803455   4.5511860  40.5746190   3.7973119   5.3004169
  39.8180143   3.9269592   3.9959148  55.5850220  53.0163002  26.5179133
  56.2691689  53.6537170  26.7225695  54.8636246  53.2424164  27.1050119
  17.6850268  65.4821491  27.4396420  17.1459719  66.0930014  27.9421496
  18.5823198  65.6750059  27.7115083  57.2785759  53.7520599  11.6583133
  56.3827562  53.4289980  11.5614974  57.6974344  53.5510635  10.8214188
   2.1745726  24.8781776  41.3483906   1.4648768  24.7124672  40.7278252
   2.0736166  25.7995820  41.5872431  35.4960489  69.5894670  21.0717916
  35.4764009  70.2128029  21.7979431  35.9791756  70.0421906  20.3805184
  44.1930151  50.6817293  17.4495316  43.9866209  49.8899364  17.9462171
  43.4902287  51.2929487  17.6702893  69.8242331  40.5808306   0.2831060
  68.9732695  40.4286194   0.6941089  70.0770426  39.7268009  -0.0675468
  77.8254823   6.0936309  30.2042055  77.4337081   5.5046417  29.5593476
  77.7807168   6.9586612  29.7968411  64.6450663  64.4812775  25.3533840
  63.9917469  64.3032360  26.0299230  64.2847204  65.2185011  24.8605490
  43.5269642  26.1815357   1.2653373  43.6599207  26.0518885   0.3263238
  43.7840939  25.3486753   1.6608854  51.5234852  64.8770094  35.6879759
  52.2437716  64.2542601  35.5899644  51.5935087  65.1838732  36.5919447
  31.7518493  19.9961589  50.8798135  31.9944163  19.0706609  50.8506477
  30.8607312  19.9993060  51.2292946  38.3836079  30.6740785   6.3158286
  38.1549954  29.8755741   6.7916030  38.2868552  31.3737845   6.9618034
  57.0992708  74.2655659  51.9929123  56.8824148  73.6582422  51.2855482
  56.3449335  74.2275286  52.5809240  66.9242859  57.3479223  33.3315277
  66.8401146  58.0526781  32.6892924  66.2689781  57.5522852  33.9986420
  67.0362520  63.5448170   3.2992807  67.6774502  63.2833958   3.9601526
  66.3333988  62.8999615   3.3792168  43.8107491  57.0921326  11.1157191
  44.3502760  57.3367357  10.3638470  44.0190125  57.7461767  11.7828643
  35.9549924   0.7568119  56.4380509  36.7705842   0.5976174  55.9629679
  35.8025428   1.6970847  56.3438291  56.3442945  60.3649950   1.2275983
  55.8053446  60.6068945   1.9807598  57.2213125  60.6770039   1.4505696
  70.7953358  55.7138252  25.6340528  70.5024576  55.0432777  25.0169468
  71.1549854  56.4074850  25.0811338  36.8062568   9.3637992  21.0886717
  36.3514781   8.5998966  21.4434385  36.1878085   9.7417404  20.4634428
   4.6100088  25.6873725  57.1243155   4.3419262  24.8170302  56.8295932
   4.6060463  25.6284926  58.0796945  38.3411741  62.1333885  36.9921136
  39.2268705  61.7850590  37.0942807  37.8373647  61.4043903  36.6302180
  57.8231812  62.7996254  24.8945141  58.4180546  62.1069098  24.6072769
  57.0507526  62.3341990  25.2154016  44.7973271  13.6993049  56.6359693
  44.3318912  13.4839461  57.4441886  44.2300817  14.3310569  56.1939800
  52.6726198  24.8182607  26.5138555  53.1468058  25.6481385  26.5655828
  53.1796169  24.2907786  25.8966446  56.2806515  35.2467898   8.7200272
  56.7345051  34.4875220   8.3542979  56.0201458  34.9698809   9.5984852
  47.1338511  66.6843081   8.3819300  46.9507647  66.6725874   9.3213844
  48.0005360  66.2859678   8.3018273  11.7991424   9.7215797  23.2207012
  12.3545957   9.0941669  22.7580380  12.3019910   9.9572422  24.0003419
   9.4013858  27.0397331  41.1216736   8.5826898  26.6410877  41.4167118
  10.0835919  26.5658046  41.5972996  68.2220984  40.3640938  16.9097364
  68.2216454  40.8980656  17.7041578  68.4785986  40.9696817  16.2142467
  68.5841846  51.0099649  20.2769685  69.0866613  51.6780901  19.8107541
  69.2414761  50.5107498  20.7617140  17.9145571  35.1779413  37.5946045
  18.8148447  35.0779390  37.2852254  17.6671358  36.0637450  37.3293352
  14.4442630  18.2903530  17.4660325  14.6986318  17.4864627  17.0129454
  13.5778022  18.0990364  17.8250301  21.8097377  70.8790731  38.8674927
  21.8834591  71.8140602  38.6761856  22.6878762  70.5323505  38.7097263
  57.7421188  49.6653509  18.7911248  58.6454630  49.9652529  18.6898327
  57.3990440  49.6326780  17.8981185  54.4209003  39.7989726  12.7674651
  54.3526220  39.8759055  11.8158078  53.5408592  39.5518637  13.0515349
  51.6315273  13.6041309   6.2652278  51.1451010  14.0365268   6.9671214
  52.3764328  14.1818000   6.0989624   2.0382162  32.0999694  17.8205299
   2.2406336  31.5975666  17.0313239   2.6200720  31.7395663  18.4896970
  51.4772034  69.3538713  32.1731591  50.7016039  69.6372414  32.6572871
  52.1974373  69.8487520  32.5637913  16.6251779  15.8853485   8.5424405
  16.9122243  16.7863990   8.3942705  16.9495702  15.6714202   9.4172180
   9.3539500  11.4949848  50.6236553   8.7690663  12.2189857  50.4001236
   8.8460136  10.7076026  50.4280567  59.3180799  54.0146255  24.5247197
  58.8995600  54.7179461  24.0283155  58.7359858  53.2630873  24.4125319
  31.9551349   5.4307987  17.3008263  31.0326743   5.4417755  17.5561118
  32.3219943   4.6758176  17.7608836   7.9529929  10.5976440  10.6943893
   8.6494327  11.1262371  10.3047919   7.9517341  10.8467723  11.6185999
  58.8448620  53.0195284  16.5406215  59.7345495  52.6665211  16.5492523
  58.4110975  52.5582075  15.8228064  47.2640800  60.4279900   1.0461874
  46.6638327  60.0338030   0.4132988  47.2369576  59.8395491   1.8006618
  76.5976906  23.5831521  48.0730832  76.7179632  23.4887193  49.0179897
  75.8271932  23.0507443  47.8753197  73.5261869  45.9862804  48.3937359
  73.4064960  45.6354094  47.5112391  72.6366615  46.1155891  48.7227535
  33.8155055   4.5490695  31.2376213  34.5975089   5.0759365  31.0729456
  33.1975722   4.8187257  30.5581594  60.5486059  43.7230110  33.5044909
  60.7230663  42.9489279  32.9691482  61.1457682  44.3891716  33.1641030
  54.2298126  55.3779697  21.4641166  54.2613077  56.2577963  21.8398046
  54.8877525  55.3906584  20.7690001  58.1828976  66.0801601  17.6092422
  57.6186371  66.3642025  18.3283818  57.7590799  66.4230680  16.8224609
  72.6074553  47.4152517   9.6594667  72.9416132  47.7088261  10.5070412
  72.8609562  46.4936495   9.6082479   9.3759628  41.1287568  56.7815101
   9.4685527  40.2155135  57.0528925   8.5547300  41.4152883  57.1811390
  37.4164248  71.4221621  26.0875583  36.8839312  70.7154036  25.7226300
  37.9735446  71.7018509  25.3611827  57.4923488   1.2395261  57.3333079
  57.7535220   1.6089724  58.1768310  58.2386848   0.7034872  57.0652128
  19.1143557  27.6229191  60.7864428  19.7699877  27.1409225  60.2823973
  18.4663626  26.9620037  61.0304165  12.4020505  16.2701942  42.2832251
  12.5820375  15.9710456  41.3919640  11.4487815  16.2317230  42.3608637
  24.7837134  45.8956168  59.3611294  24.6945878  45.4214213  58.5344321
  24.7161504  45.2183841  60.0341967  15.9433484   0.6919958  11.4203012
  16.0129762   1.3383247  10.7177043  15.5573583  -0.0770138  11.0009325
  55.1573372  54.9866104  51.5230274  55.9495449  54.9937296  50.9858227
  55.4586697  54.7168446  52.3905849  62.9072237  60.5235243  45.2504349
  63.5740232  61.1437798  44.9556541  62.2806644  60.4840660  44.5278692
   1.9739890  24.9386646   2.3882064   1.4752555  25.7483436   2.2790423
   2.7369714  25.0489952   1.8208335  34.3312381   1.1288930  13.9241445
  34.0132836   0.2539255  13.7015057  33.8153062   1.3837673  14.6890533
  27.8677344  70.0112391  10.4677057  27.1620274  70.0844812   9.8251766
  27.6760674  70.6920815  11.1126435  63.9230585  43.3041954  37.4887252
  64.8259926  43.5994434  37.6060700  63.4237576  44.1092300  37.3514318
  60.6680059  65.5580664  18.2181108  60.6966305  64.6043730  18.2947600
  59.7400856  65.7611084  18.0998957  32.1372676  39.1043091  17.0085049
  32.0642018  40.0585413  16.9902587  31.2340736  38.7936902  16.9453514
  62.6056627  17.2833492  35.0414681  61.7278174  17.5352432  35.3281164
  62.5718669  16.3289215  34.9768972  57.9599380  52.2218513  13.8115776
  58.2147169  51.3883591  13.4158349  58.0152035  52.8540421  13.0949819
  43.2481050  65.3146696  50.5281210  42.8315163  65.0076103  49.7228861
  42.7085257  66.0531950  50.8103657  74.1703224  43.9591646  25.8488059
  73.6900520  43.1834888  25.5591536  75.0885439  43.6888838  25.8416057
  40.4536963  33.4951305  13.3606827  40.7306957  34.4022846  13.2319415
  40.6109715  33.0744195  12.5154018  41.7216110  59.3322468  33.0470252
  42.4385881  59.9613476  33.1270266  42.1356487  58.4792614  33.1782389
  27.9766035  26.0462523   0.1664751  28.0874920  26.4281297  -0.7042179
  28.2113576  26.7518711   0.7691570   6.2816855  39.0678573  31.1569023
   5.8700510  38.8043547  30.3338885   5.9572073  38.4371614  31.7996860
  22.5547385   9.2180778  19.9034441  21.6840577   9.0615989  19.5378387
  22.9765773   8.3588935  19.8936319  59.9642229  45.3009319  38.2790685
  59.7745514  45.0995445  37.3627162  59.1081667  45.2970314  38.7073040
  52.0526171  64.8842049  31.1348724  52.0036840  65.4159212  31.9292998
  52.0454788  65.5206013  30.4199028  64.5807028  50.0335646  24.5311475
  63.7270117  49.7221518  24.8319197  64.6343040  50.9334993  24.8528218
  68.6176348  62.4171495  43.3240891  69.2369652  61.9039154  42.8051996
  69.1376448  62.7534294  44.0539742  68.3124634  69.4244119  54.1009236
  69.1712662  69.8306319  53.9839816  68.2637068  69.2327162  55.0374645
  64.1275243   6.5690757  46.2376404  63.6546854   5.9668876  45.6631613
  63.5929469   6.6132308  47.0304298  49.6021223  72.8499079   9.2104030
  49.8726606  73.7510872   9.0345722  49.7765589  72.3836279   8.3928525
  32.8192139  66.6807890  36.4043427  33.1710649  67.0114374  35.5778408
  33.2403564  65.8290672  36.5202785  24.4751072  56.9682217  24.1293597
  24.1771579  56.5756512  24.9499369  25.3953600  56.7135334  24.0622663
  24.9715376  70.0800371  50.0288010  25.2139759  70.9646845  50.3023911
  24.1646767  70.1970959  49.5273018  75.4263926  58.0999708  15.0146163
  74.8720789  57.3276567  14.9028051  76.2564087  57.7536488  15.3422880
  34.0223026  71.6397905  41.5073824  33.9868522  71.8813610  42.4329185
  34.2586780  72.4507093  41.0570812  69.5522022  61.2807846  55.7101202
  69.7301006  61.1504841  56.6415739  70.1883507  61.9409084  55.4348326
   9.5615649   3.3658649  30.3010893  10.1617408   3.9808942  29.8794794
   9.7922063   2.5139858  29.9305010  56.8405485  65.8641911  20.9010053
  57.6894236  65.9407759  21.3366461  56.5523195  66.7685509  20.7773829
   3.0252433  21.7488624   9.1754001   2.4287582  22.4678852   9.3838274
   3.8728690  22.1724464   9.0399724  22.8447648  21.1028026  48.6892772
  23.6035796  20.6549237  48.3153355  23.0689307  21.2241576  49.6119106
  75.8757401  63.7959528  54.9312925  76.7636538  64.1534567  54.9257469
  75.7020092  63.6004400  55.8520651  66.6463661  62.9686832  32.4586439
  67.3439693  63.1522894  31.8294668  67.0870256  62.5212622  33.1810451
   5.6755662   2.5317956  39.4020534   5.6161904   1.7117311  39.8921561
   5.3065801   2.3249151  38.5434031  75.2286144  51.6406128  58.8321191
  74.4802137  51.9577321  59.3376541  75.0581690  51.9394013  57.9388631
  19.3423820   0.3318645   0.7613826  19.5147491   0.5649473   1.6736297
  20.1973653   0.3867437   0.3345016  64.2637920  65.0910330  21.6479492
  63.4606600  64.7825146  21.2283945  63.9743710  65.4425669  22.4899054
  16.3912861  74.4799587  62.3711623  17.0318310  74.7039720  63.0462548
  16.2736504  73.5339114  62.4571027   6.1667820  25.5844949  48.8770724
   5.6627914  25.5476878  49.6900118   6.0403796  24.7238086  48.4777272
  22.2735902   2.6789353  62.7388716  22.5476523   2.3599384  63.5987333
  22.9005214   3.3712123  62.5292509   6.7341658  57.6033783  15.5018711
   6.2281557  58.2947302  15.0750017   7.2816607  58.0647516  16.1371768
  27.8546405  13.4409477  48.9452314  26.9841981  13.0705310  49.0913725
  28.4374023  12.9011775  49.4793367  20.2493405   5.0888349  12.4657738
  20.1802516   5.2530958  11.5253067  20.1900792   5.9565784  12.8654552
  73.9841107   3.2225372  46.0614777  74.4888333   3.2262851  46.8747902
  73.1134442   2.9214336  46.3212967  66.0685968  58.2249212   2.8577298
  66.1871433  58.6555004   3.7043574  66.8698263  58.4241629   2.3734133
  71.7075232  10.6599094  25.1649594  71.5764407  10.4540779  24.2393875
  72.6186446  10.4219009  25.3365445  40.7652835  12.6829292  27.1515155
  41.1468379  13.4018852  26.6477704  41.4307121  11.9952346  27.1291518
   0.3503986  46.7025375  30.7938886   0.0682303  46.4837599  29.9057746
   0.7441898  45.8956480  31.1256862  53.3378220  57.3096275  14.5452297
  53.0933571  56.5524960  14.0130460  53.2998180  58.0501652  13.9399254
   2.2480512   0.9205486  31.9820595   2.4969173   0.0662805  31.6291809
   1.7853332   1.3510658  31.2631869  60.5281353  67.6477098  25.2582908
  60.3371763  66.7850685  24.8900390  60.0461483  68.2582855  24.7005105
   0.5166984  10.5453540  29.1310978   1.4431071  10.7765533  29.1985130
   0.2185750  10.9811260  28.3326888  43.0521814   3.8679077  30.1532292
  42.7657954   2.9780151  30.3589201  42.8919033   4.3628360  30.9567142
  69.8980665  48.3865356  24.6281004  69.6551466  47.9049206  25.4188395
  69.0797329  48.7817574  24.3274903  23.3190847   0.0104476  54.6880054
  22.7657104   0.7914020  54.6768856  24.0137172   0.2001144  54.0573359
  62.8972101  26.2632847   4.2765412  62.7913666  25.3332353   4.4766319
  63.5130739  26.5816879   4.9365097  67.7727791  73.4574052  57.4993122
  68.7271353  73.4139868  57.4397528  67.5733324  74.3931576  57.4705863
   1.2977072  41.6257429  16.2201619   1.9083544  42.3347759  16.0186172
   1.0357710  41.2848806  15.3649223  29.6200343  18.5014508  45.2788270
  30.5010816  18.2708524  44.9842012  29.0438291  18.1803725  44.5851934
   1.1542392  10.7384731  19.8676515   1.9222617  10.4954769  19.3506098
   0.9010768  11.5980293  19.5310497  16.4251828  73.4726906   9.4303787
  17.0233548  74.2177248   9.4882411  16.9965386  72.7167654   9.2948800
  78.1602406  47.1205733  45.7167721  78.5869384  46.7894672  46.5070451
  77.6664281  47.8849719  46.0135567  14.1953226  67.2197437  63.5481453
  13.2389399  67.1936178  63.5185289  14.4728705  66.6053629  62.8686333
  59.5238570  30.5165054  30.2266979  59.4651035  30.4600479  31.1804247
  59.4382862  29.6113159  29.9274611   1.2431761  64.9001980  47.7777386
   1.5813013  65.7846880  47.9176617   0.9200331  64.9070549  46.8767595
  37.3569655  44.8852539  27.8342938  36.8680453  45.6684971  28.0867290
  37.9526210  45.1856136  27.1478438  20.1650473  64.7764349  51.1148930
  21.0291716  64.4321442  50.8891010  19.6786162  64.7619963  50.2906322
  57.7667284  51.2127876  28.2901287  57.5241613  51.2649632  29.2146134
  57.1908140  51.8418169  27.8555298  78.4577084  61.1805725  57.6029062
  77.7505493  61.6768456  57.1907473  78.2977676  60.2737141  57.3416328
  67.2959661  49.4028521  24.3898702  67.2709846  48.7540054  23.6865830
  66.4017725  49.7413540  24.4353223  11.1931177  69.2623901  23.7154913
  11.9092413  69.5870209  23.1695986  10.8445784  70.0444984  24.1433454
   7.6223683  15.2584125  16.4985895   8.3456493  15.7627727  16.1261511
   6.8417192  15.6032134  16.0650790  58.7511730  40.1450920  15.5557799
  58.7195015  39.2907166  15.9862077  59.2435646  40.6999350  16.1607039
  15.6679102  63.0637312  14.8256564  16.5365835  63.2731199  14.4824493
  15.1367804  63.8326120  14.6184134   7.8679204  10.6547786  21.9732809
   7.2813869  10.0503494  22.4281168   7.9386497  11.4073516  22.5605273
  77.2508172   7.2365047  10.4739130  76.8195991   6.4220096  10.7325232
  77.2115449   7.7870704  11.2559378   4.9194857  68.9857149  31.9305372
   4.8411795  69.8992014  31.6555142   5.6490179  68.9838457  32.5502253
   6.1254831  62.7863503  25.7599497   5.9362932  63.6955214  25.5278969
   5.4354139  62.5486517  26.3792467  54.1449046  23.6744167  47.6462460
  53.3827949  23.8466789  48.1991816  53.8826347  23.9755393  46.7763186
  29.7386241  13.4663059  40.2797937  29.5616603  14.2340137  39.7361541
  30.3896976  13.7667705  40.9138727  72.0502118  14.9750472  41.9107389
  72.5021438  14.6917964  41.1159086  71.7250995  14.1647388  42.3030853
  54.2768526  66.1631107  27.1770597  54.6317339  66.9978619  26.8713140
  54.8903990  65.5067301  26.8469787  38.6641598  67.6552153  50.0391865
  38.4976864  67.4052429  50.9480476  38.1443381  67.0396233  49.5224047
  49.1116142  70.1546955  18.6653900  48.5316181  69.3966389  18.5934186
  48.9808464  70.4723549  19.5588231  30.4407382   2.5579311  23.7172294
  30.7482219   2.3496534  24.5994473  30.1720882   1.7149307  23.3519721
  63.3979702  50.5342484  34.1455746  62.9999065  49.8326206  34.6608353
  63.1939793  50.3099728  33.2376528  44.4691133  72.0554256   2.9159531
  44.0313101  72.7771711   2.4646811  45.4006052  72.1974850   2.7474961
  65.8133984  61.6298580  20.7183099  65.2948093  61.9886589  19.9981999
  65.3184652  61.8560171  21.5057898  48.8927245   2.1145917  54.0854025
  49.5892882   1.9301559  54.7154951  48.6266780   3.0135061  54.2787933
  27.5000072  19.6086551  31.7190385  26.5872455  19.3380596  31.8183684
  27.7250457  19.3670227  30.8205914  51.4467052   3.8408901  64.0697384
  50.6266216   4.0789081  63.6372519  51.9164065   3.3169366  63.4208298
  42.2972790   7.9987766  16.4852190  41.9366304   7.4431468  17.1761906
  43.0097262   7.4816371  16.1094344  58.7838125  48.0300474   8.6260343
  59.0747213  48.7646818   9.1663265  58.4238291  48.4392500   7.8391415
  60.2224350  47.1675158  57.8705072  60.7587528  46.4759254  58.2581949
  60.6347942  47.3448658  57.0250845  66.8128633  67.4006081  23.4646344
  67.6076794  67.2730303  23.9825344  66.0982609  67.2953033  24.0927148
  52.0745993  59.0178251  26.3242197  51.6799355  59.7261095  26.8329549
  52.3568439  58.3803225  26.9800878   4.2320609  40.4703762  33.4683657
   3.6606050  40.2951099  32.7207375   3.6336541  40.5728485  34.2083931
   8.1036878  19.8018123  22.8443313   7.6486421  19.5320846  23.6420894
   8.6983752  19.0770675  22.6511288  55.8365985  25.4163478  45.7549405
  54.9763557  25.1793025  45.4085076  55.6488582  25.8430741  46.5909362
  65.8302772  14.4717191  60.8545086  66.5609479  14.0142558  61.2705362
  65.3745365  13.7926362  60.3571370  21.9538474  17.0392848  11.2970746
  22.2389722  17.9474689  11.3977659  22.0020175  16.8761684  10.3551066
  57.7517482  46.2058566  58.8711030  57.5026103  45.5466388  58.2233405
  58.4913703  46.6650794  58.4732193   6.7239138  67.3326969  46.2756443
   6.4483019  67.2750139  47.1904898   6.3368746  68.1492472  45.9599304
   9.6953436  70.3704548   0.6654039   8.8731238  70.8465767   0.5492383
   9.5059725  69.4857025   0.3530163   9.5100089  16.6054986  62.0645938
   9.6970840  17.1255134  62.8461451   9.5812317  15.6973193  62.3584709
  39.7065496  51.8419647   9.2874974  39.4149542  52.1989918  10.1263857
  40.6620836  51.8778801   9.3310612  71.1807346  44.2592764  39.3689299
  70.3234243  44.6467018  39.5454383  71.6703415  44.3802977  40.1824808
  42.4188995  63.1647730  23.0382514  42.1253586  63.3991194  22.1578264
  43.3646822  63.0455351  22.9515791  75.6337070  68.4346819  35.6084466
  75.0107908  68.5621023  34.8929238  75.4224920  69.1260433  36.2358546
  56.9681120  54.5611000   7.1422219  56.1688185  54.6392393   7.6630402
  57.6035976  55.1163292   7.5940043  75.9664392  47.0206976  29.0092039
  76.3299322  47.8983259  29.1269994  75.6234312  47.0214844  28.1155729
  15.0401350  44.5950747  12.5579643  14.2960211  44.7716141  13.1335974
  15.7363459  44.3065929  13.1481433  69.3689708  21.5402748  52.8367090
  69.3123654  22.4251796  52.4761963  69.7114781  21.6637565  53.7219620
   3.5753389  46.3220167  59.6933842   3.3284899  46.6973877  60.5386019
   3.1549307  45.4621696  59.6812248  11.7371440  27.2075798  12.2385836
  11.3641858  27.9991867  12.6265121  12.3999286  26.9220687  12.8674173
  16.0064244  33.9188434  26.8187523  16.5080333  34.6635391  27.1504951
  16.5137696  33.6021854  26.0713792  70.9141091   9.4451286  41.0352802
  70.0251941   9.4705821  41.3894224  70.8556680   8.8553859  40.2836037
  58.4762907  58.4151363  31.0568023  59.0280342  58.7694597  31.7541289
  58.9418411  57.6346493  30.7562494  11.0671850  54.7387336  44.8712301
  10.9067007  55.5850146  44.4537533  10.4386612  54.1456054  44.4596613
  76.2993288  63.2229471  36.7794657  77.1460247  63.1614447  37.2216797
  76.5195942  63.3276129  35.8538532  25.2276111   8.9497138  29.9984169
  24.4244218   8.9491607  30.5191064  25.9164024   9.1828586  30.6208587
   0.2400681  71.1342764  50.1650238  -0.2807525  70.4362583  49.7678518
   1.0072752  70.6870270  50.5222178  70.5932951  58.2575417  58.9603233
  71.3700056  58.0510378  58.4404135  70.9208345  58.3463097  59.8553467
  49.2010641  72.5508356  15.9277570  48.7752581  72.9981327  15.1964235
  48.7066221  71.7378712  16.0318947  76.1038589  62.7313709  26.8785334
  75.9222078  63.2306004  26.0822892  77.0500469  62.8101683  27.0000052
  55.4326582  70.8279276  39.2082977  55.2728462  70.1359463  38.5665417
  56.2182426  70.5442047  39.6758366  69.0294818  36.9450618  14.3044388
  69.9162225  37.2253086  14.5311081  68.6825160  37.6582672  13.7685430
  70.4957370   2.5669385  17.7369177  71.0927800   2.9146434  17.0744407
  70.0095300   1.8783523  17.2833943  29.4801498  10.8169509  42.1908617
  29.2603946   9.8885395  42.1134949  29.1395927  11.2114097  41.3879633
  76.5811709   6.1218215  36.1011481  76.4161567   5.8542587  37.0052576
  77.0379428   6.9594051  36.1788177  61.9777727  67.9095030  50.0871325
  61.1909437  67.4925995  50.4383087  62.6465416  67.7602196  50.7554770
  74.6108055  57.1058512  56.2463522  73.9879227  56.6153765  56.7827129
  74.2879820  57.0041227  55.3509903  17.7282834  22.1275760  47.6826191
  17.4188829  22.2621871  46.7868614  16.9294906  22.0105888  48.1968880
   1.6859174  19.0395976  19.3193734   1.0508180  18.3764507  19.0489900
   2.1227527  18.6567546  20.0801873  75.8002118   6.5369941  31.9935989
  76.6542224   6.4444877  31.5713000  75.3386620   5.7258750  31.7807817
   9.6781135  13.6948921  19.8317039  10.0404716  12.8844882  20.1897216
   9.3112540  13.4397842  18.9852011  53.0241156  71.2540483  40.6663275
  53.7576628  70.8274555  40.2234316  52.4241781  71.4932966  39.9598813
  63.3397532  46.5346718  15.3542137  63.3595705  47.4622631  15.5896080
  63.0917883  46.0874701  16.1633837  29.3965316   0.2322437  40.3526974
  28.8625121   0.7080366  40.9888411  28.8001514   0.0529672  39.6257639
   8.0667567   1.3578798  27.7739882   7.4312711   2.0586921  27.9197502
   8.4410691   1.5490343  26.9139981  12.0242926  74.3043709  11.0119629
  12.6536795  73.7780333  10.5189276  12.4789473  75.1307535  11.1751354
  60.4452753  44.9324751  12.6458621  61.3621473  45.1784182  12.5230229
  60.0091410  45.2268267  11.8462515  78.9461736   0.6385519  26.6542745
  78.7981967  -0.2059840  27.0798206  78.2318429   0.7165433  26.0219121
  59.3445877  37.8388146   5.9509671  58.6927036  38.2524947   6.5167820
  59.0207581  36.9469431   5.8247578  66.7832927   1.5106060  52.4874735
  66.7385606   0.5643560  52.3501968  65.8736090   1.7763902  52.6218987
  47.0014477  69.4842100  31.7209125  46.9526386  70.3806639  31.3889170
  46.7832899  68.9371443  30.9663558  68.0885458  72.7192831   5.3520048
  69.0236282  72.5374174   5.2582866  68.0521584  73.5375404   5.8473426
  23.1949258  14.6859027  24.0568638  23.3983684  14.7420360  24.9905086
  23.9301419  15.1208068  23.6249566  44.9294043  65.9362030  14.3621635
  44.0209055  65.8551884  14.0718162  45.1273489  66.8683910  14.2723036
  56.5367413  53.9254141  17.5637436  57.3812151  53.5896969  17.2630990
  56.3775682  54.6960163  17.0187044  54.6366596  48.6665964  36.0317111
  54.9580622  48.0473042  35.3764200  54.2678785  48.1152153  36.7217922
  18.7205382  38.0855678  61.5931258  18.4097262  37.5535987  62.3256809
  19.4536706  38.5844491  61.9534999   1.2454363  67.7331877  35.7970309
   1.3811346  66.7863607  35.8335376   2.0598646  68.1050968  36.1355925
  43.2072234  12.8352596  17.7608943  42.8964305  12.0346118  17.3382783
  43.9335227  12.5476886  18.3140767  66.9266510  48.5709953  35.3281355
  66.6086054  47.9002285  35.9324098  66.8905497  48.1542778  34.4671631
  35.6418014  37.0050479   4.0257788  35.6988025  37.6814033   4.7007075
  36.2356067  36.3167907   4.3256575  58.5931540  30.8319926  13.5115778
  57.7888441  31.2383080  13.1887317  58.9989710  31.5051317  14.0578651
   0.6106945  71.2366533  29.8880982   0.3789421  70.3420925  30.1376653
   0.6902548  71.7042732  30.7195020   4.0229249   1.0256578   8.4458452
   4.6791244   1.5282012   8.9286339   4.5270562   0.3579713   7.9807812
  74.1819572  56.9488668  28.2316041  73.6630249  57.7531815  28.2350826
  74.5156527  56.8752575  29.1257286  32.7322960  69.2569065  21.1407113
  32.5617886  68.4479666  20.6582379  33.6841893  69.3544579  21.1159253
  18.5424209  30.5329277  42.4785566  18.4142804  31.1526538  43.1967163
  18.2767034  31.0152961  41.6956520  66.2708446  35.4631923  53.8139069
  66.6853686  35.7874702  54.6134341  65.3629275  35.7595990  53.8776648
  71.5889168  66.7951250  33.6695433  71.8991709  66.8658924  32.7667880
  72.3707581  66.5720177  34.1747046  77.1970224  58.8634300  25.5350232
  76.5560055  59.3165064  26.0827994  77.4321651  58.0831194  26.0370684
  70.8684826  23.9196515  18.5705769  71.3640738  24.1925216  17.7984607
  71.4625454  24.0770483  19.3044329  40.1187440  33.7313217  62.1757333
  39.8524066  33.1483176  62.8866500  40.7208963  34.3512547  62.5872278
  55.9097358  33.3014661  51.5347314  55.2030226  32.6567912  51.5691233
  55.5152961  34.0672144  51.1172641  13.2217181   8.0484080  21.7426085
  13.2782137   7.0951200  21.6771698  13.2218146   8.3512414  20.8345771
  47.2583103   7.2505665  22.9548430  46.4684486   6.7508841  23.1614089
  47.8762054   6.5971357  22.6270270  51.4449903  49.5458578   0.5849627
  51.2562343  50.3988312   0.9761634  50.6392642  49.3095516   0.1253975
  59.8332337  17.5685263  35.4052782  58.9931730  17.9831946  35.2088547
  60.1112560  17.9690683  36.2289906   5.3854835  27.0400739   6.7882705
   5.0668663  27.7774239   7.3088759   6.3285750  27.1872830   6.7165846
  71.0731661  70.6819348  18.8854694  70.3197276  70.0991286  18.9797997
  71.8188798  70.1588895  19.1796923  71.8899593   4.2405465  33.5966420
  71.0655514   4.4565216  34.0324616  71.6748021   4.2398629  32.6639390
  51.4433002   6.4673859   5.6295264  51.9866562   6.1625433   6.3562089
  52.0362425   6.9905925   5.0901675  68.1065130   2.9914489  27.8470278
  67.5079298   3.5444528  28.3491373  67.5334454   2.4431586  27.3111176
  13.9624759  57.0709525  42.3688126  14.8663493  57.3266624  42.1848059
  13.7041160  57.6202177  43.1089401  31.7683244  19.4372475  13.8811529
  30.9619880  19.1820359  13.4329140  31.4877605  20.0829101  14.5297170
  40.7661836  63.1473990  62.8220262  40.7501237  63.3815975  61.8940586
  41.6967122  63.0787773  63.0356604  20.1815653  53.9305019   3.4607664
  20.8174634  54.0789795   2.7608964  19.5676732  54.6610594   3.3855507
  19.9291980  11.2886608  49.9587107  19.5261419  10.5992961  50.4864931
  20.7996798  10.9509158  49.7479486  63.5299253   7.2817320  11.4180553
  63.0284595   6.8974590  12.1371484  63.4078836   8.2257795  11.5186131
  59.4024849  14.1499710  17.2307396  58.6058140  13.6856711  17.4875998
  59.2412615  15.0594127  17.4820447  25.7246789  53.6492499  54.2824090
  25.0079679  53.0375370  54.1139889  26.2363434  53.6472735  53.4734416
  13.3842671   4.8331207  16.4766657  13.4419751   5.4991430  15.7915998
  12.9427838   5.2738887  17.2026467  24.7045632  55.3448914  12.5103748
  25.2085944  54.6496306  12.0875299  25.1123019  56.1555360  12.2056794
  21.1191034  18.1199718  36.9833446  20.3981638  17.5390518  36.7404270
  21.1913013  18.7314737  36.2504816  36.1950707  47.5178099  28.4149003
  36.5626311  47.9407740  27.6388645  35.5727553  48.1561279  28.7634778
  27.2948524  14.9166225  63.7266241  27.3941346  13.9902328  63.5071390
  26.4163896  14.9811910  64.1012831  36.0070539  18.0355453   9.5216453
  36.7862463  18.4053731   9.1065317  36.3096714  17.7430224  10.3813469
  21.6340232   2.6799750  11.3954079  20.7150626   2.7683428  11.1425567
  21.7372036   3.2775980  12.1359694  31.7776132  37.2080588  19.9892211
  32.1212220  36.6047764  19.3302727  31.7972159  38.0648708  19.5629311
  57.1059543  63.6082362   6.9586200  56.4681682  63.4633337   7.6575220
  57.6570684  64.3212293   7.2813356  67.2094774  42.1110582  12.2005785
  66.8201590  41.2469673  12.0663846  67.5490522  42.3570156  11.3400972
  13.5083723  22.0841599  19.9561918  13.2294631  22.1376872  20.8702898
  14.1453707  21.3698411  19.9415755  22.9613137   8.0029190  25.2110529
  23.4884453   7.8869915  24.4205284  23.5834861   8.3086509  25.8711004
  31.2529945  34.6194530   1.8166231  30.7397842  35.1370525   1.1961880
  32.1042299  35.0561953   1.8463695  68.4165764  11.0774839  12.2473621
  67.6334286  11.3814902  11.7885697  68.1387281  10.9824932  13.1584096
  73.0797529  74.7498865  22.2076321  72.2770440  74.6808941  21.6907835
  73.1847215  73.8847987  22.6036572  13.0678964  34.6776724  46.7254972
  12.2931790  34.6139789  46.1669397  13.6174142  35.3350878  46.2988043
  36.6694641  10.6276596  39.7558498  36.4564729   9.6959758  39.8090672
  35.9901881  11.0586488  40.2745628  37.1552467   1.7088735  53.2719707
  36.6588926   2.1631965  53.9527464  38.0510020   2.0306440  53.3735609
  55.6831980  26.5180612  17.7749038  55.8139801  27.2486353  18.3793783
  55.9976339  25.7514477  18.2541358  36.8409991   1.1254637  13.6278617
  35.8883524   1.1285381  13.7210655  36.9911981   1.2942383  12.6977074
   2.9056314  11.2270772  14.0092492   2.5193369  11.0900688  14.8742568
   2.8150207  12.1670175  13.8526213   5.1877052  35.5684614  27.4860001
   4.7567865  35.2340007  28.2725620   6.1153924  35.3745961  27.6203275
  73.8258481  69.2635237  16.2105811  74.2991376  69.3716507  17.0355284
  73.6890411  68.3191751  16.1349380  54.8869753   4.2074290  21.4940572
  54.2937326   4.0951338  20.7513022  54.3142653   4.2018238  22.2609997
   5.4550403  21.6605353  23.3482409   6.3316464  21.3725734  23.6029363
   5.2114064  21.0784292  22.6285005  14.8157060  32.1079278   8.5101891
  15.0728500  32.6888871   7.7942318  14.3231618  31.4063692   8.0842245
  59.1043806  15.6169748  32.0745325  59.6925688  16.3256884  32.3352766
  58.9598179  15.1177371  32.8783345  49.5581218  43.7304869  62.1077341
  48.9200326  43.9527371  62.7857310  49.7972270  44.5718053  61.7188344
   8.8287616  17.0808971  35.9585857   8.4030133  17.6127124  36.6310024
   9.2051202  17.7183545  35.3517628  36.6487288  14.0607357  19.0195692
  36.2175965  13.6605084  19.7746682  37.5837159  13.9880049  19.2112434
  19.4937821  59.5332156  18.2587838  19.7889491  60.3082048  18.7368000
  19.3845292  59.8351883  17.3570597  15.2078640  26.4248872  22.8947353
  15.4488933  27.2626376  22.4993753  14.7893703  25.9369278  22.1855164
   3.5786240  57.7413794  57.4699021   2.9918139  58.1069490  56.8079049
   4.4511883  58.0295273  57.2018761  22.2858658  70.7791969  48.8394070
  21.7144617  70.8930632  48.0799568  22.0275869  71.4780137  49.4403875
  68.6657170  16.2705743  57.9382515  69.4829056  16.5349507  57.5157118
  68.4200112  15.4575050  57.4969101  23.7929010  17.6529837  20.0741029
  22.9347110  17.3135042  20.3280640  23.6315775  18.5699761  19.8519969
  15.0998728  43.5014513  49.3120039  14.5275967  43.3185652  50.0571776
  15.0372879  44.4486156  49.1887379  76.2560794   1.9738351  11.0447490
  76.4139415   1.6211106  10.1690221  76.8477199   1.4797017  11.6122222
  73.8601160  21.3081789   9.3065453  74.0608692  21.4370275   8.3795446
  74.4413424  21.9156313   9.7641611  73.7169500  54.9100575  60.8124337
  73.1659408  55.1907965  61.5430555  74.1244265  54.0993997  61.1174408
  61.5874630  73.7613608  19.7961259  62.2961694  73.6864069  19.1571045
  60.8569091  73.2860217  19.4004297   6.4098998  70.2504157  23.8536048
   6.6134258  69.5309208  24.4512129   7.0753642  70.9125660  24.0405393
  30.5463696  38.4858513   9.4888490  31.2854147  38.9266515   9.9080634
  29.8045754  39.0737391   9.6315426  57.3660946  25.2414417  19.8478270
  57.7403164  26.0739446  19.5595038  57.7314901  25.1045179  20.7218814
  78.7716679  13.1917894  15.6978881  77.9610425  13.1439352  16.2046707
  78.4843491  13.1808960  14.7848928   5.1449939  73.6532918   3.8734370
   5.1863404  73.6027958   2.9184645   5.3361293  72.7631076   4.1688532
  75.9163260   2.9853414  47.8270543  76.3466978   2.4143766  48.4634590
  76.3147163   3.8442157  47.9679561  17.6224681  67.1035700  32.7934575
  18.2541534  66.4592283  32.4740434  16.8921968  66.5799581  33.1232524
  56.5487858  69.3902942  48.8118816  57.3474904  69.3793890  48.2844484
  56.3524981  70.3196642  48.9300955  70.2667519  71.6241905  53.9223111
  71.0186811  71.8727228  54.4599641  69.5661493  72.2125646  54.2037428
  72.7874589  60.7590591  10.3130972  73.0313206  61.3641678  11.0135317
  73.3260989  59.9832080  10.4685163  14.9946376  54.3250035  15.6459379
  15.3598996  54.7086249  14.8486614  14.2466374  53.8102029  15.3430998
  31.6567489  70.4687025  31.0010648  31.5847035  71.4106719  30.8470035
  31.4190122  70.0702079  30.1638579  26.9859427  47.3628244  61.5170628
  27.8379915  46.9293299  61.5652997  26.4245266  46.7372522  61.0591299
   7.8834935  73.8855176   9.9684978   8.2565113  74.2465903   9.1643107
   7.2017022  73.2847983   9.6676195  39.4642758  16.0616267  46.0719824
  40.2488422  15.7463455  46.5206337  39.0081620  16.5880585  46.7285347
  49.4558764   0.6669679  45.9224463  50.4121876   0.6530318  45.8837032
  49.2564392   0.9656085  46.8097258  46.8785544  64.4872962   2.2190483
  47.2923537  65.3504299   2.2208036  47.0746299  64.1294418   1.3531810
  32.2555852  11.4110088  20.5246806  32.2362924  12.2230637  20.0182962
  31.8525863  11.6411591  21.3618517  49.3778706  24.0822744   2.8553396
  48.5588694  24.1335154   3.3481357  49.9288797  24.7669101   3.2346711
  49.7284003  56.2516616   9.2834848  49.1851588  56.5190004   8.5421026
  49.1320249  55.7686077   9.8555231  69.0460694  70.1309876  30.6220388
  69.7166002  70.8016048  30.7520127  68.3001816  70.6059404  30.2555656
  35.4057026  26.9347644  21.2369323  36.1828661  26.4590049  21.5300155
  35.5422664  27.8302646  21.5462208  72.9028177  14.9994171  13.4545469
  72.2342968  14.7270203  12.8259671  72.5018549  14.8494852  14.3106890
  29.8474932  13.3272851   9.5783925  30.5293989  13.6417675   8.9848113
  30.3251386  12.8747070  10.2735627  28.6007397  60.2701923  61.6760960
  28.2248130  59.5143601  62.1273510  29.3381690  59.9118253  61.1821291
   4.0831276  54.0558981  48.1000614   4.8145290  54.0823887  48.7169695
   4.1680904  54.8633228  47.5930309  77.9780459  72.6543726  25.7434320
  78.1134987  73.1531914  26.5490770  77.0452213  72.7546129  25.5536342
  19.2015171  27.0754766  31.9567156  18.5331202  27.7425146  31.8000698
  18.8492417  26.2834454  31.5507340  34.3577099  34.7543836  10.1722360
  33.6946559  34.1754270   9.7962022  34.1876531  35.6062531   9.7702008
  27.5732347  38.9245366  10.1932430  27.1294280  39.6453093   9.7463042
  27.7541514  39.2618750  11.0705709  44.7970819  32.8253675   6.5111756
  44.8571730  33.7633610   6.6922539  45.3986788  32.6835108   5.7802916
  19.1203451  16.4749408  27.7743006  19.3719625  15.7135558  27.2516036
  18.9549267  16.1213815  28.6482930  61.3676548  21.4974070   3.4697691
  61.5628433  20.6079412   3.1748399  60.4165888  21.5108466   3.5771450
  70.1167416  63.2167541  45.4261732  69.5028198  63.9424597  45.5387926
  70.0105834  62.6882814  46.2171745  51.0555740  48.2030913  57.6848948
  51.6399785  48.4401735  56.9648290  51.2825271  47.2958079  57.8887558
  22.8300878  70.4655729   6.8138075  22.4056312  69.6292274   6.6225058
  23.2819577  70.6960403   6.0020632  52.1207476   4.5928419  20.3178048
  52.5012922   4.3403956  19.4765615  51.6108894   5.3793442  20.1236749
  32.6640749  33.0469441   8.6196995  31.8222499  33.3278489   8.2610178
  32.9376936  32.3262501   8.0522788  42.8447390  10.9290659  27.0662165
  43.0471087  10.5625844  27.9270124  43.0794096  10.2356589  26.4494944
  37.4630237   5.7298034   2.6582825  36.7274857   6.1568463   3.0974302
  37.2175384   4.8052484   2.6241270  11.6664879  70.9888264  64.2562633
  12.0874826  71.2307665  63.4313628  10.9719221  70.3814289  64.0015629
  21.8268394  18.8718367  29.2755508  21.2732220  18.4755313  29.9483657
  21.4194036  18.6150944  28.4483194  49.7581482   8.0292857   3.2617375
  49.6159172   7.2579974   3.8104773  50.2230692   7.6950634   2.4946791
  25.2123618  17.2253704  25.6795931  24.4717145  17.3123801  26.2796783
  25.1476145  17.9895568  25.1068282  16.1726832  11.8870020  36.5998101
  16.4211333  11.9580865  35.6781530  16.7903340  11.2541831  36.9662499
  16.4946672  72.8017756  29.0381098  16.2819644  72.2453010  29.7873282
  16.6008922  73.6765180  29.4119740   1.2269229  17.1873832  15.1091182
   2.1662953  17.0038021  15.1195765   1.1345866  17.9927301  15.6181586
  41.3524199  21.1845398  58.3844566  41.7809486  21.3984895  59.2132044
  40.4589367  20.9459496  58.6314154  50.6142521   2.7577832  27.0384002
  51.2626266   2.7044380  27.7405357  50.5989170   3.6837578  26.7963910
  31.3784647  31.8981910   5.1305491  32.1808076  32.2962832   4.7929069
  31.0156631  32.5563288   5.7233924  34.6162486   8.4278870  26.3627076
  35.5197310   8.4840757  26.0515904  34.5665145   7.5788110  26.8018293
  63.6650487  38.0471897  30.2099192  63.4892937  37.6338900  31.0552156
  64.5744081  38.3397442  30.2708161  40.1230955  47.3800230  10.7574236
  39.5037842  46.9503498  10.1674545  40.2253199  46.7668486  11.4852941
  38.6570668   9.8353201  18.1299996  37.9582381  10.4596841  17.9349577
  38.7231684   9.2959547  17.3419976  67.0427843  60.7087752  59.0602309
  67.9709526  60.5934998  58.8566506  66.9869610  61.5882751  59.4338554
  51.1737204  47.4193954   5.1101112  51.2029505  48.3273077   4.8083270
  51.4413834  46.9051027   4.3484753  59.3760204  21.5519285   7.3543227
  60.0019073  20.9341168   6.9764304  59.0504122  21.1126089   8.1399488
  78.7380215  62.4884316  62.6920387  79.2230459  63.0909845  63.2558769
  78.2255073  63.0576655  62.1179860  18.5116220  42.3658895  12.8288746
  19.1418505  41.9044924  13.3821869  18.6156118  41.9681835  11.9644415
  26.5180755  42.6069975  33.5444593  25.6615663  43.0178642  33.6619902
  26.8960285  42.5854063  34.4236159  23.9358854  32.5074124  27.9682279
  24.2115760  31.6700625  27.5953007  23.6955810  33.0398130  27.2099185
  60.9697658  51.5824102  26.2477279  61.3676178  52.2770499  25.7229209
  60.1804465  51.3390111  25.7640314  10.1112103  48.1060505   1.1503898
  10.8599806  48.0842018   1.7462902  10.1757109  47.2897530   0.6546827
  37.2331953   1.7985913   8.1632090  36.4082217   1.4458521   7.8297079
  37.6737022   2.1498956   7.3894060  34.3788314  72.3991156  61.9969511
  33.6888468  72.0807953  61.4148617  35.0721180  71.7427431  61.9279575
   1.7035528  10.9462643   6.4838386   0.8799311  10.4958761   6.6709924
   2.3518225  10.2446198   6.4232332  59.8283708  70.2623873  63.0646753
  59.5049029  70.7689642  62.3197031  60.2658617  70.9070192  63.6208057
   2.4777701  34.8231697  34.7351074   1.9395977  35.6105375  34.6535373
   1.9537222  34.2295146  35.2728605  69.5368934  68.9661341   9.8463184
  70.1177370  69.1595642  10.5821431  68.8191771  68.4646432  10.2331281
   9.7587377  17.1078146   2.1787581  10.4929709  17.4888277   1.6971339
   9.4714218  16.3736248   1.6359445  74.0980911   6.2801093  12.6112461
  74.6293879   7.0089376  12.9318190  74.6977282   5.7664424  12.0701230
  19.0151445  57.0989606  53.9627969  18.5806219  57.4810073  53.2002604
  18.3019964  56.8960759  54.5681811   4.0354939  70.9710674  42.3129511
   4.2385098  71.5696226  41.5941000   4.5496269  70.1861946  42.1235466
  35.2673864  23.0031681  46.9020557  35.0924015  22.8055072  45.9819746
  35.9703612  23.6523843  46.8780613  29.6974158   7.1447581  13.6573362
  29.3610406   6.3003838  13.3571434  29.3374085   7.7798092  13.0381954
  66.3038349   8.4802413  47.3650837  65.8909082   7.6749206  47.0533466
  66.7336130   8.8441682  46.5910816  10.3794003  25.3382635  15.8085072
  10.1131678  25.1894951  16.7158210  10.4688954  26.2886524  15.7379174
  46.1786938  10.3906476  18.7244821  45.3221798  10.2147818  19.1139531
  46.6978455   9.6121180  18.9259899   2.3531290  65.3317677  36.1017632
   2.3052641  64.5343624  35.5744243   3.1998344  65.2755569  36.5446615
   5.8892866  17.4207389   8.8183886   6.7591234  17.1285260   8.5459238
   5.4003569  17.5124288   8.0006027  77.6236578  45.8881423  54.9861855
  78.2389875  46.2015071  55.6490600  77.8190037  46.4138302  54.2104769
  51.7068883  67.5484797  62.1398157  52.0814343  68.1957051  61.5422800
  51.7028137  66.7333552  61.6380325  16.0176691  61.5623018  54.8268938
  16.4557006  62.4123379  54.8693389  16.1199363  61.2853619  53.9163566
  42.7043060  27.2701754   4.1353810  43.3703283  27.6742836   4.6915638
  42.9029159  27.5878401   3.2545435  75.9068138   7.8770137  24.6726751
  76.4876286   8.1797940  25.3706813  75.5461592   7.0535898  25.0015116
  17.7004206  19.3064678  30.3161454  16.9779205  18.7098205  30.1206040
  18.4889841  18.7969446  30.1296353  15.6140482  55.9580660  27.0780420
  15.3107107  56.6251087  27.6938915  16.1543119  56.4389277  26.4510489
  59.1549250  32.2695186  62.6475586  58.5484215  32.1878686  63.3835741
  59.4210335  33.1889322  62.6573490   2.7884575  63.9103757   0.6310257
   2.0215078  64.3866514   0.3129354   3.5075542  64.2187022   0.0796039
  42.1105905  23.2565185  56.8507499  41.3218852  23.7978229  56.8849057
  41.9845816  22.6058087  57.5413507  16.7179739   1.7010434   4.6143517
  16.9375563   2.1851051   5.4104042  17.5235367   1.2370521   4.3862909
   3.5972445  49.1324648  54.3800283   3.5479157  48.2080611  54.1365624
   3.1029026  49.1915330  55.1975662  60.4818058  33.2458401   7.3249954
  60.7809210  33.9674211   7.8782415  60.0236654  33.6729813   6.6011930
   3.1567471  12.7075192  48.5535848   3.0143110  12.2218320  47.7411497
   3.8245623  13.3561226  48.3309448  53.0161925  21.7961225  60.1830679
  52.9024430  21.9585582  61.1195010  52.4406405  21.0542604  59.9970168
  17.5258684  10.9107101  32.6816201  18.4672773  10.7378781  32.6921153
  17.2447312  10.6525612  31.8038106  74.0951773  41.0058015  53.1407333
  73.2032200  41.3255808  53.2762993  74.5950981  41.3745615  53.8689709
  13.4303713   9.9714470   8.3904094  13.6962295   9.7209525   7.5056475
  13.3160305  10.9207737   8.3463991  65.1485535  27.8980472  61.2934411
  65.0542470  26.9914660  61.0011268  64.4969483  28.3822390  60.7862911
  45.1798650  66.0236673  35.7132483  45.8220168  66.6802554  35.4435039
  44.6672984  66.4563350  36.3961148  47.2174168  23.8939881   4.3104002
  46.8043137  23.0938339   4.6349466  47.4043179  24.4037604   5.0987107
  46.4688635   6.3053542  11.2842643  45.5382395   6.4516205  11.1146271
  46.6592073   6.8416560  12.0539272  64.0510082  11.2166655   1.0382353
  63.7703466  11.9259477   1.6164917  63.4897137  10.4783320   1.2749708
  17.9795857   6.5218995  38.1337583  17.9280873   6.4637635  39.0878022
  17.5020524   7.3225043  37.9164613  26.2489223  24.1020536   0.7476469
  26.8565178  24.8415804   0.7602736  26.5266085  23.5513997   1.4797008
  64.2896768  72.2755977  63.7031506  64.5266982  71.4921042  64.1993299
  64.7944494  72.2076651  62.8927049  23.0902597  71.0711695  34.3268466
  23.5935803  70.9052099  35.1239395  23.6659833  70.7876252  33.6166525
  40.4297733   5.0183940  13.2669783  40.2938318   5.9332150  13.5136664
  39.9219513   4.9091277  12.4629831  35.2372333  27.8310321  63.3554942
  35.0480290  28.5064958  62.7042052  34.9915334  28.2283567  64.1909567
  59.6879387  31.8639231  25.1596880  58.8138247  31.6111565  25.4567885
  59.9902821  31.1174130  24.6424437  30.2699971  27.5978637  17.3822021
  29.7894692  27.0021558  17.9570556  29.5956397  27.9944706  16.8306768
  62.4319601  26.5647078  20.8812356  61.6210985  27.0683312  20.8098197
  62.9376936  26.8140626  20.1077437  60.3304338  48.4272385  15.5102539
  60.9496307  48.6307764  16.2112534  59.9019718  47.6203728  15.7959461
  26.4123889  74.2667487  20.5874443  25.5045386  74.0851782  20.3443980
  26.5253707  73.8326237  21.4330244  14.2989465  67.4528419  16.4713085
  14.5504209  66.9998084  17.2761405  14.3967124  68.3821122  16.6789842
  46.1262560  16.6340530  13.6384213  45.4650974  16.3917923  14.2868149
  46.2714195  17.5691843  13.7822545  62.2224303  65.0255224  44.6018064
  62.1075555  64.7755381  45.5186165  62.3089024  65.9785864  44.6224463
  49.6904421   4.9642375   3.2769117  49.6109056   4.6126321   4.1636357
  49.1320372   4.3983039   2.7438712  26.5468093  66.6887133  23.3605742
  27.4253055  67.0675336  23.3917260  26.5369006  66.0480152  24.0716553
  50.1016760  26.5166950  51.2776232  49.6490431  26.0370922  51.9714069
  49.8090696  26.0990572  50.4675674  39.1358729  72.4766877  24.3311262
  39.3224402  72.9756408  25.1264071  39.0160438  73.1420557  23.6535144
  51.0001564   1.6795187  17.6965904  50.5387640   0.9746549  18.1510305
  50.9473228   1.4424339  16.7707229  33.5105392  72.8416078  20.8996463
  33.2899734  72.5266385  21.7762184  34.4545718  72.7018584  20.8254313
  59.6295710  63.8469168  61.6025967  60.4271503  64.1788646  62.0147991
  58.9178844  64.2235419  62.1201737  26.8081351  13.8595651  41.9776452
  27.5542375  14.4591497  41.9700253  27.0928594  13.1161473  41.4461434
  36.4717650  28.9730525  10.9015417  36.6003132  29.4265103  11.7346585
  37.1912026  29.2786264  10.3490305  33.5860562   9.5783901   6.1861473
  34.2426014  10.1696491   5.8179188  33.0104160  10.1477969   6.6966808
   1.9014212  49.7309063  10.0702012   2.5326248  50.4479145  10.0092673
   2.1674200  49.2432402  10.8497238  77.4320483  11.6979669  60.4204127
  76.4774918  11.7619727  60.3894988  77.6096725  11.1255715  61.1667660
  68.1850433  10.6423306   5.5949044  68.8857937  10.2127576   5.1043415
  68.4327364  10.5317855   6.5128690  40.4816409  52.7410983  14.3523002
  41.4032384  52.5493167  14.5258284  40.0700780  52.7407454  15.2165055
  16.0242569  23.0190277  27.8287768  15.1743019  23.0406690  28.2684803
  16.6333234  22.7109814  28.4998798  23.2429457  70.7425976  44.3352175
  23.4907842  69.8726177  44.6481800  22.4139810  70.9285975  44.7761822
  16.6579735  63.8536024  23.6855745  15.8190775  64.1611195  23.3421826
  17.0065761  63.2888412  22.9958272  47.4864054  17.3755944  27.1383119
  48.1622839  18.0175292  27.3558855  47.9607248  16.5488374  27.0504284
  47.5480938   4.5265076   9.2151362  47.7272558   5.3903747   9.5864391
  46.6935730   4.2848018   9.5723575   3.9273684  62.7692577  56.9585824
   3.4789078  63.5980364  57.1266377   3.3488838  62.1040031  57.3314393
  31.0318518  11.4135647  28.1686568  31.3122845  10.6988406  27.5970292
  30.1118541  11.5529335  27.9441285  72.1563816  11.7585528   4.8357916
  72.1601820  10.9747469   5.3852153  72.5318575  12.4419928   5.3909117
   0.7082264  44.4876668  61.2939832   0.2894346  45.2614560  61.6709423
   0.7065575  43.8449338  62.0032951  36.5415335  17.0067537  18.7570250
  37.0110631  17.1861517  17.9424155  36.4255762  16.0566187  18.7623823
  21.3993382  30.8810520  12.6699662  21.5541363  30.0604677  12.2020888
  21.5297103  31.5615749  12.0095694  67.7279043  32.8956151  35.6842208
  66.9401836  33.3030796  35.3240728  67.4728584  32.6173997  36.5638661
  69.6798801  35.1173615  34.5087242  69.9666452  34.7873044  33.6572194
  69.3305063  34.3480372  34.9585104  67.8355026  42.3886251  15.2144325
  67.9430437  43.2881021  15.5236423  67.6800537  42.4756336  14.2739546
  18.4704753   0.5954669  61.5245053  17.6983424   0.8458183  61.0171989
  19.0677043   1.3379882  61.4338535  17.2489540  47.7211854  56.8105638
  16.7054407  47.5281736  56.0466445  16.7283623  48.3378860  57.3252475
  28.5806104  72.5746045  40.0322676  27.8754970  73.0026166  39.5466256
  28.5537025  72.9787123  40.8995628  75.8545828  70.1586537   6.1007130
  74.9654889  69.8040472   6.1007923  76.2873793  69.7202008   6.8332952
  72.8722000   2.9890835   9.3919235  73.0656290   2.1314502   9.0133977
  72.2028446   3.3593869   8.8165414   5.0242893  74.0256950  32.8046596
   5.4908936  74.4563028  32.0883572   5.6445543  74.0338251  33.5336554
  44.9128056  19.4158351  14.2416763  45.5075741  19.8209238  14.8728538
  44.1402912  19.9810362  14.2436576  33.0410691   4.5263312  58.9061225
  33.4173986   4.6097110  59.7822815  33.7754985   4.6871970  58.3136940
  26.8214440  35.8199286  12.9084957  27.1162176  35.5081511  13.7641430
  27.6125002  36.1634207  12.4931943  24.6154761  24.1776085   4.2527729
  24.2205691  23.3614492   3.9459094  24.3995166  24.2126393   5.1846349
  57.2149181  18.4926546  19.1808748  57.9759312  18.0488157  18.8065743
  56.6905594  18.7497115  18.4224570   7.5952713  57.4056956  54.2103088
   7.5585739  58.1181666  53.5721314   6.9127791  57.6188084  54.8467183
  25.7058287  13.0899119  26.2774563  26.3365793  12.5499368  25.8012080
  26.1544633  13.9257336  26.4053631   4.2574519  20.2149296  20.9730792
   3.7960029  21.0276747  20.7663298   3.8331276  19.5530438  20.4271054
  69.9879205  53.5310529  43.2934713  70.6396282  52.9740284  43.7191820
  70.1845109  53.4588169  42.3594666  31.6059136  44.2344713   2.1176066
  31.0692239  43.4425974   2.0839883  32.4851871  43.9191866   2.3266737
  76.2222715  61.3945099  50.2522159  76.4154049  60.4570576  50.2630198
  77.0543524  61.8078372  50.0219131  65.0282669  28.7308311  13.2516408
  65.3747940  29.1907167  14.0162683  65.8020878  28.3735752  12.8159821
  56.5776110  33.7942386  15.6724393  55.7265425  33.3884716  15.5073166
  56.7146587  34.3760467  14.9248099  44.3277597  21.5412545  18.7797153
  43.4823942  21.0953832  18.8325262  44.6377945  21.5748119  19.6846938
  52.0438242  25.8206487  22.8469300  52.5730515  26.5381551  23.1952691
  51.2457514  25.8332729  23.3752775  47.0903730  29.9658895  12.7319205
  47.2225189  29.4084954  13.4987843  47.4328947  30.8201575  12.9948640
  57.6661444  30.1449299  25.7912135  56.9708395  29.7709394  25.2500010
  57.2876263  30.1911402  26.6691756  22.4502631  65.9171234  34.6113563
  21.8112775  65.3978865  35.0995398  22.5926467  66.6930859  35.1534271
  73.9159866  49.8016676  42.7920139  74.1618868  49.0782138  43.3685386
  74.6183773  49.8399898  42.1428526  26.1243840   2.4889324  52.5069762
  26.9761582   2.3520539  52.0922721  25.7690211   1.6074679  52.6208532
  61.8701220  25.5644321   7.8985935  61.2676096  25.2001023   7.2501534
  61.3962126  26.3054419   8.2761502  63.1215735  19.9254462  51.8865681
  62.8439923  20.3557643  52.6952756  62.3077246  19.7659024  51.4086271
   9.8880827  10.8626294  24.7619033   9.4943750  11.5251219  24.1941643
  10.4742074  10.3714967  24.1861606  12.4332420  59.5217654  57.7953661
  12.2879927  60.2682253  57.2140450  12.1647398  59.8350259  58.6590827
  54.9510813  23.0048418   6.4334172  55.1238632  22.2018862   6.9249851
  55.1334572  23.7098956   7.0546007  70.7058903  74.1009828  45.6976497
  70.7810303  73.1626698  45.8713019  69.8168560  74.3250248  45.9727085
  47.0117497  63.0510400   9.0839523  47.4416548  62.2546743   9.3957484
  46.0816294  62.9040681   9.2557299  61.7658901   0.8347589   6.7300576
  61.1550617   1.3327028   7.2733533  61.2879658   0.0375554   6.5013975
   6.4835387  34.9305534  21.2394500   7.4199897  34.9494219  21.0421276
   6.4408302  34.7877264  22.1849704  15.9911319   4.2043803  63.0841431
  16.4413186   4.3869422  62.2593789  16.6870090   3.9292453  63.6810444
  73.4850502  27.5884151  14.0083957  73.6775017  26.6621637  13.8626230
  74.3188858  28.0331373  13.8561714  59.4684553  22.5050950  30.4154301
  60.1468754  22.7213621  31.0551190  58.6473083  22.5856090  30.9006810
  71.3582543  18.9820373  15.8647573  71.2847046  19.0130568  16.8186224
  71.0028056  18.1262791  15.6248283  48.5308238  55.1345989  55.8711875
  47.7659770  54.9153039  55.3390670  49.0807529  54.3520173  55.8341009
  29.1496631  74.0127684   2.7830493  29.9462386  73.7912386   2.3007444
  29.1500779  73.4173875   3.5325512  66.7052031  27.5937557   2.1110600
  67.3422337  28.3071446   2.0723461  65.8593750  28.0202127   1.9734289
  47.3926183  39.6903823   5.2649158  46.9012280  40.2458190   4.6597245
  47.3509046  40.1527737   6.1019862  35.2313181  32.0765996   1.7313427
  36.0712477  32.4042249   2.0529270  34.8560663  32.8129196   1.2483867
  76.3350435  59.7257921  46.5186596  75.5938431  60.2982613  46.7164684
  77.0942493  60.3087494  46.5173257   1.3801080  59.6608353  25.6078029
   1.1375450  58.7350368  25.6250238   1.9425462  59.7753572  26.3738203
  20.1996732  34.6787524  24.9125457  19.6922374  35.4211593  25.2405310
  20.6392431  35.0153542  24.1317081  29.2014933  45.7787037  29.0948224
  29.6246362  46.5480804  28.7137175  28.6505771  46.1301708  29.7942472
  76.5651274  39.3363786   0.9361489  76.9603729  39.3781495   1.8069339
  77.0829916  39.9444747   0.4086401  31.3459559  52.9684161  30.2506113
  31.9978877  52.2937416  30.4404235  31.8144580  53.7945365  30.3700280
  21.6658092  22.5977135   4.0768826  21.4694524  23.5020614   3.8322803
  21.6529751  22.1174860   3.2489637  49.6135902  17.2881687   7.9650122
  49.0130615  17.7922642   8.5140896  49.1232967  17.1274662   7.1587747
  35.4350638   6.6855627  30.9253860  35.5648136   7.6336521  30.9025002
  36.3112140   6.3208330  30.8006334  77.7209568  54.2285013  22.5518870
  78.0872679  53.5528612  21.9813108  76.8131161  54.3199396  22.2625852
  49.6348496  73.1477726  43.9373636  50.5112811  73.2700484  43.5724735
  49.3381663  74.0327359  44.1496181  75.4419756  24.5615101  38.0627584
  75.1056623  24.9578714  37.2590017  75.2169895  25.1876545  38.7509108
  28.5545921  37.8734159  18.7147093  29.3171120  37.9618263  19.2865300
  27.8262210  38.2172537  19.2318964  64.6184965  64.3479535  52.5475848
  64.5704099  65.0418159  53.2052136  64.5601531  64.8074338  51.7099059
  73.1214032  24.4805813  20.9617209  73.6142675  24.8168087  21.7102313
  72.4872313  23.8747430  21.3451481  12.7514768  25.1636147  10.7478654
  13.0374420  25.9224868  11.2563634  12.3042381  24.6044040  11.3830769
  34.7948146   0.0388274  32.7728105  34.6961117   0.7016657  33.4562826
  34.6601915   0.5167378  31.9544506  41.4579630  68.1781387  14.6275640
  41.6751766  67.2603559  14.4640827  42.3032141  68.6273289  14.6312106
  60.2268454  61.3193962  62.4709125  59.4902917  60.7101819  62.4201252
  59.8918982  62.1322366  62.0923192  54.3833065  35.5011177   2.6068228
  54.2607450  35.9213972   3.4580433  55.2120113  35.8538270   2.2826633
  37.1253177  70.2967756  15.6260717  37.9295131  69.7776632  15.6306028
  37.1408006  70.7696702  16.4581549  21.6532230  49.0063000   8.6043423
  22.2013116  49.7492361   8.8570762  22.0645046  48.6643362   7.8105289
  76.8198967  62.3103762  13.5979784  77.2534609  62.1949625  12.7524424
  76.7742682  63.2591486  13.7162209  54.0642591  56.5937111  61.1149997
  54.1500064  57.2840139  61.7725414  54.9377080  56.2061283  61.0593269
  65.3933764  28.4796858   4.8392895  65.8975649  27.8378534   4.3392110
  64.9930382  27.9722834   5.5453378  49.8702431  43.3120871   5.3780019
  50.2934933  42.4766016   5.1803631  49.7458839  43.7255764   4.5237231
  74.0492102  66.9857833  61.7425692  74.2271896  67.0439932  60.8038640
  74.2026468  66.0660502  61.9588587  14.1594001  12.9344915  62.9562356
  13.4779092  13.6019633  62.8769851  14.8026248  13.1682942  62.2870323
  11.7547365  44.0588999   8.9305538  12.6182219  44.0133810   9.3411058
  11.6717287  43.2323027   8.4550798  74.7251078  54.8554048  39.5247257
  75.5850788  55.2600381  39.4109261  74.3966480  54.7362658  38.6335743
  49.6779346  39.2772937   3.2144201  50.4440165  39.0380883   3.7360859
  49.0368223  39.5824480   3.8563591  64.8664427  36.1444950  20.9819818
  65.2222395  37.0325327  20.9498978  64.8540926  35.8582807  20.0686574
  43.4581280   1.3259248  42.9137945  42.9932022   2.0282477  43.3685684
  44.1472006   1.0610959  43.5231209  45.1218279  52.5185939  55.8967960
  44.2709907  52.2003242  56.1984802  45.7567485  52.0738289  56.4583040
  40.4490566   7.9880983  41.1562061  40.4612064   7.5016755  41.9805098
  41.3719416   8.1479812  40.9588289  66.5219382  29.3147278   7.8258032
  67.4441341  29.1414142   8.0148798  66.5386716  29.9030089   7.0709002
  69.1223967  69.6064644  27.0355177  68.6276436  69.7764604  26.2339234
  68.4528506  69.4598208  27.7036762  72.1682974  48.8874563  23.3374155
  71.3977571  48.8106021  23.9000786  72.6192280  49.6700343  23.6543834
  33.5314727  34.6502519  13.3760631  33.7123251  34.2683506  12.5171828
  33.9440942  35.5134296  13.3460641  24.4213744  73.5761633  29.1515923
  23.8766261  74.3562939  29.2558742  24.5366260  73.2437708  30.0417972
  48.2487174   5.2726005  28.4159386  47.5305482   5.6367944  27.8984177
  48.9629003   5.1600335  27.7886427  75.6964107  74.1124674  43.1737364
  76.5647694  74.4003364  42.8920973  75.7139917  74.1958019  44.1271389
  63.3725214  27.4868965  24.0859032  62.4541521  27.2883344  24.2686677
  63.3532190  28.3497429  23.6719513  53.4997892   3.8510379   3.0841061
  53.5404062   3.9661768   4.0334874  54.3243837   4.2160231   2.7630785
  57.9579258  28.9226055   8.2664943  58.5682678  28.8678360   7.5311613
  58.1944132  29.7350097   8.7140518  17.5579902  51.8684124  19.7312748
  18.2094022  51.4635061  19.1586113  17.0429870  51.1338829  20.0651479
  74.7838398  73.9864680  59.7877044  73.8413568  73.8294002  59.8450595
  75.1158281  73.7723753  60.6595865  77.2031260  32.4188352  22.2399187
  76.2819386  32.6321006  22.3888016  77.6299334  33.2678294  22.1247029
  42.2117138  19.6739531   8.8335532  42.1191645  20.2302241   9.6070075
  42.6038837  18.8661480   9.1650420  63.0684507  74.4227292  25.2659774
  62.6458287  75.2791720  25.3302312  62.4459952  73.8845727  24.7769284
  65.9274626  30.2754760  36.3246107  65.2356052  29.6919870  36.0129952
  65.8086920  31.0793686  35.8187628   2.1175357  72.3270077  14.7422624
   1.7876740  72.4483895  13.8519311   1.3820311  72.5686000  15.3051984
  71.1037683  17.1897614   3.7262595  71.0904503  16.3714027   4.2225897
  71.3780594  16.9317234   2.8462517   2.8218834  71.3852617  56.3680595
   2.5920193  71.1509725  55.4688925   2.5161497  70.6460950  56.8937886
  39.3692517  19.4876528  19.9830925  38.6010551  19.9315357  19.6238232
  39.0137410  18.8833356  20.6347394  73.8708878  28.0270672  19.5132864
  73.3318901  27.5402164  18.8898373  74.7702694  27.7850103  19.2924869
  37.5325231   1.0349657  20.5121589  38.4366099   0.7852460  20.3211117
  37.0710842   0.2028133  20.6162453  34.5163941   5.7870793  24.3487334
  33.5615230   5.7560766  24.2896485  34.6943498   5.9290349  25.2784729
  63.0575991  10.5622661  22.3730636  63.5324335  10.5716598  23.2041335
  63.7430429  10.5246115  21.7059946  28.3491349  11.5443718  27.6485610
  28.5643673  12.4768984  27.6312232  27.6654792  11.4686894  28.3142304
  68.3810568  57.0234251   8.4303820  67.9145241  56.2835169   8.0416477
  69.0598726  56.6207361   8.9719427  49.7218084  23.0998158  19.3356097
  50.0166225  23.9428473  18.9912093  49.4884300  23.2813954  20.2459908
  14.9786683  18.4748481  59.1527039  14.5968314  17.7239488  58.6981970
  14.6649190  18.3945058  60.0534463   3.2250444  38.0612933  46.6472554
   3.5754005  37.6403484  45.8622158   2.3548357  37.6778527  46.7565286
  63.0230665  46.0766029  37.2411013  63.7106609  46.6493845  37.5807524
  62.2804880  46.2198353  37.8278661  49.5484038  20.8245538  59.6863780
  48.8302966  20.9047006  59.0585810  50.2145358  20.3153728  59.2245996
  71.6975737  28.5301042   9.8668939  71.3584232  28.4116721  10.7541275
  71.6936016  27.6504278   9.4895530  27.4107957   4.2847696  40.1150084
  27.2988844   3.9138329  39.2397285  27.5594902   5.2179611  39.9624467
  53.9734459  29.9633121  25.8865666  54.5140123  29.4958258  26.5233374
  53.6583042  30.7335329  26.3595152  50.4340076   5.6569582  26.6147852
  50.5547428   6.6064298  26.6021800  50.4879379   5.3964323  25.6953001
  68.0581474  49.5056629   0.0366649  67.1989870  49.9009323  -0.1111298
  68.0906725  49.3492365   0.9804362   1.2644049  35.7781124   7.2821021
   1.2594935  36.3692427   6.5292591   0.6328388  35.0956678   7.0549005
  64.9392223  23.4706283   6.8856466  65.5618668  23.9683986   6.3557661
  64.1875505  23.3359337   6.3085175  23.8438269  38.6422968  37.2236872
  24.1801020  39.0789270  38.0063152  23.0242678  39.0969706  37.0292306
  59.0676308  62.3852682  21.1346364  58.8410187  63.2004070  21.5823269
  59.0808344  62.6176262  20.2061605  11.4841887  27.1162484  57.5920254
  12.0673343  27.5589631  58.2086134  11.9280954  26.2921069  57.3921138
  60.9101172  18.2379411  62.6662529  60.8092853  17.6850007  63.4410599
  60.1741668  18.8484119  62.7102457  47.1161052  18.9485190  47.1804285
  47.8259679  18.8608525  46.5443123  46.4270946  19.4153569  46.7076111
  50.9139299  20.6138182   2.3549287  50.6855679  20.7198715   3.2784206
  50.0862074  20.3943610   1.9272013  40.5697203  57.6905155  21.8593812
  41.3940573  57.2344398  21.6899800  40.8338785  58.5684347  22.1345425
  61.1153507  24.0788245  13.0100250  61.9640732  23.6447954  13.0967402
  60.4981756  23.4858108  13.4385860  14.4961091  39.9339650  50.4387951
  14.0440055  39.3498109  49.8300290  15.0281259  40.4987977  49.8782957
  23.2223558  36.6785312   3.0325758  23.9703178  36.9204235   2.4864313
  23.5148787  36.8480897   3.9280716  14.4081517  26.1135505  50.4762554
  15.0665446  26.7869256  50.3050328  13.7958976  26.5265534  51.0851908
  64.0157747  29.1298079  30.3699923  64.5812130  29.3083215  31.1214232
  63.6041975  29.9716282  30.1746106  41.1551615  31.9129896  11.2189817
  41.1524340  32.2567081  10.3256273  41.8703314  31.2768531  11.2286735
   9.0138380  51.0769233  12.1995151   9.2438690  50.8594808  11.2961662
   9.8059694  51.4764878  12.5588358  77.2377920  48.5719872   7.0891505
  76.4433289  48.0387163   7.1152639  77.9400110  47.9469252   6.9090998
  78.6008787  57.8668928   4.6775773  78.2909250  58.5569477   4.0910777
  79.1757202  57.3295927   4.1325110  60.4392862  36.4483404  22.4953175
  60.3093052  37.2020149  21.9197202  61.3307095  36.5521264  22.8282094
  24.5936891  14.4567798  36.4727533  25.0734111  13.6311601  36.5394557
  24.7646590  14.9009059  37.3032677   8.5623308  15.1085150  12.6317811
   8.1852480  15.0232923  11.7561197   8.8502928  14.2235518  12.8557205
  13.2411595  11.3493798  53.1528175  13.6122390  10.4683850  53.2016373
  13.7369319  11.8541596  53.7975157  26.1371891  67.4026319  39.7968185
  27.0284788  67.3002907  39.4631064  25.9672157  66.5929100  40.2781618
  68.6212059  45.8854869  61.7141298  68.5679718  45.5970368  60.8029795
  68.5794731  45.0766209  62.2242537  55.2239895  23.9139199  16.1504316
  54.8317099  23.2804728  15.5495214  54.4819212  24.2761612  16.6345274
  47.6535892  49.6748877   0.6647626  46.7572594  49.3394470   0.6823628
  48.0991936  49.1334629   0.0132027  11.6998907  66.0203600  20.1743650
  11.0620543  65.8259583  20.8610940  12.1252485  65.1811886  19.9980402
  53.1702518  38.5417032   6.6608196  53.1993580  37.8271008   7.2970009
  53.8899422  39.1189408   6.9159180  19.3120976  20.9226344  43.6161053
  18.5029717  20.5346654  43.2829035  19.9703046  20.2366708  43.5045302
  50.3246995  63.5237977  63.0469533  50.5728885  64.1998002  62.4163522
  50.9046431  62.7881571  62.8501591  42.5804043  47.3832178  17.1531844
  42.6862478  46.4401245  17.2780991  42.8958035  47.7699041  17.9700243
  74.4835329  45.8929634  20.2161264  75.4274607  45.9255075  20.0606489
  74.2009211  45.0765467  19.8040283  73.3618593  20.9239841  18.4052539
  73.2531404  21.3524437  17.5562334  73.7666988  21.5908003  18.9599526
  12.4471971   3.4785483  59.0917021  12.0446940   3.6951707  59.9327120
  12.2948524   4.2509387  58.5472411  78.6816359  13.9599526  12.5960708
  78.3232450  14.6517467  13.1521356  78.9511490  14.4112015  11.7960906
  12.3706448  14.4779825  16.5621388  12.6678586  14.8243320  15.7207477
  12.9925632  14.8297358  17.1990991   7.3644011  71.8203684  48.4636927
   6.4734833  71.5037581  48.3145035   7.2761957  72.7725360  48.5064697
  54.2917490  31.2687540   9.9292821  54.1473866  31.1304641   8.9931899
  53.4117222  31.3230920  10.3018808  10.3974768  18.7339127  21.7958212
  10.4747244  17.7830470  21.7175961  10.2019449  19.0322113  20.9075546
  60.8858776  20.4570603  32.6527643  61.0049582  19.5657670  32.9808593
  60.6984806  20.9769464  33.4343219  69.5937967  20.4293370   6.6076279
  70.4745865  20.1069856   6.4165032  69.6145344  21.3506556   6.3488293
  33.3065625  21.5388463  64.1347391  33.3254119  20.5834172  64.1898516
  33.7682410  21.8331979  64.9198784  76.2722059  63.7239477  47.3067081
  75.5884882  64.3567607  47.5264979  75.7997366  62.9829380  46.9273556
   1.2945410  42.9466057  43.0206347   1.5446135  43.5848570  42.3525524
   1.3886305  43.4173632  43.8487482  73.2847428  21.0456346  59.5950085
  72.7001536  20.4023955  59.9959198  74.0653920  20.5449365  59.3581200
  78.7003231  37.5999880   8.6360186  79.2548180  38.3789849   8.6800086
  79.3104219  36.8806076   8.4732306  35.0702357  55.3291655   6.3887084
  34.3736529  54.9371767   6.9153488  34.6319437  56.0136604   5.8831388
  63.3607864  57.6316452   2.3269330  63.2439280  57.1906996   1.4854190
  64.2958593  57.8328705   2.3640805  70.0675297  49.4534206  14.2436385
  70.8708096  49.7965956  13.8522255  69.5580435  49.1303253  13.5004938
  24.8704978   1.3969896  49.2275334  24.9603959   2.0704959  49.9017263
  25.3655358   0.6511686  49.5665324  29.2982030  38.6782885  24.2755747
  29.7091007  39.3384123  24.8338151  28.4326220  39.0363455  24.0786028
  70.2124453  25.8357620  40.1447582  70.3210735  25.6413651  39.2138219
  71.1040688  25.8466816  40.4927874  58.4341975   7.1043609  61.5911016
  58.3475085   8.0413936  61.4159176  57.8867599   6.9530938  62.3615939
  20.3241297  21.6378379  37.2293472  19.5440718  22.1373916  37.4705529
  20.8179136  21.5560007  38.0452585  44.3662071  22.5394797   9.2631614
  44.2309427  22.0290947  10.0615609  43.8944006  23.3576012   9.4190681
  55.5974150  18.0026364   5.4875571  54.9981880  18.7364876   5.3510797
  56.4495373  18.4132850   5.6341231  58.1848717  56.0273409  13.0421269
  57.5253391  56.7064095  13.1839561  57.7172852  55.3323507  12.5788951
   7.8986951  18.1391786  54.9085558   7.5589987  17.7923129  55.7334954
   8.6649176  18.6536286  55.1624727  15.2007794   9.5096065  22.7316451
  14.8869348   8.7042285  22.3204160  15.0758624  10.1839210  22.0638657
   8.2436319  26.1085677  35.6798887   7.3148581  25.8792686  35.7118869
   8.4536978  26.3821363  36.5727878  44.6344253   2.6122091  47.8355408
  43.8855716   2.5314830  48.4262455  44.7182914   3.5533450  47.6823604
  66.1737442  57.6363897  10.7099509  66.8871355  57.6363039  11.3481534
  65.9349585  56.7140722  10.6175137  64.1221523  35.4030967  10.3780770
  63.4391975  34.7851014  10.1175249  63.6454296  36.1916757  10.6371403
  50.4583216  59.8156404  11.2507176  49.9167156  59.3383169  11.8792534
  50.7647610  59.1447926  10.6405604  20.9981799  38.2065177   1.8662110
  21.6869879  38.8444829   2.0526944  21.4226317  37.3559833   1.9787407
  59.7407579  16.1708856  19.3480563  58.9974737  15.6773281  19.6946919
  60.4680634  15.9482038  19.9291527  56.9303799  20.7285118  20.7107043
  57.1480179  19.9738717  20.1635456  56.8991327  21.4655495  20.1007581
  49.4856024  48.0569410  14.9572504  49.0213490  47.4624348  15.5465388
  50.2840900  48.2890034  15.4313815  34.6318790  37.9960368  63.4963385
  35.3424712  37.4148009  63.7673737  34.5933839  38.6630414  64.1817941
  45.3956699  35.5141211   6.8697852  46.3119698  35.7062888   7.0690465
  45.1538849  36.1611295   6.2070996  35.6093574  41.4336824  13.4050453
  34.9387884  42.0077944  13.7751293  36.3438892  42.0164347  13.2124519
  55.7201672  43.0968475  11.7359912  56.3287115  43.0435514  12.4729180
  54.9040556  42.7263403  12.0720267  68.4519053  63.2938671  20.0183821
  67.9221821  63.8144302  20.6222391  67.9299879  62.5075102  19.8587668
  32.6050520  67.5072527  30.3578091  33.0457473  67.9036570  29.6062207
  31.6797805  67.7170515  30.2309585  69.5799061  59.3537041  45.0045157
  69.6452518  59.2291781  44.0577042  69.6206566  58.4682891  45.3659189
  67.0994806  59.2474318   7.5568020  66.5939856  59.4956017   8.3308268
  67.6709890  58.5419798   7.8600341  54.7510242  14.9755752  19.9589968
  54.4514894  15.2218068  19.0838504  53.9461708  14.8626041  20.4646516
  48.6389180  17.4235223  52.7609134  48.8011714  16.4806960  52.7922917
  48.8932916  17.6809667  51.8747711  76.8352890  65.8798313  31.0871005
  76.1475801  65.4347563  31.5822768  76.5991163  65.7396793  30.1701427
  29.0341898  46.1353779  13.0375624  29.1253611  46.4828682  12.1503365
  28.2314631  46.5365601  13.3706009   8.0109125  15.1929712   0.7115021
   7.8309911  15.0763416   1.6443780   7.7154839  14.3773913   0.3068011
  62.2475004  11.3516784  38.9616036  62.4892426  10.9794927  38.1135058
  61.4708805  11.8804228  38.7785244  76.9714880  17.0810139  49.8042965
  76.9927263  16.1543977  50.0433874  76.6892099  17.5278759  50.6023359
  70.1477814  64.4298267  22.6949334  70.7639456  65.0218296  22.2635341
  69.3628740  64.4609165  22.1479559  57.8046894  69.9377489  18.2261217
  57.4957561  69.0969706  17.8886592  57.0637131  70.5314207  18.1047058
  65.2397728  21.9331169  30.9034085  65.4054308  21.4128351  30.1172185
  64.2867327  21.9356608  30.9925222   7.5048920   8.4562038  59.9930424
   7.7645441   7.9509709  60.7634646   6.8822595   9.1012881  60.3283459
  70.0882510   6.9478084  25.2232552  69.8055009   6.6478492  24.3593645
  69.3452004   7.4502803  25.5573678  61.8884993  30.6265950   7.1540177
  62.7006531  30.4895377   6.6663170  61.7997980  31.5780878   7.2089887
  33.5825205   6.7494988  33.5416436  34.0735817   6.5056819  32.7570152
  34.2548752   6.9284189  34.1990304  28.2437778   5.6730606   4.9877772
  28.6659503   4.8255636   5.1283109  27.5351977   5.4883911   4.3713009
  66.0039759  47.5870275   1.4154750  66.6791105  47.1580648   0.8897235
  65.2350807  47.6095390   0.8458052  62.5624323  28.3039093   8.5359937
  62.4336576  29.1877532   8.1917995  62.6934528  28.4296036   9.4758171
  24.5523262  67.7498055  26.6316009  24.8828554  68.5538530  26.2309885
  25.3282857  67.2000790  26.7407632  21.4009897  53.5268137  63.3274663
  20.9644739  52.7282783  63.6241645  20.7919161  53.9130160  62.6980961
  58.7991667  45.0135231  56.1704731  59.4893694  44.5961666  56.6859007
  58.0047750  44.5305967  56.3984013  34.6486688   8.7595713  14.4817483
  34.7984648   8.6091065  15.4151034  33.9591265   8.1386763  14.2466903
  67.8683329  64.8155165  45.6570578  67.3517275  64.6829462  46.4519024
  67.2177219  64.9051809  44.9607134  54.3160772  18.5915017  53.2228994
  53.4244967  18.8346386  52.9735088  54.2416906  17.6865709  53.5258818
  38.6037922  43.3993673   7.9114759  37.9729128  42.6822424   7.9743785
  38.1854558  44.0362740   7.3321873  50.3526469  33.2117770  54.7967637
  49.5827600  33.5628532  55.2442551  50.0164767  32.8855489  53.9620197
  15.5481120  22.8166173  57.4333310  15.5718585  23.4820102  56.7456371
  14.7460719  23.0045293  57.9208303   4.9886018  32.2963762  19.5809793
   4.7717452  32.8290248  20.3461528   4.7369373  31.4068484  19.8292494
  31.5639945   2.0003388  43.8660372  31.0642549   2.8165887  43.8812936
  32.3428985   2.1865438  44.3903125  40.6341394  58.7898132  64.2741793
  40.8431645  59.6244117  64.6936847  40.4466935  59.0195319  63.3640552
  53.2755375  34.0854096   6.3362968  53.5837460  33.3029556   6.7934668
  53.0346727  34.6924257   7.0361173  76.0665083  40.1917458  33.9048004
  75.3528643  40.8066750  33.7350655  75.9697342  39.5202327  33.2295704
  25.8026095  22.5346492  55.1355666  26.3079043  22.4276422  55.9414578
  26.3761588  22.1985791  54.4468487  63.8806486  21.3835478  26.2126303
  63.3548498  20.6687999  25.8535981  63.9232445  22.0278931  25.5060625
  39.0372062  68.9760637  29.8951244  38.7934375  69.6624517  30.5161572
  38.9927077  68.1662607  30.4035234   4.5639177  68.8573551   2.0402181
   4.4604059  69.1780043   1.1442812   3.7542292  69.1140509   2.4815220
  42.8875494  45.2746201   1.7492162  42.3229742  45.5149937   1.0145675
  42.9765320  44.3239498   1.6818450  53.6616901   2.3093654  41.2869978
  53.4138683   3.1562187  40.9159851  54.5854024   2.2083093  41.0572672
  54.7859812  22.6191592  37.3815441  54.1458368  22.1905541  37.9496503
  54.2578220  23.0664515  36.7203236  32.5476527   7.1156693  14.1882074
  32.8895426   6.5533608  14.8833001  31.5968394   7.0276964  14.2548788
  77.8095408   5.0981353  63.5162974  77.2716495   4.6621345  62.8553805
  78.1627246   5.8669255  63.0685763  44.4323226   5.3148578  47.5181091
  44.2714568   5.3493903  46.5751553  45.0232383   6.0486339  47.6873040
  62.7357340  14.3397105  37.0726204  62.2427654  13.9666712  37.8034091
  62.2107840  14.1331208  36.2993288  24.0811586   1.3641769  10.1573753
  23.3806157   1.8194455  10.6244969  24.5427585   0.8733204  10.8372414
  26.5484595  39.6289396  15.0916064  26.3172650  39.2881608  15.9556961
  26.1776376  38.9954734  14.4772422  55.5812359  33.1787610  28.9757681
  54.7512674  32.8673983  28.6146069  55.4261017  34.1030765  29.1701984
   5.2728788  52.8455576  61.8881494   6.0738175  52.4816069  61.5109638
   4.9792234  53.4932384  61.2474412  35.7168913  24.4002628   4.4712776
  35.7250309  24.7925854   3.5982096  36.4169908  24.8513484   4.9430975
  67.6622057  36.5738726   0.8159156  66.7299080  36.5327024   1.0288967
  67.6863098  36.6733003  -0.1358014  76.3299704  27.6338601  21.5506339
  77.1000290  27.6600385  22.1185708  76.6546583  27.9111385  20.6939387
   2.3351809  52.6593828  43.6804199   1.9715449  51.8736601  43.2721996
   3.2696768  52.4723387  43.7696218  77.5914478  28.2372880   8.2988071
  78.4791946  28.5686302   8.4342808  77.0283222  28.9998484   8.4315592
  15.0028174  69.6477911  56.3288492  15.9397022  69.6327087  56.5244317
  14.8923389  68.9969823  55.6356865  74.7587776  71.7541425  11.8644476
  74.4100213  72.5840797  11.5391707  74.1761184  71.5156461  12.5854611
  73.1469437  67.6938912  46.4653874  72.9478689  66.9158908  46.9862700
  72.9118772  67.4494335  45.5702818  24.2862010  18.1337631   7.6789314
  25.2184606  18.2628262   7.5043803  23.8597870  18.3007276   6.8383813
  58.3654737  34.6610427  12.9984152  58.9280224  34.3538666  12.2874892
  58.9730120  34.8994207  13.6986351  11.5398832  39.7306609   6.1636835
  10.5851694  39.6992636   6.2249482  11.7123076  40.2192116   5.3588092
   5.1223894  14.6126485  48.0484676   5.9139010  14.6026158  47.5102806
   5.4412695  14.5115423  48.9453077  34.0261030  63.5086250  28.0814481
  33.9633083  64.3938303  27.7226925  34.5899916  63.0401897  27.4659586
  74.2943760  39.4374278  38.6945164  73.6840816  40.1457450  38.4894431
  73.9348312  38.6734351  38.2436550  56.2262249  29.6259999   5.5862617
  56.5306616  28.8380694   6.0364974  56.6110182  29.5660019   4.7118691
  64.4138575  32.7356839   7.5873530  65.0167036  32.3093605   6.9782090
  63.8980722  33.3271623   7.0393080  62.8360796  48.7243748   8.2411706
  62.5561142  48.1338787   8.9405745  62.0242453  49.1161060   7.9191381
  33.6889335  15.1986239  40.6766713  34.0264674  16.0787891  40.5105245
  33.8463422  14.7237418  39.8606169  58.4520026  13.1848214  52.9917717
  58.9061042  13.9582799  53.3261156  58.3406993  12.6224158  53.7582851
  49.2286416   1.9341348  62.0003060  48.9281531   1.1702893  62.4927286
  48.5942098   2.6193641  62.2105116  66.1419487  38.5828805  19.5517719
  66.9211388  38.0270576  19.5639265  66.4096069  39.3805575  20.0081730
  30.7848811  66.3720465  33.9061189  30.6398535  67.2741604  33.6208224
  31.5435863  66.4237261  34.4874358  57.3833561  70.5290270   4.5858172
  57.2692060  70.6846285   5.5233622  58.1499577  69.9586296   4.5292875
  24.1794038  52.8663397   8.9232427  24.8558807  53.3930683   9.3488771
  24.4400668  52.8402710   8.0025870  11.6756010  29.3337631  19.0647030
  11.6657376  30.0122213  18.3895528  11.2500727  29.7406840  19.8194039
  44.5175429  24.4056962  57.7265966  43.6477586  24.2023347  57.3825729
  44.6608325  23.7560008  58.4147793  77.9638668  43.2113132  50.6162870
  78.7306066  43.1313249  51.1836851  78.0948444  42.5453308  49.9413479
  36.7204686  22.7784751  61.6348574  37.5473615  22.4120019  61.3215280
  36.9485923  23.2188008  62.4535766  11.7255827  67.2904158  15.5474186
  12.6069113  67.2027349  15.9104705  11.1509939  67.2992325  16.3129222
  47.4462128  53.1209660  20.8044672  47.3521757  53.3181858  19.8725367
  46.6448116  52.6493359  21.0315275   0.1300331  73.2793808  20.8308434
   1.0111757  73.1574917  21.1843419  -0.4248861  72.7175140  21.3717723
  14.0520545  10.3128694  61.3113988  14.6358415  11.0600017  61.1801982
  13.2687088  10.5292867  60.8056668  76.1765528  53.8173389   9.5986646
  75.8736372  53.2791185   8.8673687  75.5929089  54.5760107   9.5955521
  42.9176807  12.5663126  23.3118463  43.6016703  12.8129613  23.9343858
  42.1416903  13.0423665  23.6075568  76.8704605  55.2274227  57.5739050
  77.5228214  55.7967043  57.1657705  76.0644579  55.3992605  57.0870113
   9.0478253   8.9145042  27.9776978   9.9595380   8.7836791  28.2382751
   8.5439897   8.7383701  28.7722802  53.6965418  68.0834150  13.0876744
  53.8443756  67.6361704  12.2543955  52.8106451  68.4385681  13.0150175
  71.1644316  73.3079290  18.7041497  71.2118864  72.3719311  18.8988090
  70.6938267  73.3559465  17.8720117  37.3146602  36.7417167  62.9681036
  37.6088210  35.9660838  63.4456931  38.0942031  37.2934745  62.9040028
  16.4783021   7.4422763  46.7356360  16.5331288   7.4711392  47.6908291
  16.1299153   6.5720294  46.5419173  59.4738837  19.1416238  57.5535864
  59.0683528  18.5509847  58.1883490  60.3124019  18.7298177  57.3449344
   9.2762538  15.7238982  54.0863168   9.9725004  15.6311677  54.7366041
   8.7345859  16.4409469  54.4159651  77.7265215  44.1461515  34.0135598
  77.4287796  44.9030876  34.5181680  77.7289343  43.4247875  34.6427298
  22.5867029  44.3608141  16.4904368  22.0136877  44.8239803  17.1014762
  22.5394579  43.4450722  16.7650640  58.4962988  41.7839527  13.4210110
  58.7695694  41.0637617  13.9892387  58.2054377  42.4678707  14.0242422
  18.0161425  45.0752306   5.7543355  18.8359972  44.8683500   6.2029660
  18.2757898  45.6486893   5.0332534  45.3385830  56.3202953  19.7399521
  44.9926424  55.4497957  19.5430100  45.4894447  56.7177343  18.8823318
  76.8102598  52.7773857  42.1819973  76.3080406  52.6961184  41.3711929
  77.2981596  51.9562674  42.2448444  30.0775095  74.1623116  19.9433255
  30.9882685  74.4508076  19.8840451  30.1347586  73.2272434  20.1397943
  63.7800646  67.1990347   3.5094130  63.0115557  67.6823187   3.2059893
  64.1005182  66.7449427   2.7300912  24.8738810  27.1622133  23.3837223
  25.1877924  26.5739703  22.6969433  24.0398642  27.4945045  23.0517173
  11.3489290  71.5512419  30.1570034  10.9019419  71.1704063  29.4010973
  11.1586424  72.4876642  30.1010418  68.6764002  23.0352116   2.3620428
  67.7283669  22.9913473   2.2373794  68.8528919  23.9602613   2.5334150
   7.1061941  54.5617056  21.2021828   7.2935339  53.6311340  21.3253450
   6.2410494  54.5797491  20.7930088  34.1437980   6.9086335  61.5604446
  33.6210223   7.5657437  62.0199442  33.9565822   7.0587657  60.6338147
   1.3773390  35.1535749  11.9774151   0.8752104  34.4852662  12.4437380
   0.7365509  35.8340025  11.7709315   4.1333243  61.9363165  19.5160472
   4.2855497  62.1381426  20.4392624   4.2193361  60.9845448  19.4616079
  68.9173365  34.4422412  19.9765158  69.2790413  34.0690303  19.1727018
  68.6759663  35.3371668  19.7376025  12.0303556   5.2245591  50.6680918
  12.6613899   4.7770951  50.1043487  11.5115186   4.5188592  51.0541344
  14.6384951  20.6551266  35.4140067  14.6204992  20.8078980  36.3587642
  14.0599772  21.3262105  35.0518012   3.5257268   7.1728946  17.4790430
   2.5916600   7.1823360  17.6879942   3.8902784   6.4902164  18.0423152
  46.1371585  22.0579837  62.3542910  46.1077376  22.9523252  62.6941651
  46.4482518  21.5319131  63.0909765   2.8920531  23.4308673  29.5212078
   3.3577752  24.2270709  29.2654967   2.1126628  23.7458373  29.9790049
  25.4880810  50.8228588  12.7884448  25.7437730  51.6029787  13.2806516
  25.6614161  51.0487604  11.8745768  66.3893270  68.6993265  34.6818733
  65.7820129  68.7830162  35.4169917  66.8037748  69.5595121  34.6144700
  67.7971125  43.6481810   0.5491646  68.5804796  43.5863018   1.0957354
  67.2576475  42.9048538   0.8187512  66.4138222  28.3835840  26.5912414
  65.8633995  27.8111672  27.1256614  65.8296347  29.0910172  26.3183045
  19.5964476  68.1472206  23.8617015  20.3201910  67.6944113  23.4288263
  18.8452955  67.5657892  23.7436438  25.8980771  24.9392245  54.0555847
  25.9320470  24.0135644  54.2969096  25.5188533  25.3723500  54.8203212
   7.1540114  43.3918858  16.8840766   6.5371271  42.6813936  17.0598078
   6.9662424  43.6547279  15.9830260  61.1464500  64.1412258  29.8981881
  61.0065365  63.1963730  29.9607491  60.8988285  64.4775629  30.7594609
   8.8702290  49.6802553  59.8864824   8.7007324  48.8686046  60.3647369
   9.8005144  49.8534390  60.0307176  58.0669546  34.0886450  48.0087852
  58.2501411  34.0257835  48.9461851  58.0021143  33.1796527  47.7159262
  18.9502883  10.8166458  13.3491504  18.6522317  11.2851097  14.1288531
  19.6708274  11.3483955  13.0110693  68.9827061  44.6396732  37.3162603
  69.2301178  43.7436247  37.0879698  69.0289736  45.1190567  36.4890456
   7.9303881  24.7806237  59.8004183   7.5802680  23.8918136  59.7398839
   7.2678348  25.3282378  59.3792629  70.4095268  60.6171560  31.1955547
  69.6916342  60.9372807  30.6493092  70.1069164  60.7541847  32.0932627
  39.2482778   6.1956904  43.1896341  40.0948401   5.7490609  43.1803835
  39.0184518   6.2541698  44.1169918  76.1844826  59.4735241  56.8534756
  75.5316496  58.7767887  56.7856789  76.1133718  59.9497080  56.0261726
   4.0368029  71.0098743  23.1083608   3.5080095  70.5959082  23.7904501
   4.9107596  70.6367779  23.2233477  47.6810761   3.7701057  24.3116272
  46.9586154   4.3978093  24.2950905  48.4643765   4.3027900  24.1740549
  71.9528866  61.4493084  39.3335962  72.3858070  60.9723616  40.0416422
  72.6655579  61.7123318  38.7512302  66.0596132  47.3280811  17.3677492
  66.4544964  48.1093264  17.7549946  65.9427691  47.5514030  16.4443278
  66.4300299  58.8707495  20.6814814  66.1097288  59.7727680  20.6815863
  67.3817158  58.9545298  20.6222892   9.2233698  63.1085154  48.7321460
   9.0716450  62.1676084  48.8210571   8.3512013  63.4803983  48.6007655
  34.7311421  19.7709582  62.2272229  34.6158572  19.4915174  61.3190082
  34.5697328  20.7142947  62.2098959  67.4391127  57.1439552  37.2022772
  67.6579142  57.0500660  36.2751627  68.2810688  57.0869446  37.6540399
  54.2755862  40.4605029  48.6623121  53.8430759  40.9434579  47.9580939
  55.0450488  40.0703118  48.2476914  19.9188944  66.0010624  28.7049699
  20.5329462  66.4138651  28.0977011  19.8159071  66.6384506  29.4116282
  30.3791090  36.5064430  15.2100480  30.1271006  37.3492408  15.5874336
  30.4145666  36.6672468  14.2671192  62.1486282  53.6954355  24.9647141
  61.3567972  54.0751314  24.5838332  62.4983883  54.3859291  25.5278468
  48.0230999  74.2483854  21.0535455  48.1734467  74.8729610  20.3439426
  48.8523626  73.7778664  21.1381936  46.1927652  44.3105650   2.4414997
  45.8207321  45.1269817   2.7750939  47.0740509  44.2792273   2.8137770
  10.9854742  44.0717506  26.8261409  10.5459067  44.7463560  27.3437548
  10.4099604  43.3094025  26.8880558  27.4208756   8.2283805  61.1250186
  26.9835492   7.5854705  61.6832727  28.3387872   7.9569839  61.1208648
  73.8818912   2.7812292  39.5858788  73.7717084   3.6545469  39.9619198
  72.9891280   2.4560691  39.4697714  68.1096745  49.3995619   8.7519652
  68.0717230  50.1669693   9.3228191  67.2625113  49.3903017   8.3064771
  52.9854488  72.4358225  23.7128615  53.7280941  71.8335390  23.6685658
  52.6055765  72.2844267  24.5783162  67.4997016  52.8510783  56.3331121
  66.7445632  52.8174518  56.9203669  67.8097602  51.9465278  56.2896234
  54.1465541  51.5721725  62.6998902  54.5177814  50.6901668  62.7222865
  54.7062751  52.0521854  62.0895326  52.2597837  72.2991800  26.9362378
  52.0421171  71.4262819  27.2631931  51.4123011  72.7259064  26.8101025
  59.5190668  29.8563409  33.1336689  58.6144066  29.8195529  33.4442639
  60.0452518  29.8927069  33.9324427  47.8872871  73.0960560  27.1759939
  47.7474117  73.9601278  27.5633526  47.0815992  72.9177666  26.6909051
   3.6344668  16.7343986  17.1755958   2.8919455  17.1789765  17.5845623
   4.4048926  17.1347082  17.5786197   7.6599928  35.2834320   9.6802109
   7.0161959  35.0923109   8.9981395   8.5012194  35.2790856   9.2235285
  30.3468299   8.4943534  38.3578444  30.2658630   9.2735626  38.9078569
  31.2425590   8.1901027  38.5039020  56.2391186  57.2469282  31.9118237
  56.3343048  57.3326349  32.8604150  56.9603682  57.7626419  31.5511680
  12.7886101   1.3619588  60.9621805  12.4693199   1.7138169  60.1312295
  12.1862265   1.7128275  61.6181198  72.1244983   2.4174978  35.8976531
  72.0356206   3.1554128  35.2944851  71.5351323   1.7495204  35.5473900
  43.8455173  32.0607112  56.5057534  43.8412257  31.2456296  57.0076084
  44.1021892  32.7307342  57.1393293  45.9419890  17.7636264  51.5200210
  45.3802272  18.1605886  50.8543790  46.6491481  17.3528026  51.0226453
  43.6707401  69.1948223   6.9271201  43.3740854  69.4258165   7.8073871
  44.0307760  70.0086021   6.5744621  37.2196790  40.6306623  63.1863319
  37.3950788  41.5368150  62.9326552  37.3700400  40.1249621  62.3876491
  33.7906432   4.4353486   7.1370888  34.4611335   4.3474199   6.4596373
  33.6983371   5.3799201   7.2615498   3.2410761  51.5101385  34.2499614
   3.6605307  51.2561369  33.4279108   2.7925821  52.3308992  34.0463996
  23.8950487  62.1069431  26.0823178  23.0991312  62.6329470  26.1602354
  24.0380713  61.7572308  26.9617939  62.9798031  41.4407301  33.5273552
  63.5301018  40.6779575  33.3496499  62.5260305  41.6064358  32.7010012
  37.8068133  70.6855914  37.7909148  38.3318301  69.9784681  37.4159992
  38.2997378  71.4815160  37.5915063  24.5182872  64.5961905  20.5755854
  24.0421438  63.8121891  20.8491945  25.4369783  64.3275642  20.5666876
   4.5453879  50.4386997  11.3577247   4.0505263  49.8265457  11.9023418
   4.9129721  51.0680819  11.9782007  76.1304760  47.8020048  14.1063929
  75.4629517  47.3338270  14.6078455  76.9537830  47.3789930  14.3502295
   2.8520247  62.9131126  34.4538879   3.5218474  62.3659420  34.0437984
   2.0225187  62.5198269  34.1828036  28.8901349   4.0523837  43.3676470
  28.8977834   4.5000194  42.5215996  29.5695182   4.4931291  43.8779605
  45.5867072   2.3772286  60.9963945  45.3575727   2.5555323  61.9084996
  45.5414935   3.2313703  60.5667094  22.0903059  65.8497763  26.4148855
  21.9328543  64.9474478  26.6928244  21.8363997  65.8639097  25.4920816
  78.8747168  59.5393181  54.1345072  78.0258179  59.9405813  54.3204975
  78.6635113  58.7581110  53.6232948  38.4759116   7.1946861  19.1437769
  38.6812186   8.1283714  19.1918921  39.3264747   6.7592193  19.1998911
  31.5028497  53.4299205  63.6776565  32.4191161  53.3463691  63.4136375
  31.3939544  52.7814982  64.3732962  59.2816734  31.0311270   9.1678864
  59.5967388  30.7644248  10.0315058  60.0778484  31.1744285   8.6562186
  56.4108229  57.0782614  38.6909604  56.9098330  56.2625837  38.7344456
  57.0574427  57.7638483  38.8585329  13.4090257   5.7328273  46.8438625
  12.9340053   6.2768127  46.2156391  14.2703605   5.6046249  46.4464998
   4.5758196  51.6845131  50.0225401   4.7791716  50.9657240  50.6210566
   4.3084665  51.2523746  49.2113590  44.9519304   6.6980770   0.5074942
  45.4989866   6.1399105  -0.0451458  44.7757200   7.4694517  -0.0311792
  51.8136597  67.8121853  42.7577448  51.7432022  67.4631357  43.6462450
  51.4784384  68.7062883  42.8243828  28.2684299   7.3277400  57.8047586
  28.5931417   8.1581948  57.4567098  27.3153850   7.4104426  57.7716530
   8.1801840  53.8368130  37.8924561   8.5414072  52.9561853  37.7912545
   7.2902437  53.7719202  37.5460029  34.3960285  40.1221752   4.2311633
  33.8820457  39.3213558   4.1275379  34.1469574  40.6651020   3.4832141
  35.9242984  14.3228124  55.2531052  36.0366221  14.0864966  54.3323612
  34.9770041  14.3099139  55.3898496  71.5642118  51.0321617  26.2240386
  71.6888618  51.9300270  26.5315008  70.7197762  50.7687950  26.5898252
  70.1382351  43.5575581  18.2324743  69.5516253  43.9006662  18.9065647
  70.9959984  43.5238886  18.6559546   1.2170263   3.0610213   2.7685714
   0.9984156   3.4907961   3.5954553   0.3703781   2.8189665   2.3932923
   3.4089419  42.2278023   1.5978049   2.5172850  42.3210144   1.2623900
   3.4595247  42.8532457   2.3206432  77.7955055  51.1517954  31.1580801
  78.6924601  50.8754063  30.9701729  77.7642918  51.2318516  32.1114159
   1.0588785  50.6950474  30.1894665   1.4796015  51.4469957  29.7725677
   1.5946718  49.9458885  29.9288630  66.3230658  51.8183184  17.2454798
  65.7751656  51.9514942  18.0189776  67.1332788  52.2885942  17.4420238
  48.9895984  12.3987315  33.0622256  48.6024638  13.0977557  33.5892189
  48.3585044  11.6810201  33.1155861  28.4535523  26.4730714  59.1372216
  29.1094180  25.9109471  58.7248034  28.1002542  26.9964717  58.4178734
  28.9403959  52.6055336  28.8688397  29.6799132  52.7555084  29.4577909
  29.3180605  52.1364689  28.1248069  31.5353533  23.9767408  14.9726748
  32.2046991  24.4468498  14.4754755  31.3645693  24.5347166  15.7314420
  38.6283704  57.5936530  62.1063021  38.7193843  57.7141688  61.1610911
  38.7666675  56.6563628  62.2426610  78.5989237  36.4884400   0.4639028
  79.0876007  36.3252974  -0.3428274  78.9255190  35.8315444   1.0787652
   6.2562891  24.2854476  22.4866152   6.0878798  23.4270811  22.8753042
   6.8325850  24.1033554  21.7443514  66.1142588  32.9396868  57.2333145
  65.5993509  33.7408257  57.1370173  67.0118141  33.2065272  57.0347595
  61.1870718  49.7454023  13.2965648  62.0807362  50.0754023  13.3898342
  60.9812212  49.3665886  14.1511762  71.9282103  57.3645353   2.0135310
  71.9293880  57.9896832   2.7383879  72.1471357  57.8898144   1.2438650
  46.7997952  41.6980432  63.3346774  47.7097770  41.6945289  63.6315908
  46.8116113  41.1950753  62.5203598  55.5730724  61.2441874  25.5489230
  55.2356148  60.9885979  24.6904182  56.2481213  60.5942345  25.7441258
  11.1235949  64.5562696  26.2337446  12.0263716  64.2464590  26.3061571
  10.6246134  63.7816620  25.9744573  76.3072920  33.9441131  43.3992326
  76.4672184  34.8588012  43.6316145  76.4474058  33.4619353  44.2141593
  74.5215464  44.5703697  37.9697418  74.4747591  43.9995718  37.2027802
  75.0685596  45.3040791  37.6892376  51.3607931  55.6574583  26.8795991
  51.2795925  55.2349854  27.7346730  52.0381308  56.3222218  27.0042491
   2.9135871   4.2056228  30.7796478   2.0872283   3.7258579  30.8361411
   3.3813644   3.7923194  30.0539756  76.3746861   4.8573066  11.7350268
  76.2141780   3.9446546  11.4951694  77.3009995   4.8825551  11.9748962
   3.0331370  55.7019043  16.2198317   3.9876600  55.6722450  16.2850332
   2.7686735  54.7840595  16.1577702  38.4578180  61.7653990  24.7634315
  37.9774117  60.9707499  24.9957514  38.5118604  62.2602558  25.5810046
  37.1380588   3.7429545  59.9028367  37.2282525   3.2306455  59.0993226
  36.3356229   4.2490123  59.7754273  20.9545922  -0.1675414  12.0776165
  20.9400153   0.7722141  11.8962884  20.0456500  -0.4468010  11.9677365
  78.1523684  31.4552356   9.1844052  77.9687051  31.8528415  10.0355268
  78.8546065  30.8287193   9.3592572  75.1085901  54.8670769  21.8641567
  74.6237135  54.9726486  22.6826811  74.4398880  54.9189806  21.1812449
  61.9384146  70.5101538  48.1280375  61.3130045  70.8909178  47.5115013
  61.4440632  70.4141426  48.9420605  71.9425535  71.8738699  10.9170699
  71.9084263  70.9547472  11.1821759  71.3961601  71.9172525  10.1323378
  59.4129515  30.3367972  21.5297079  59.9168396  30.1274991  22.3161697
  58.4989357  30.2578759  21.8028092  10.5199476  61.3402891  30.7156515
   9.6787115  61.5496206  30.3097820  10.8554217  62.1835041  31.0200810
  38.8890720   7.8996612   3.3014005  39.8247028   7.6977683   3.2939759
  38.4670234   7.0898773   3.0144024  29.9305797   6.4715816  28.3436894
  30.0154853   6.3108875  27.4039030  29.4141650   7.2753002  28.4035540
  26.6524931  56.1646557   1.3256709  26.4939352  56.2230349   2.2678405
  27.6012274  56.0639858   1.2482367  48.9721652   4.8260663  55.1653779
  49.8176786   4.6440909  55.5755317  49.1811915   4.9808524  54.2441929
  50.7750750  50.9471226  37.9324579  51.6334248  51.2004137  37.5928760
  50.9688568  50.3231001  38.6319375  43.4545660  72.1871090  39.1631079
  43.0554247  71.5369272  38.5850239  44.2930269  72.3926306  38.7496185
  22.5436807   9.9836780  22.6507711  22.7727151   9.7050811  21.7641163
  23.3696580  10.2873851  23.0272770  11.2467524  54.8626375  12.8000546
  12.0357081  54.5637465  12.3478961  11.5386339  55.6096172  13.3226049
  54.7560263  16.3274777  17.4366212  54.4397736  17.1952677  17.1853101
  55.6952906  16.4464045  17.5775659  68.8958836  22.1273971  32.3580956
  68.4573793  21.4241290  31.8791771  68.3515787  22.2648048  33.1333923
  26.1479517   3.7883860   9.4671839  25.6915518   3.6351326   8.6398721
  27.0263811   4.0667546   9.2081350  20.3598380   2.3243774  23.7781811
  20.2107882   1.5527093  23.2317901  21.1581612   2.7172083  23.4252024
  64.0532732   4.5682952  21.2828684  64.6736622   5.2968204  21.2582707
  63.4208441   4.7688618  20.5929136  57.2994661  29.6101427   3.1926468
  58.2444763  29.7581887   3.2283735  57.1660662  29.1069245   2.3893990
  42.4167585  15.9835315  22.5531769  42.0729208  15.9454429  21.6606784
  41.8257523  15.4280078  23.0614471  27.2630191  34.4330406  21.3756943
  26.3691330  34.7146916  21.1810923  27.6795053  34.3482780  20.5180311
  33.9139434  63.3488475   8.3308244  34.8499223  63.5341178   8.4073037
  33.6259671  63.1948148   9.2305893  38.0427190  73.3305615   9.1269624
  37.4282237  74.0395331   9.3166667  38.8166925  73.7717088   8.7768340
  16.7154495  31.9592955  58.7802983  17.0466463  31.1273166  59.1184551
  17.5011198  32.4477949  58.5346937  73.7011719  73.2955007  33.4355307
  74.4599795  72.7121946  33.4213996  73.9683342  74.0488368  32.9088974
  58.4005213  29.1918302  17.3635459  58.4818220  29.0467763  16.4209008
  58.6435699  30.1094580  17.4865139  60.5434485  70.9030201  50.4234552
  61.4412375  70.9675168  50.7491064  59.9977752  71.0111378  51.2024164
  39.0601464  68.1965779  21.1265612  38.8291188  67.6196294  20.3985572
  38.2577439  68.2618986  21.6443539  44.2476686  10.8826253  55.2977419
  44.4465872  11.8157550  55.2207142  44.4653328  10.6653592  56.2041915
  75.5128622   1.1489556  24.1570461  75.5383658   1.5442823  25.0284231
  74.6983170   1.4715312  23.7714374   5.8413117  59.8376748  26.2296570
   5.5503408  59.8281809  27.1415103   6.1001913  60.7453176  26.0702908
  44.9383545  28.0947304   2.3874190  45.8486986  28.2116151   2.1156716
  44.5855379  27.4515748   1.7725179  15.2274343  70.4721855  36.4128137
  14.3548509  70.4758258  36.0193419  15.4136058  69.5472132  36.5740490
  26.8305083  50.6326936  10.3163135  27.4791785  51.2198947  10.7044590
  26.8676826  50.8210610   9.3785667  47.3700237  42.6552868   6.1771244
  47.4814701  41.7926359   6.5766829  48.1828165  42.8019619   5.6933033
  20.3643887  62.6106903  25.0239456  19.5100109  62.1792170  25.0341785
  20.5668585  62.7630016  25.9470046  71.0649391  22.4544129  54.9706453
  71.5130611  21.6553804  55.2480698  71.7563816  23.1151017  54.9302745
  77.2494698  19.6744621  20.4715896  76.9167089  19.0952909  19.7859776
  77.7134705  19.0919065  21.0728908  73.0518723   0.5648871  28.6440921
  72.6638174   0.0279510  29.3349957  72.3904800   1.2316016  28.4589267
   5.5168959  16.2231326  25.0807500   6.1061331  15.9911680  25.7985377
   4.8129316  15.5764270  25.1302457  24.2632695  56.3748787   6.7204636
  23.9041492  56.1040877   5.8755141  24.7239514  57.1929084   6.5338331
  17.6269953  68.5816690  61.2737176  17.9084627  69.3610903  60.7946465
  16.6717236  68.5962555  61.2147519  57.8692770  10.6373787  23.6811733
  57.6246071  10.4343212  22.7783251  57.8097343  11.5911067  23.7367392
  55.1970100  12.3720908   0.7733320  54.9135590  12.6246262  -0.1053681
  55.2208471  11.4154339   0.7516126  78.5699459  64.2343446  45.5607248
  78.8490292  63.3242365  45.6609667  77.7822300  64.3041011  46.1000526
   8.4686824  71.4317693  45.0403261   8.9638015  71.1825092  45.8206797
   9.0159436  72.0879914  44.6089172   1.6416021  12.0894194  24.7867870
   0.9039732  11.6822565  24.3325281   2.3749777  11.4933181  24.6349192
  28.5608618  50.2753350  60.3310395  27.9836599  49.9203560  61.0070980
  29.1961615  50.8052143  60.8125550  75.3870817  62.9470822  57.3593921
  75.5457540  62.6640317  58.2599133  75.1140209  63.8609430  57.4401629
  31.2449781  55.3090927  18.6508644  31.9376986  55.7564768  18.1648386
  31.6145460  54.4511220  18.8595379   6.8230240  22.3451921  59.7020281
   7.3783199  21.5714428  59.7978962   6.0519974  22.1543285  60.2361799
  13.2181255  73.3261463  62.7914061  12.7889483  72.5978395  62.3423997
  12.4992792  73.8961074  63.0646016  20.1057502  64.2040955   4.7297299
  20.2594920  63.3695458   5.1725882  19.2338058  64.1141366   4.3452230
  72.1662041  43.4157374  59.3498236  72.6979919  42.6251384  59.2582429
  72.7626034  44.0633681  59.7254753  50.2921649  14.5235274  59.5140290
  49.7055551  13.8163016  59.2457944  49.8494836  14.9329207  60.2574423
  75.9645983  37.7872859  30.1124394  76.3820787  38.5828019  30.4427350
  75.3200622  38.1007672  29.4779837  58.2847738  12.6574039  36.6056228
  58.2364273  13.1706893  35.7991290  57.5340748  12.9510760  37.1217990
  36.4795089  42.3805380  10.6297863  35.6506610  42.1955824  11.0714126
  36.8060422  41.5210533  10.3635371  23.4317915  55.4093131  56.5013451
  23.7293093  54.5043751  56.5951729  23.6223070  55.6307825  55.5898154
   7.0839735  20.5784059  11.0327506   7.6757284  20.2150178  10.3739631
   6.4752146  21.1229110  10.5335867  24.0839529   0.4947304  12.9271591
  24.6168709   1.2086109  13.2773077  23.1825161   0.8057569  13.0102575
  40.7995081  33.2146120   8.7763751  41.5568209  33.7776947   8.6162233
  40.0614166  33.8200521   8.8463706  39.5464730   5.1205945   7.7628016
  38.9447999   4.8504129   7.0690984  40.2604818   4.4844016   7.7217889
  12.2980587   7.1615693  61.1339844  12.2353499   6.5012619  60.4438433
  12.8326838   6.7489812  61.8123499   9.0178577  40.6755796  34.2106879
   9.9482052  40.6366664  34.4324267   8.5671274  40.5149668  35.0397122
  69.7418785  13.6268675  34.4088411  70.1468182  12.8930259  34.8711562
  69.2215919  13.2168770  33.7178707  58.6853361  48.6385632   5.6597334
  58.1718540  49.4055557   5.4061651  58.6685658  48.0731440   4.8875603
  23.7138148   5.8290694  62.1402607  23.9673825   6.1325286  61.2685681
  23.0102941   6.4217160  62.4049378  72.6376331   4.6283410  62.2971265
  73.5863733   4.5132421  62.2435114  72.5171018   5.5701278  62.4185589
  74.4406366  21.6216254  48.8109350  74.0502691  22.0580721  49.5681381
  73.7845469  20.9794307  48.5400772  72.5554844  33.1709829  22.0952976
  73.2820269  33.0933067  21.4769638  72.1336313  33.9991483  21.8663585
   6.1037080  74.0665899  22.0040631   5.3798597  74.1782250  21.3877821
   5.6799333  73.8503142  22.8346467  35.8770438  67.0357768  13.6247349
  35.2995320  66.6224472  12.9829657  36.7248174  67.0906870  13.1837142
  48.3401251  33.1786871   6.6559029  49.2680073  33.2287478   6.4262110
  48.2285738  32.2969031   7.0112151  77.4834490  46.4359713  20.2617192
  78.2780933  46.2133598  20.7467103  77.3697805  47.3753166  20.4064155
   0.3504316  35.2469641  57.7790588  -0.1565273  35.9167649  58.2379592
  -0.0414856  34.4186055  58.0555618  44.4643450  53.8362074  23.3541274
  45.1007986  54.5208549  23.1481647  44.2817879  53.4179354  22.5127292
  57.1586843  65.9924361  35.7466614  56.9846793  66.8434831  35.3445757
  58.1099626  65.9662196  35.8496797   2.4908301  48.4699011  12.4908125
   3.2213160  47.9884052  12.8791237   2.0469233  48.8739061  13.2364380
  55.5320519  16.3260339  54.5970702  56.1116913  16.0547708  53.8852656
  56.0965547  16.8224071  55.1896781  75.7398363  47.1323839  51.3832462
  76.4263054  46.7098561  50.8670497  76.1094900  47.2000435  52.2635913
  55.5840492  30.4274535  15.8484793  55.8555126  29.5097899  15.8276248
  56.0487652  30.7977033  16.5989351  52.6532824  10.0000690  41.0835088
  53.3600415  10.3211806  41.6435182  51.9090640   9.8915074  41.6756118
  37.9123612   6.0513232  57.6990605  38.2305928   6.8894408  57.3636246
  38.6814281   5.4815362  57.6884836  60.6064045   2.4768541  57.3437917
  61.0291159   2.2067903  58.1590295  60.3149730   1.6581677  56.9424767
  75.8246708  40.1359749  22.4962068  76.6012192  39.6109867  22.6900840
  75.2879000  39.5727730  21.9386101  28.3328096  24.6564349  61.1188942
  29.0849726  24.2504725  60.6880018  28.1155817  25.4064032  60.5651868
  19.3105928  63.8576790  48.6267674  19.4401257  64.7961899  48.4902096
  18.9271538  63.5469815  47.8066027  25.1792852  71.4441272  53.8023162
  26.1117737  71.5034148  54.0101063  24.7594254  71.2465831  54.6395302
   0.5532547  57.9442072  13.6719310   0.0740858  58.6442518  14.1152894
   1.1749884  58.4010744  13.1054091  43.7202406   8.2928395   5.9384525
  44.3414021   8.4331560   6.6530877  44.1676235   8.6304343   5.1624948
  34.1926646  22.5443149  10.8196342  33.3966756  22.8283477  11.2690330
  34.4096708  23.2704377  10.2349234  54.6983433  10.8944929  18.9076519
  54.9195910  10.9612930  19.8365331  53.8741779  11.3738203  18.8226724
  79.1347738  70.2243253  59.7370473  78.6070152  69.4758841  59.4585908
  78.5483404  70.7372829  60.2931047   6.6342823  22.6745817  37.5702107
   6.6778509  22.0639047  36.8344081   6.9625895  22.1737167  38.3169234
  52.5833460  49.1794154  55.7017523  52.2627922  49.1179940  54.8019159
  53.0285617  50.0259015  55.7401520  42.3992702  54.3751191  28.4017777
  42.3250218  53.8138197  29.1735697  41.6257211  54.9376474  28.4394193
  27.4030181  64.2951487  58.8716364  28.2267114  63.8106047  58.8170528
  27.3462363  64.7654621  58.0398798  20.3298732  20.3981374  55.5019129
  20.7687207  19.5744584  55.7145190  20.8417722  20.7628749  54.7800005
  63.7111660  46.9043466  43.8938415  64.1604682  47.0089099  43.0551374
  63.9571401  46.0278758  44.1896928  57.2692633  39.3897843   7.5868225
  57.2368717  40.1201534   8.2046783  57.5535154  38.6428475   8.1136209
  76.2141319  51.2587842  64.0815239  75.4127212  50.7708332  64.2709298
  76.2270637  51.3371178  63.1276220  50.2616378  72.3071209   1.2510502
  50.0757237  71.9178029   0.3965918  49.6271153  71.9018079   1.8420953
  16.6386120  65.9104392  53.8658238  17.0777933  65.2492139  54.4007385
  17.2340004  66.0581824  53.1310332  62.2359514  32.3378897  10.7268715
  61.8265772  31.8483233  11.4402926  63.0988026  31.9362187  10.6250024
  75.7545424  32.2682810  37.6839805  76.1558342  32.9746890  37.1778321
  75.2731609  32.7157927  38.3798480  73.5755821  46.3156894  56.4360380
  72.8462740  45.8696916  56.0054261  73.1689402  46.8026605  57.1527893
  48.1172323  14.3550098  13.6719465  47.3285389  14.8833513  13.7946212
  48.8391066  14.9759126  13.7699795  59.6021318  11.6117513   1.8892375
  59.5834351  11.8386889   2.8189591  59.2647076  12.3900890   1.4458764
  10.6116291  68.4458952  30.2442670  10.9375449  67.5593446  30.0892210
   9.8822423  68.3298652  30.8531713  75.1068497   5.7897753  27.0380664
  75.5261803   6.4613020  27.5760698  74.3131733   6.2096816  26.7064214
  48.1329727  17.5676000  35.4466033  47.4867964  18.1036329  34.9868679
  47.6231861  16.8534446  35.8291340  42.0350218  17.9446709  26.9568801
  42.0137215  18.7056530  26.3766360  41.1375666  17.8646517  27.2799945
  15.4182454  25.5996965  39.1865266  16.1496564  25.8877156  38.6403406
  14.7059222  25.4390023  38.5676491  52.5707789  68.7843441  29.5469666
  51.9857236  68.0326031  29.4529986  52.1796342  69.3061440  30.2476549
  13.6341616  34.2736292  31.7801619  12.7278658  34.5528269  31.6500807
  14.0065237  34.2505050  30.8986640  32.7160617  73.8715193   5.9738314
  32.7923318  73.3674450   5.1636934  33.1946918  73.3557655   6.6227865
  14.4321959  54.0951213  34.0656388  14.8333017  53.4226081  34.6161568
  15.0377171  54.8350116  34.1118586  60.7796049  34.3588495  25.5810785
  60.6178856  33.4728289  25.2569723  59.9437523  34.8114491  25.4682207
  68.1880470  55.4200431  44.2484892  67.4340626  54.9532553  43.8881386
  68.9381977  54.8659584  44.0328610  50.9140348  26.4085960   3.7080678
  51.4733171  26.6107893   4.4581041  50.9096575  27.2127485   3.1888849
  29.2415305  47.2385095  18.8597298  28.6030170  47.0818494  19.5554233
  29.9037858  46.5588282  18.9849567  37.7126694  49.3259621  18.4349370
  38.4256029  49.8723459  18.7657237  37.2474241  49.0379477  19.2203212
   4.6566813  59.0259334  46.6450179   5.0113575  59.8488042  46.9816458
   4.9463455  58.3651396  47.2740484  66.4079618  14.2931271  19.6554947
  67.1031332  13.7934470  20.0836158  65.6193686  13.7664604  19.7857845
  44.0328693  25.5202508  12.4991286  44.4667625  24.6744776  12.6115239
  43.4054184  25.3753161  11.7909408  73.0465889  12.8508685  46.9042623
  72.3005593  12.5194810  46.4044059  73.3786321  13.5816835  46.3828385
  62.7108908   7.7165860  15.6858385  62.2213984   7.4464154  14.9088955
  62.0819807   8.2211828  16.2016773  75.5890083  49.7636461  24.7849345
  75.0436211  50.4210424  24.3529439  76.0198164  49.3003035  24.0666366
  72.9647303  43.5088158  19.0373969  73.7114334  42.9710817  18.7737501
  72.6624393  43.1143093  19.8554540  31.3901206  17.5616572  47.9370785
  30.9965821  17.3565887  47.0889604  31.8883964  18.3641217  47.7821565
  14.6117254  34.7746325  17.0166123  14.9448916  35.2578425  17.7727485
  13.8427397  35.2704215  16.7354035  60.5979486  47.5004765  47.5683224
  60.1522633  47.5865754  48.4110463  61.5277072  47.5857946  47.7792728
  71.4261675  50.6775618  10.8665156  70.6161594  50.3376532  10.4862726
  71.8373632  51.1682177  10.1548934  37.3830100  10.4889796  64.3362853
  37.1725055   9.8829530  63.6258955  36.6141006  11.0550426  64.4039545
  30.5895567  40.3717566   4.4377720  31.4589024  40.0373411   4.6583039
  30.1422453  39.6281195   4.0338561  55.2257872  34.3927217  33.4755588
  55.8343315  33.9158750  32.9111791  54.3629694  34.0524459  33.2389402
   0.8104798  32.6858616  31.3884211   0.8168169  32.6652336  30.4314661
  -0.0580219  32.3634219  31.6291928  42.4022388  59.5934248   0.5743346
  41.9216824  60.4209995   0.5541142  42.6013231  59.4546223   1.5002573
  74.1815996  40.0674725  14.3514669  73.8101006  39.7278619  13.5372877
  74.0632868  39.3579555  14.9829888   8.0632870  74.2753431  64.6459421
   7.7381603  74.8259613  63.9336616   7.2791187  73.8595912  65.0043586
  67.7059889  31.9873619  44.3853235  68.3298016  31.2812304  44.5540428
  67.8171396  32.1881914  43.4560537  17.8206798   6.2188361  40.9415710
  18.6861154   6.6110728  41.0573781  17.5055905   6.0665200  41.8324960
  58.1275531  61.4719425  32.6815796  59.0045901  61.1550282  32.4657273
  58.1267806  62.3862361  32.3982120  34.6550751  10.7529628  12.5609148
  34.5463991  11.5861893  13.0193400  34.4103932  10.0904381  13.2069993
  13.4097405   5.2661822  62.9215011  14.3196126   5.0586484  62.7086839
  13.1548592   4.5994399  63.5592467  66.9466400  39.9077559   5.1287144
  66.1822510  40.2919579   4.6993798  66.6423988  39.0560603   5.4422164
  49.7775003  69.6322979   5.6207287  49.9425002  69.4107108   4.7042650
  48.8434955  69.4627719   5.7437176  42.8077745  15.1993382  26.9797134
  42.5092649  15.0206757  27.8714561  42.5972652  16.1221397  26.8370390
  69.6353292  46.5798044  26.9146037  70.1755524  47.2233248  27.3731637
  70.1927376  45.8047009  26.8457150  47.6942369  35.9076999  51.9103551
  47.1038934  36.5306781  51.4865387  47.7738591  36.2267087  52.8093136
  51.0256290  10.3997898   8.8260514  50.2312088  10.3806973   8.2924157
  50.7283545  10.6918347   9.6877754  77.6687952  66.2677452  36.3083041
  77.8604361  65.9712788  35.4185784  77.0594450  66.9966909  36.1918342
  36.9795799  21.3736844   7.3412025  37.0718908  22.2808695   7.6322746
  37.8219867  20.9689116   7.5479519  34.2753001   2.4962519  49.2729795
  34.7915813   1.7656801  49.6134973  34.7991439   2.8438066  48.5511565
  52.3805761  45.3808308   3.5341910  52.6713943  46.2281990   3.1971064
  52.8363562  44.7377920   2.9910600  77.4853448   1.1835147  34.1709709
  78.1800536   1.3510562  34.8077917  76.6741685   1.2903882  34.6677637
  33.3234283  32.7425883  60.0570446  33.5461160  33.1354068  60.9010431
  33.2990476  33.4808276  59.4482440   9.6940701  63.1665775  57.1718103
   8.9717762  62.5649592  56.9913030  10.4161398  62.8422233  56.6336298
  22.7358862  13.9139676   6.8664080  23.5979029  13.8596845   7.2789890
  22.3415133  13.0557370   7.0217878  67.9446840  43.6965609  33.1516862
  67.8358746  43.3272934  34.0280604  67.5744247  43.0362701  32.5658941
  12.1891519  33.9501069  60.6072754  12.0305558  33.0898831  60.9959853
  13.0028769  33.8439344  60.1145181  60.0285578  53.0741072   4.4919252
  59.2089653  53.5643721   4.5562688  60.5558872  53.5702085   3.8657904
  24.3355982  72.7657553  31.8651164  23.9619248  73.4694692  32.3955739
  24.9148123  72.2955033  32.4647868  46.0131093   7.7814220  56.4063937
  45.1856299   7.3005221  56.3904715  45.7986232   8.6132358  56.8286574
  76.3349386  45.0826707  59.6905455  75.6453081  45.7455429  59.6553225
  76.1945148  44.6350500  60.5249000   4.1694494  55.1033735  31.8354177
   4.7673269  55.7312965  32.2409749   4.7344729  54.3866348  31.5468669
  41.4312371  59.0463874  57.2063208  41.9641801  59.2002389  56.4262355
  40.8413192  59.7991702  57.2456581  68.3601332  16.8205309   6.2702596
  68.1950188  17.1596205   7.1500248  68.1322336  15.8924460   6.3246071
  23.4677287  17.6260636  53.6925900  23.5290166  16.7435239  53.3270788
  22.7859851  17.5615047  54.3613887   4.9204819  73.7859246  52.2226751
   4.3621819  73.6329266  51.4603615   5.7941429  73.9224192  51.8561733
  65.7023859  69.2850542  14.5275140  65.5552006  68.8041353  15.3419387
  65.1750374  68.8214636  13.8769603  75.8089828  39.3603706  18.8610291
  74.9576473  39.2068315  19.2707729  75.6844425  39.1048670  17.9470050
  59.1320896  47.0615625  19.8755276  58.6924410  47.8891802  19.6806288
  59.3757343  47.1313524  20.7985663  72.9595232  55.4349518  23.9465308
  73.5446453  55.5357075  24.6973372  73.0087423  56.2748861  23.4901047
  64.9343733  25.1885082   8.9801502  64.0690307  25.5692245   8.8302624
  64.9671225  24.4308330   8.3961260  26.2082934  45.1321888  10.2214217
  25.3843331  44.7376633  10.5072045  26.8412328  44.4148493  10.2537835
   3.5210538  14.0903808  12.4617708   4.1529822  13.9559604  13.1680489
   4.0552878  14.3318893  11.7051327  20.5999081  26.5816471  63.7248674
  20.6871931  26.0335895  62.9449660  21.0886137  27.3773196  63.5143838
   6.2124245  48.1735143  55.5780035   5.3067820  48.4465226  55.4313386
   6.6906921  48.9918872  55.7112587  65.7489157  23.9687133  17.0945907
  66.3533449  24.3049455  17.7562916  65.3101206  23.2334828  17.5225258
  31.6622087  19.9986098  27.7583850  31.2608214  19.2144082  28.1327379
  31.0138246  20.6889890  27.8969729  54.3373843   9.7508023  35.2660978
  54.3718215  10.0426791  36.1770618  54.2091437   8.8039229  35.3226602
  68.7040901  34.7386599  12.9556262  68.9853716  35.5015993  13.4606385
  67.8579903  34.9936175  12.5877392  13.5175654  52.9771757  12.4626291
  13.7742563  52.1378469  12.0806980  13.6072489  52.8480911  13.4068370
  40.6457587   0.6790398  34.1226304  41.4552709   0.2463649  33.8511265
  40.4075166   1.2307022  33.3775509  64.3367386  40.5630398   7.1714258
  63.9469099  41.0389805   6.4381158  65.1666546  41.0114479   7.3339146
  77.3554512  72.1415111  35.4036701  77.1382090  71.5116593  36.0909283
  78.3099647  72.2073266  35.4321277  69.6805096  12.4865150  16.2519383
  68.7588024  12.2312093  16.2131619  69.7495174  13.0145597  17.0473242
  65.8216663  67.4801942  46.2392366  66.4606806  68.1742665  46.0775018
  65.1438042  67.8977915  46.7706013  20.9710380  27.3198913  57.8914726
  20.5610677  28.0965541  57.5107533  21.7843934  27.6437638  58.2785005
  31.2015697  22.9432796  53.0045951  31.5158864  23.8085721  53.2667113
  30.6863233  23.1048987  52.2142577  12.3040434  69.6738291  34.7454047
  12.5420805  69.8428011  33.8338041  11.3727137  69.8895025  34.7936845
  18.3392283  20.0597143  25.0296855  19.2796465  20.0299406  25.2056384
  18.0854078  20.9593916  25.2355623  78.3864307  20.8211756   4.5192736
  78.2893848  20.6014538   3.5927022  79.0823078  21.4781690   4.5380208
  58.5132265  21.7875099   3.6392671  58.4165907  22.7365470   3.5604128
  57.9520512  21.4315534   2.9503495   0.5772873  29.2016292   5.8097947
   1.0859438  28.8689637   6.5492773   0.5856558  30.1522326   5.9216505
  15.1740305  69.5470521  60.8734349  14.5531933  69.2230436  60.2208925
  14.6308558  69.7773716  61.6271907  66.4229055  54.1158136  42.7821219
  65.5816766  53.7243363  43.0173123  66.3611861  54.2674824  41.8390310
  46.0142680   0.2556847  56.0362804  46.2212106   0.2036260  55.1031697
  45.2106925   0.7743500  56.0748244  74.3995190  49.4375610  37.2452545
  73.6905479  49.2711496  36.6240430  73.9632320  49.8056650  38.0136204
  73.8709831  20.5969095   4.2438611  74.4466305  20.2165055   3.5804221
  73.0237675  20.6806421   3.8063103  45.1259232  73.9476156  30.7424927
  45.8196449  74.5659590  30.9719038  44.6737242  73.7775946  31.5688324
  42.0249367  14.8677480  29.4604683  42.7723408  14.3770850  29.8023248
  41.3519716  14.7802234  30.1355171  65.8875128  43.6398592  46.7766309
  66.0125156  44.2144063  47.5319469  66.7628189  43.5437438  46.4013529
  29.5799398  35.7149911   3.5620755  28.9951205  35.3318644   4.2158574
  30.2513433  35.0475311   3.4208477  25.7194090  22.0022273   6.6104746
  25.5519414  21.7919540   5.6917948  26.6127086  21.6961694   6.7672420
  76.3408709  46.1013889  34.9818325  76.1583757  46.3456059  35.8891821
  76.8751049  46.8198442  34.6432352  11.6413824  49.3579015  57.1428442
  12.1252291  48.8377699  57.7843976  10.8204357  48.8816485  57.0185149
  60.7155657   1.7069598  -0.1039042  60.6673813   0.7932557  -0.3850716
  60.2337217   1.7288630   0.7228816  31.6742635  28.3893633   1.6490355
  31.1749935  28.4959841   2.4587235  32.2033644  29.1846538   1.5874183
  66.2674304  10.3052066  62.8412599  66.3646480  10.4867004  61.9064656
  65.7699557   9.4881843  62.8761459  55.6586456  55.9071827  15.8552992
  55.6628132  56.5947914  16.5211892  54.8934555  56.1022902  15.3143263
  20.8602428  11.6283298  21.3686705  21.4903998  11.2927759  22.0062733
  20.0251341  11.2406325  21.6304255  67.9556056  27.0136426  47.1495784
  68.6325236  27.5436328  47.5704372  68.4409877  26.3461183  46.6647589
  46.3367987  57.3091698  24.7597456  47.1926641  56.9008923  24.8902678
  46.1884356  57.8150940  25.5586576  57.0603228  33.6427546  23.5053444
  57.3060226  33.7301564  24.4263363  56.3537216  32.9970431  23.5061979
  71.1576843   7.9403049  38.7989759  71.9550848   8.1127489  38.2983232
  71.1923504   7.0028389  38.9892077  75.6949425  47.5659895   0.1211992
  76.5013885  47.4172544   0.6149180  75.6346560  46.8160725  -0.4705959
   0.4163119  51.0433817  38.8857579   1.0103365  50.9603024  38.1397939
  -0.0192121  51.8852854  38.7525153  36.4423820  28.1774543  58.7769091
  37.3423453  28.4573386  58.9441425  36.0014745  28.9656137  58.4596771
  54.6654101  31.6980956  60.6322772  55.1613208  32.4660991  60.9159550
  54.5328685  31.8318151  59.6937752  46.4956542  30.8299277  47.4023807
  47.2927066  30.3089307  47.4998677  46.0454341  30.7383226  48.2421077
  54.6700736  39.3969939  64.4820911  53.7169143  39.3424438  64.5510596
  54.9789210  38.5282300  64.7391774  18.9996573  44.1448355   9.8708612
  18.1217428  43.8505125  10.1135027  19.0282484  45.0622892  10.1423252
  66.0671329  37.5203896   5.6964147  66.6642809  36.9575381   5.2036262
  65.6664276  36.9377565   6.3415545  32.3674937  60.7362531  17.7142620
  31.8527242  60.2719282  17.0542264  31.8276282  60.7057653  18.5041022
  23.4448855  58.9368173  62.4030251  24.1427033  58.6279770  62.9808635
  23.9043943  59.3546602  61.6746766  34.1074797  48.6051846  15.8676505
  33.9066931  48.7216759  16.7962754  35.0571962  48.7113810  15.8127964
   7.3138758  15.6163883  20.1536965   7.2904726  15.5498803  21.1082983
   8.0194231  15.0258553  19.8896837  67.1712780  39.9928045  27.0184827
  66.5816212  40.0069761  26.2646008  66.8946695  40.7371712  27.5529337
  10.4203483  36.1473392  60.3785703  11.1474701  36.7367909  60.1783961
  10.8401223  35.3172372  60.6042958  73.4553269  62.3942327  49.0974140
  72.5502536  62.5492525  49.3676805  73.8034145  61.7955542  49.7582102
  31.0008629  37.8070000  28.0608237  30.8054407  38.2728890  28.8738405
  31.8825562  37.4578026  28.1908667  50.3023461  62.9470873  32.0359015
  49.4593409  63.3946466  31.9633508  50.9307150  63.6471128  32.2129536
  72.8922293  66.2998629  19.6313787  72.3441438  66.3816833  20.4118514
  72.8301970  65.3754187  19.3909848   5.8623999  59.9453783  38.3032465
   5.2341568  59.7720242  39.0043116   6.7142475  59.9462509  38.7398076
   7.4609915   1.8253566  45.3975248   7.6478020   2.7623083  45.4563618
   7.1436147   1.7001106  44.5031977  23.9990541   9.7268917  58.0430555
  24.9438659   9.8545505  57.9578257  23.7058217  10.4612972  58.5823965
  56.8862203  39.0121222  48.8633728  57.6164130  38.4144783  49.0242147
  57.3027018  39.8418641  48.6303377  64.9972840  39.9715880  17.2990954
  64.2132469  39.5940331  17.6978075  65.7197507  39.6446398  17.8351748
   9.2912352  41.8310308  27.3888969   9.6609128  40.9823227  27.6323485
   8.4735918  41.8868732  27.8834391  15.2397311  48.1570578  54.9870729
  14.3468678  47.9806757  55.2835798  15.4210031  49.0470648  55.2891684
  19.8894127  18.8791731  13.4211600  20.3600581  18.4602812  12.7005636
  19.6911152  19.7583464  13.0987274   9.3744940  31.4115548  50.3636742
   8.5065776  31.4293575  49.9603891   9.3118173  32.0268703  51.0942125
  14.8132181  44.1001368  62.0932817  14.6708965  45.0312424  61.9229460
  14.5396507  43.6644268  61.2860966  54.7404531  20.7470778   2.7665674
  54.9124979  21.0001019   3.6735499  55.5672796  20.9082011   2.3120034
  66.1178632  50.0263337  32.3601687  66.2118717  50.5397347  31.5577948
  66.0150762  50.6798294  33.0519926   9.8186234   0.6220581  33.6101294
   9.1239432   0.1863433  33.1163621   9.8429803   0.1598836  34.4480038
  52.9578425  47.7256897   2.1054423  52.6587937  48.6041096   1.8705380
  53.9029307  47.8185490   2.2255146  11.1424351  35.3275299  39.1206241
  11.2774611  35.6506085  38.2297707  10.2208459  35.5096245  39.3043280
  21.4520121  60.9556818  57.8118992  20.8749437  61.3721752  58.4520245
  21.1484408  60.0488615  57.7700996  71.8043085  46.9151619  19.8417055
  71.8546625  46.8763474  18.8866198  72.7139290  46.8493489  20.1323855
  67.1952704  13.7819625  57.3685741  66.8252496  13.7763740  56.4858007
  66.4436511  13.6407424  57.9442167  17.5632802   6.6188194  34.4965386
  18.0331437   7.2262813  35.0678897  17.1325771   6.0100891  35.0966859
  62.3543099  31.7062046  54.9599171  62.3958925  31.0010578  55.6058836
  63.2679466  31.8728973  54.7281599  57.9198720  43.9628724   7.2580302
  57.4821921  44.2294529   8.0664885  57.7103092  44.6562985   6.6323530
  71.7418698  19.1387321  30.4698229  72.0304612  20.0290061  30.2689290
  71.3006619  18.8444282  29.6729827  20.9875464  68.4781122  43.1587029
  20.5766463  68.4098721  44.0205240  21.7658257  69.0154505  43.3063030
  70.0853236  55.6190995   2.8909170  70.7505651  56.1431244   2.4447262
  69.9563690  56.0602311   3.7305605  15.7046854  47.5172663  47.1721029
  15.5272484  48.4424925  47.3415089  15.5856657  47.4196291  46.2273645
  32.2360063  42.8432512  61.0500908  32.2983479  42.2355938  61.7870474
  32.7843738  42.4520350  60.3700352  58.2166389  19.2101479  48.0159235
  58.0438808  20.1473999  47.9267931  58.8080791  19.0056765  47.2916126
  73.2698687  31.2933806  24.1921770  73.9347346  30.8985594  23.6279928
  72.7388211  31.8259171  23.6000407  11.9317865  28.9665246  34.2802835
  12.7348495  29.1130257  33.7804246  11.2638533  29.4681334  33.8128591
  55.9915785  64.1207578  26.4957678  56.8500952  64.2519142  26.0933077
  55.6233577  63.3672501  26.0343897  20.6534457  63.1255817  61.4609194
  20.4132128  63.8583326  60.8938169  21.4879155  62.8146315  61.1099148
  69.3997047  41.4249611  41.4353800  69.5478795  42.3217440  41.7354631
  70.2696595  41.0256958  41.4350033   4.2442665  30.0830603  50.6292295
   3.9571229  29.2139173  50.3492832   4.3443149  30.0081134  51.5782309
  47.7257301  14.4522503  23.2560408  48.2613661  13.7053707  22.9886496
  46.9211365  14.3651846  22.7448904  14.7320974  32.2331572  62.0322323
  14.0411782  31.9303846  62.6214600  14.8125267  31.5373015  61.3798904
  71.9829760  29.4647121  47.0918989  72.2243122  28.5444260  47.1970606
  71.0399643  29.4851542  47.2548199   6.5026283  50.6663561  38.9341903
   6.2175089  50.8605957  38.0413222   5.8113652  50.1081514  39.2902660
  30.2266598  72.3009157  29.1978884  29.5818543  72.9290581  29.5233035
  29.7302794  71.7303896  28.6110854  72.6059303  52.5066757   6.7431086
  73.4604440  52.6460600   6.3349295  72.0623396  53.2209921   6.4107072
  65.7182685  58.4219265  60.3109455  66.3534430  59.0018463  59.8908567
  65.6471804  57.6744223  59.7172976  20.0950692   5.3230668  36.6009903
  19.2271624   5.5460407  36.9375205  20.0469098   4.3849327  36.4171052
  76.7824204   3.8733102  42.4707556  77.0051797   4.7510816  42.7807951
  75.8377250   3.8033248  42.6081848  32.8275824  62.4591064  59.6827507
  32.1842718  62.2577953  60.3623486  32.4136925  62.1723747  58.8686800
  26.3165951  30.3205585  34.5181131  26.7742133  29.4879532  34.4015574
  25.3887510  30.0955510  34.4495058   4.6806508   1.6520374  36.8790746
   3.7274626   1.5648715  36.8871951   4.8842719   1.9737282  36.0008478
  35.8107314  12.6046134  21.0795665  35.9490947  12.1466018  21.9086075
  35.1702277  13.2853271  21.2859964  31.5321241  10.3497459  10.4722369
  31.4434437  10.1657916   9.5370746  31.7850492  11.2720634  10.5119812
  32.5110602  46.9041729  30.5251479  32.9081893  46.4890623  29.7595072
  33.2543898  47.2199392  31.0389400  14.0734458  29.7871256  32.6477718
  13.8209283  30.6309581  32.2730517  14.8579788  29.9784374  33.1617188
  58.3280019   6.9194271  40.3152084  58.3512906   7.3671485  39.4694924
  59.2197660   7.0001079  40.6535625  63.2508488   9.7192839   7.9741823
  63.9942499   9.1278818   8.0917847  62.8033467   9.7126797   8.8203060
  14.9586391  16.2895322  27.4165297  15.5166209  15.5145383  27.4818873
  15.3438759  16.8028247  26.7063498  62.5299505  31.7857075  47.4419832
  63.2459537  32.0316744  46.8562603  61.8708102  31.3993120  46.8653870
  16.6528594  32.2421789  36.5058327  16.1437535  33.0183864  36.7393875
  17.3108375  32.5638247  35.8895206  55.9758500  71.9330597  48.5283756
  56.8817452  72.2347975  48.4609842  55.4927853  72.6949883  48.8482809
  40.8664349  49.3198109  16.4140189  41.4589075  48.5815287  16.5559626
  40.8850554  49.4633675  15.4678285  26.5513561  71.0257031  14.2888701
  27.3223606  70.5324342  14.5689928  26.0094454  70.3832890  13.8307535
  22.1948314  70.2112675  12.7140117  22.4952364  69.8675299  11.8726826
  22.7667546  69.7968149  13.3600509   5.5534023  74.4054270  24.5681596
   6.4999849  74.3762541  24.7073054   5.1790047  74.1889572  25.4220915
  54.8931149   8.3547546  58.7118912  54.3085150   8.9224197  58.2096672
  55.4865793   7.9841472  58.0586815  18.9561903  33.3553171  53.2706451
  18.3215928  33.8126636  52.7189636  19.4141829  32.7662730  52.6710606
   6.7392343  55.0332546  51.0567379   5.9289777  55.4995537  51.2623596
   6.8497020  55.1496649  50.1130867  76.1074861  10.0923088   0.9580815
  75.3034361  10.5855683   0.7955134  76.1201866   9.9606684   1.9061005
  13.6547410  36.9187593  21.8696451  12.8625929  37.4368429  21.7270780
  14.2900109  37.5437212  22.2190547  78.9865859  58.6155510  44.9238205
  79.7340176  58.6947298  45.5165339  78.6555609  57.7298498  45.0727749
  26.9659964  71.5889241   5.6309616  26.8028227  72.5014259   5.3923285
  27.7679535  71.3584306   5.1619541  17.2687940   7.3903800  63.2030535
  17.4966995   8.2700683  63.5037851  17.7866260   6.8062355  63.7570000
  26.5867686  60.4383230  59.4889116  27.2669482  60.5693579  60.1495314
  27.0438814  60.5303812  58.6529636   5.2849787  58.2117128  49.3105936
   4.7293073  57.6026535  49.7969151   4.8542371  59.0606880  49.4102526
  39.3519878  70.7215309  11.3869941  38.4450698  70.8039379  11.6818511
  39.8750234  70.8961058  12.1694207  29.3078346   1.4415790  48.2024813
  29.1255204   0.5248548  47.9960728  30.1916988   1.5914298  47.8669834
  74.9481282  34.0099120  54.7763729  74.7477446  33.7687707  53.8719749
  74.1996071  33.6911678  55.2807045  66.6292588  37.7111554  41.9885159
  65.7802490  37.5545454  41.5751314  66.7461900  36.9705391  42.5835371
  28.3021593  28.2446527   1.9732928  28.4202790  29.0606833   2.4594754
  28.6378908  27.5661206   2.5590497  59.6918539   5.3146602  15.3002453
  59.3388275   6.1144020  15.6901431  59.5416883   4.6392394  15.9616733
  70.2060667  28.6088228  35.6347847  71.0457198  28.8018727  36.0518527
  70.1527671  29.2272592  34.9061370  11.0110915   7.8316319  43.5637856
  10.3492403   8.3222526  43.0764723  10.6626141   6.9413829  43.6112404
  54.5557884  42.3883915  46.4727402  54.8309854  43.2856894  46.2847042
  53.6066607  42.3980665  46.3490582  27.3823261  61.3838530  26.2053800
  27.2178626  60.8666086  25.4169369  27.0175052  60.8580589  26.9171929
  33.2418346  53.5666561   7.6369303  32.8694749  53.0516577   6.9211370
  33.8673520  52.9761076   8.0567074  48.3964123   8.9166048  19.6432364
  49.0026115   9.3704537  19.0577566  48.5220961   9.3394402  20.4927313
  10.5646813  71.3834381  53.9126396  11.2694955  71.3103819  54.5561695
  10.9982657  71.2629032  53.0678272  42.7808237  12.4034190   9.5932138
  42.4566126  11.5185642   9.4254279  43.7085342  12.2840464   9.7965318
  66.1834661  42.2413635  31.6536427  65.9703175  41.3382292  31.4188170
  65.3497652  42.7077341  31.5930319  27.2971063  15.4857017  26.0115671
  28.1165051  15.9786750  26.0539007  26.6276752  16.1480571  25.8401704
  69.9918554  56.4306545  38.6563563  70.2773324  56.1950731  37.7736139
  70.7829181  56.7579031  39.0845633  78.8055091  70.5489302  42.1896839
  79.1086339  70.2769470  41.3234472  77.8508691  70.5075407  42.1332836
   3.2792747  55.4322863  43.2429886   2.9426333  54.5386314  43.3084774
   2.4963021  55.9789419  43.1770134  16.0713267  74.3357086  52.1499920
  15.9394372  73.4361076  52.4492502  16.7255533  74.2634487  51.4550114
  15.3140668  72.2816326   7.0926773  14.5008043  72.1080758   6.6186392
  15.0799171  72.9548957   7.7315247  79.2180546  71.5544632   3.5767233
  78.5552700  71.7490128   2.9140770  78.9906462  70.6802967   3.8935053
  73.2699171  51.2503290  23.9677644  72.9407290  52.0346117  23.5287142
  72.7465520  51.1855316  24.7665906  59.1830686  64.3780136  27.7765131
  59.6877936  64.6787310  28.5321951  58.5324005  63.7807035  28.1454086
   9.3025392  65.5580139  16.1018455   9.5329690  65.9623766  16.9382811
  10.0864518  65.0714111  15.8470333  47.8609876  21.1819628  22.8487456
  47.9677172  20.4958895  22.1898424  47.9523607  20.7265404  23.6856901
   2.2254729  49.6360683  59.1433096   1.8000636  50.1873875  59.8000479
   3.1238848  49.9636555  59.1011715  25.6442332  60.4287338  43.2189608
  26.2017107  59.6790886  43.0104303  24.7514224  60.0988054  43.1176233
  77.2797190  46.0303974  41.1801386  76.7123272  45.3240252  40.8713722
  77.4880584  45.7926750  42.0836401  40.5192252  58.5305527   3.8613045
  39.7122081  58.0171517   3.8242638  41.0979529  58.0261544   4.4330418
  57.7946524  68.1116438  43.9895153  58.5880545  68.5348845  43.6614704
  57.6017169  67.4314880  43.3442259  54.0374569  -0.1723383  52.3610544
  53.4869961   0.4060079  52.8890133  54.0994290   0.2652980  51.5120173
  10.6404281  51.9600248  64.1022921  10.4180503  52.5784874  63.4063911
   9.8418844  51.4484978  64.2323112  44.2822710   8.5968734  44.4758749
  44.4137911   8.9161254  45.3686285  44.9018566   9.1003086  43.9477634
  20.8487663   7.2613574  16.4476240  21.7661677   6.9979335  16.5198326
  20.3969745   6.7401840  17.1113229  13.0500774  42.5064019   5.6823408
  12.5056724  43.2736138   5.5055773  13.0578641  42.0227936   4.8563254
  18.1302166  58.3160591  28.2784414  18.9909589  57.9287529  28.4376574
  17.8657448  57.9698658  27.4261284  26.7291975  67.7384186  35.9955502
  26.2249899  66.9626760  35.7501340  27.5814843  67.3951149  36.2638497
  77.0582397   5.9168292  19.8126948  76.8892224   6.3690616  20.6392288
  77.1743543   4.9996854  20.0608683  21.6057158  47.8255844  22.2257113
  21.3018608  48.2817984  21.4409971  21.2697172  46.9344330  22.1298814
   9.7182089  67.7273226  60.8729458   9.6993536  68.3008575  61.6390610
   8.8437885  67.8077602  60.4919577  65.1550762  67.8669357  30.7365561
  65.5092088  67.5984764  31.5843487  64.2071585  67.7755260  30.8331490
  26.7223048  63.9748383  61.5586996  26.9499516  63.7433958  60.6582355
  26.0503006  64.6506548  61.4697075  55.9928809  19.9262217  23.2483923
  56.3160350  19.8394898  22.3515665  55.0559731  20.0958088  23.1500208
   2.6686746  60.9901905  41.8078375   3.5838133  61.1044931  41.5515423
   2.2390534  61.7988253  41.5289688  28.6916541   3.7225152  15.2263463
  28.4555902   4.1431524  14.3995631  29.0413747   4.4323493  15.7649231
  13.5400617  53.6348343  62.5790167  14.0637326  53.4253693  63.3523989
  14.1689456  53.9969492  61.9548273  54.8212580   8.4993888  38.4787226
  55.2673725   9.2723800  38.8246942  54.0774230   8.3688499  39.0668535
  16.6819024  50.7085085  31.3295603  16.0265136  51.4061451  31.3308191
  16.2409580  49.9663877  30.9159708  38.2130098  41.3393593  15.3876543
  37.8859806  42.0797586  14.8766792  37.7193356  41.3770247  16.2068605
  41.9072206  14.9493531  16.3137400  42.4872537  15.7053021  16.4050162
  42.3975583  14.2232922  16.6992819  28.9405560  63.2803631  35.9778190
  28.1217718  62.8148699  35.8071136  29.3426561  63.3819628  35.1151323
  19.7301344  11.6805412  18.5090935  19.7989921  12.1033145  19.3651021
  20.6356350  11.5944435  18.2109535  75.8021820  32.7403975  46.2743616
  75.6989143  32.6084089  47.2167778  76.7053478  32.4799323  46.0935783
  65.6168691  46.2571907  24.7061300  65.3072277  45.3544712  24.6323133
  66.0018340  46.4490366  23.8510108  56.2280015  15.2027847  35.5139232
  56.0939244  14.6023704  36.2472415  55.3475718  15.3711654  35.1781845
  77.3503410  40.6010628  31.2474585  76.9614985  41.0493183  30.4963923
  77.8146266  41.2896967  31.7233300  45.0492720  64.7889900  39.3608928
  44.1729597  65.1487207  39.4983697  45.1236156  64.0860987  40.0063801
  57.9305271  44.0773153  44.8178959  58.4508542  43.6566973  45.5024147
  57.2057585  44.4900894  45.2875328  54.4266719   8.0273989  10.6580555
  53.7224618   7.4138621  10.8675587  55.0282414   7.5234488  10.1099884
  64.9178890  64.9704695  45.4747915  65.2347747  65.8663559  45.5896997
  64.2663077  65.0345945  44.7765350  65.5192486  12.2808170  46.3969660
  66.4411894  12.0234132  46.3974714  65.4851214  13.0481195  45.8257246
  18.8960838  63.6940002  30.1427341  19.1353178  64.5693684  29.8382139
  18.5967755  63.2398844  29.3550634  27.9694271  21.0120964  20.5353665
  27.8403950  20.4523277  19.7697031  27.2708178  21.6637588  20.4761004
  25.9188008  73.8096476  15.1431978  26.2645149  73.0128193  14.7409868
  26.4182115  73.9046574  15.9542418  33.9799476  68.5536909  28.2166624
  33.4214735  68.8940620  27.5177431  34.8056245  69.0272570  28.1155491
   5.3315991  21.8703341  61.9723463   4.4637889  21.5934038  61.6783237
   5.7212090  21.0800934  62.3464537  29.0637738  56.5162565  10.6915533
  29.5813198  56.6678526  11.4823735  29.2806009  55.6209781  10.4313671
  56.7033581   3.8199331  45.2089548  56.3228277   2.9659273  45.0037718
  56.9234089   4.1951896  44.3563175  47.1789101  57.8858232  59.2308092
  47.4510602  56.9741297  59.3356180  47.6619986  58.3593512  59.9080276
  62.2359709  48.6155510  35.6773615  62.1329860  47.6659679  35.6147552
  61.7343322  48.8601160  36.4550376  52.5055855  66.3190773  22.2700941
  52.7386887  66.5798214  23.1611025  52.3365467  67.1443108  21.8155157
  76.9634313  71.6487741  61.3828993  76.2720523  71.5184212  60.7338762
  77.2115592  72.5682783  61.2871456  16.8869841   9.1146624  43.2687044
  16.8734002   9.1953462  42.3150110  16.7916727   8.1761587  43.4310579
   7.0633388  19.7056174  13.6556268   6.7686564  20.3825784  14.2648208
   7.0477426  20.1314735  12.7985191  11.0424519  40.0080776  42.4506283
  11.0818124  39.9928713  41.4943552  11.7279685  40.6242323  42.7087927
  39.8823615  22.5972918  10.6096709  38.9869793  22.2790984  10.4944432
  39.8835595  22.9999569  11.4780581  73.1176267  40.7458830  46.9564962
  73.2715032  40.2255106  46.1679745  73.5602728  40.2614212  47.6533413
  29.5222605   3.4135200  36.1107588  29.7107676   4.0860416  35.4562259
  30.0397275   3.6703731  36.8739653   4.0457070  36.9664884  48.9627266
   3.2555357  36.9817901  49.5027542   3.7664288  37.3230124  48.1194448
  14.6734011  72.5918198  42.5953674  14.2859149  72.7166843  41.7290545
  15.5974960  72.8122997  42.4784517  16.8415058  10.4840767  11.5373492
  17.7714670  10.3766191  11.7369926  16.6821468  11.4226937  11.6365206
  78.7319199   3.2639861  61.1190802  78.7904553   3.1441092  60.1712215
  78.0197020   3.8924384  61.2374920  11.2247300  50.1009893  60.9634924
  11.0535634  50.9912300  61.2707472  11.5911901  49.6511650  61.7248058
   9.9055606  34.2028761  55.2875948   9.0604818  34.1593218  55.7350063
   9.9003017  35.0531554  54.8480177  28.9175677  62.0929098  18.7670195
  29.4275069  62.4765253  18.0535531  29.5290661  61.5035057  19.2085016
  60.3810306  48.9940194  10.6885826  60.7721122  49.1044739  11.5552389
  60.7659926  48.1842163  10.3535425   8.0670327  69.6990204  37.7005601
   8.9166111  69.4362783  37.3464203   7.8004730  68.9644957  38.2534170
   3.2663795  27.2192548  53.6540020   3.1953021  26.3139175  53.9565695
   3.7547823  27.6653646  54.3458665   6.2518746  42.4556971  57.6544619
   6.5171969  43.3700752  57.5557375   6.4240319  42.2543240  58.5742664
  56.2203077  52.5935173  19.9738574  55.8774690  52.7893543  19.1018820
  55.8766750  51.7234039  20.1764679  12.8182133  10.6642035   3.1648695
  13.2339533   9.9336270   2.7069962  13.0626042  11.4366034   2.6550591
  56.3915086   6.7321323  56.8262661  56.8626839   6.7713712  57.6585436
  57.0706662   6.8437837  56.1610508  62.8097689  26.8132470  45.2746487
  63.5857773  27.2757743  45.5910492  62.4322379  27.3995326  44.6189296
  26.2889457  43.4534502  21.8769979  26.2471175  44.1967630  22.4786377
  27.0104003  43.6651087  21.2845993  57.7826027  74.0713406  42.7508497
  57.4244193  74.7528744  42.1821213  58.6597756  73.9070940  42.4046946
  12.0064560  18.7802745  40.7725620  12.3199073  17.8896572  40.9299612
  11.3476328  18.6842777  40.0848389  31.2065697  68.3095312   9.3590122
  31.0037303  68.5211468  10.2702236  30.4842305  67.7483797   9.0769362
  34.7986598  18.6309555   4.3159783  35.0939365  19.5017269   4.0498936
  34.2306645  18.3420256   3.6017430  77.5908870  50.5092096  46.3574076
  76.8879939  49.9930429  46.7520571  78.2178839  50.6430006  47.0681906
  12.1070075  42.0824385  11.5081441  12.7219260  42.4842787  10.8944416
  11.2549222  42.1605730  11.0791028  76.0083849  47.3588467  56.7618227
  75.1595575  47.1074009  56.3978148  76.6329006  46.7645550  56.3458538
  69.1643441  41.4124225  51.2813127  68.5023415  41.1981509  51.9386339
  69.0579557  40.7416986  50.6067443  75.3817109  17.6110126  27.4032307
  75.6998137  18.4335567  27.7753544  75.7433919  17.5932743  26.5171719
  67.5915909  72.6868636  10.5041516  67.1388256  72.1231403  11.1314082
  67.0900357  72.5950043   9.6940672   3.3404341  32.6620221  50.8058691
   3.8766366  33.0727220  51.4841366   3.7104395  31.7848372  50.7065010
  17.6838958  50.8390331  58.6960411  17.1423900  51.5864086  58.9498901
  18.5142541  51.2274599  58.4206104  73.6633966  47.6795816  40.0040579
  74.5642007  47.7141857  40.3259039  73.4213642  48.5960102  39.8706079
  20.3421829  61.4286186   5.4629004  19.6169154  60.8264830   5.2965986
  20.6203250  61.2275602   6.3564551   9.7412765  56.6203785  32.7573895
  10.3013217  56.0356998  33.2680130  10.1817954  57.4692488  32.7972317
  65.9943700  39.0470765  60.1078576  66.8312931  38.6055348  59.9635202
  65.4813337  38.4251855  60.6238777  20.3236461  27.0063519  42.6112604
  20.0184727  26.1063647  42.7258110  19.5543623  27.4820757  42.2980213
  56.2982075  31.6715554  12.1742403  56.4563052  32.3290709  11.4968169
  56.2421195  30.8440522  11.6964018  58.4013084  61.6237164  37.3745465
  58.2033137  60.9478426  38.0227923  59.2914525  61.9050264  37.5860643
  46.7476801  23.4561206  53.7758684  47.3066787  23.0851222  54.4585896
  46.1616365  24.0513183  54.2433405  23.8530302  58.9683437  55.4567862
  24.0078139  59.4659185  56.2597179  23.0041909  58.5481930  55.5952597
  15.3257370  58.8639116  39.9146223  16.0189617  59.0308952  39.2760396
  14.5309019  58.7777758  39.3882656  17.4338853  49.6978951   8.3755934
  17.6940441  48.8212490   8.6585170  16.5867543  49.5702171   7.9486293
  35.3817234   3.5912706  22.5769949  35.3762535   4.4890691  22.9088974
  35.9472177   3.6246015  21.8054128  27.9079795  58.8672209   9.3665731
  28.3317924  58.2747793   9.9875623  28.1317186  58.5124016   8.5061800
  28.5091615  63.5806942  42.6118422  28.0643201  62.9165983  43.1384611
  29.3834996  63.2212067  42.4617290  43.5803906  15.8522560  50.1648045
  42.9715733  16.1522533  50.8397675  43.9350180  16.6571952  49.7872496
  22.7598834  64.0928793  32.5627756  22.7701521  64.7656393  33.2436037
  22.9660010  63.2806969  33.0254865  15.1007199  65.0777388  47.8067398
  14.8181415  65.9653234  48.0271435  14.9925649  65.0207520  46.8573809
  38.9672776  30.1010493  10.0070536  39.7123666  29.9044207   9.4392407
  39.3322928  30.6530455  10.6986439   2.8365645  48.8992167  29.2657948
   2.5772974  47.9780197  29.2455268   3.3249688  49.0285158  28.4527898
  23.3436871  67.8441143  14.4859922  23.1273365  67.7881145  15.4167390
  23.2026839  66.9576359  14.1535640  20.1165161  13.1800510  55.2970266
  20.5667356  14.0238525  55.3361320  20.7761959  12.5435974  55.5726814
  62.0733837  71.2130213  53.1599522  61.4289001  71.8807888  53.3943939
  61.5788630  70.3934669  53.1569719  22.4345183  70.7078218  31.0247254
  22.9222178  71.5113401  31.2056613  21.5279961  70.9233999  31.2437534
  67.2853827  42.4286578  58.8842476  66.8768549  42.2203515  59.7244531
  67.9359424  41.7382310  58.7565291  37.0982877   3.7559177  20.1341438
  37.3631672   4.1114332  19.2858028  37.3034898   2.8226997  20.0773764
  36.6865945  67.9868698  38.5605812  36.6177607  67.4690485  37.7584863
  36.3882208  68.8605881  38.3079529  51.8184230  53.8550971  59.2644692
  51.7874796  54.7796748  59.5103145  51.8303743  53.8620303  58.3073688
  15.8005345  67.6835012   9.6285111  16.4109623  66.9514513   9.5406866
  16.1126614  68.3325863   8.9980376  28.7584805   8.3370830  52.8380442
  28.1244291   8.0015327  52.2043133  29.3440143   7.5985099  53.0050468
   0.3101124  70.0335884  22.4910712  -0.2134764  70.3332901  23.2342172
   0.8736167  69.3507481  22.8549719  40.6261301  55.5860424  63.8067055
  39.6755362  55.6155872  63.6984015  40.8703279  56.4853191  64.0255547
  50.3609881  10.4051188  18.2263338  50.9893756  11.0371378  18.5755026
  50.9008332   9.6820668  17.9069769  26.3124347  50.3219318  19.0188730
  25.8781338  50.2082014  19.8642600  26.4383626  49.4309425  18.6925101
  17.8973091  59.2915010  51.9999790  18.6840928  59.8357439  52.0316458
  17.7921593  59.0761852  51.0732555  39.1010694  14.5980598  58.6636686
  38.2851819  14.3346168  59.0892887  39.6365873  13.8046886  58.6605024
  66.8457512  66.1369944  39.4230390  66.8702666  65.6971931  40.2728653
  65.9156100  66.2958527  39.2623115  67.6527862  10.5574180  37.4503565
  67.8404836  11.2357570  38.0990887  68.3454350  10.6529666  36.7966461
  41.2779836   7.1862651  19.1741526  42.0405582   6.6691066  19.4334865
  41.4276866   8.0467369  19.5658469   1.2672309  40.2775887   8.4640991
   0.3999976  40.6341437   8.2717240   1.8730549  40.8627919   8.0094111
  46.6992525   3.5835315  15.5498183  46.4060406   3.1759454  16.3647628
  45.8935467   3.8817550  15.1277637   1.9685058  69.0556669  57.6409292
   1.4071222  69.5336199  58.2513714   2.6114136  68.6182308  58.1991005
  31.9312119  64.4548941  49.5726109  31.4536572  63.6763239  49.2862511
  32.7000976  64.1106033  50.0270414  64.4224556   7.1614340   9.0277016
  64.2364629   6.2837437   8.6940872  64.1426142   7.1341589   9.9426758
   1.4756227   6.3203956  27.9895020   1.0535407   5.5557491  28.3811522
   1.8209577   6.8114616  28.7350416  15.3507316  67.6954508  37.4230099
  16.1674368  67.8275108  37.9044485  15.2303410  66.7459202  37.4114966
  21.5972964  22.7004768  46.9933701  22.3559070  23.1806041  46.6613817
  21.9675029  22.0525886  47.5928831  44.1881923   2.2189905  57.0157337
  43.8040046   1.6007043  57.6373100  44.4329254   2.9746772  57.5498438
  53.1284551   2.0118858  19.2434728  52.3976163   1.6248990  18.7614489
  53.3304361   1.3722755  19.9263585  62.6351718   4.5251991  44.6312237
  61.9712929   3.8400747  44.5531082  62.2086195   5.3118802  44.2914915
  11.8790030  22.7339482  12.1011686  12.2096479  22.8245020  12.9948711
  10.9297752  22.8225899  12.1868455  35.2340317  60.9107828  57.0188665
  35.9157372  60.8166027  56.3535547  34.6385932  60.1790333  56.8569279
  43.1874943  70.3012609  46.9360971  42.8951263  70.9759092  46.3232327
  42.5765848  69.5763636  46.8036461  58.3741311  24.9578430  47.9298115
  58.8026408  24.1243411  47.7351618  57.6052908  24.7169448  48.4466124
  33.8670778  59.4790411  34.6325302  34.7567558  59.8318577  34.6174860
  33.8763976  58.7779522  33.9809036  77.0002014  64.3520021  61.5323162
  77.0808826  65.1827097  62.0009804  76.0569987  64.1981220  61.4782619
   2.4416117  24.2227031  35.0048280   2.9575423  24.4175769  35.7871747
   2.7348212  23.3523132  34.7352338  68.6642257  66.0322666  24.9988222
  69.0523628  65.2927399  24.5311880  68.1756369  65.6312895  25.7176614
  14.6307302  71.2589788  44.9530077  14.1818106  70.4226828  44.8292732
  14.6782029  71.6375208  44.0751219  -0.0997876  62.6632643  27.4682760
  -0.0002074  62.3343039  26.5749097   0.5364648  63.3754063  27.5335932
  21.1332512  53.1319284  15.2599311  21.9673610  53.0183172  14.8043180
  21.2538958  53.9217567  15.7870436  59.7957917  44.3125752   4.7299874
  60.6604244  44.2104939   4.3322193  59.7094746  43.5578755   5.3124106
  48.7002400  16.0852386  43.5838699  49.1576437  15.5122425  44.1992474
  49.3562416  16.7333080  43.3271456  49.9356051  38.4128931   0.3525555
  50.2027334  38.6244658   1.2470448  49.0833615  37.9884079   0.4511702
   1.1135454  47.3788786  43.5849094   0.6084488  46.5718508  43.4858322
   0.8846129  47.6991272  44.4574118  61.6455368   1.2315942  13.4302521
  62.3140196   1.8294336  13.7648475  61.9817904   0.3586389  13.6330223
   9.9167055  67.1716499  35.2966332  10.3066444  67.2589302  36.1664367
   9.6884191  68.0666876  35.0455832  25.1878333  61.2636900  18.8431311
  24.6950293  60.6820202  19.4219553  25.9273148  60.7342720  18.5446155
  40.8430767  72.0819187  45.6225586  40.6638575  72.8305817  46.1914301
  40.0591373  71.5368223  45.6899452  45.9218244   1.7110349  17.4043262
  46.5705375   1.0082294  17.3659992  45.1194910   1.2805559  17.6995945
  43.6586098   6.7812396  56.3923359  43.2727984   7.0375396  57.2300053
  43.1124214   7.2125102  55.7351303  37.9868654  10.3517868  52.6163578
  38.1408779  10.3650428  53.5609913  38.3137492  11.1971332  52.3085070
  41.5177385   0.7533504  26.9976425  41.2656073   0.2147485  26.2475967
  42.4505583   0.5753232  27.1175742  22.6714901  27.6639202  13.8342440
  23.1218962  27.7629689  14.6730292  21.7629150  27.9003218  14.0208876
  46.6297678   0.9198572  58.9974880  46.2602464   1.6093589  59.5490980
  46.6005234   1.2805988  58.1113482  64.4702915  16.3151123  55.6363440
  65.0656060  16.8689205  56.1414385  63.6755327  16.8403865  55.5432224
  43.3537666   7.7514125  41.5543079  43.6941878   8.5256244  41.1060476
  43.8229016   7.7319671  42.3884344  64.8835710  59.8907804  26.9274378
  65.0510184  60.6298637  27.5121999  65.6442610  59.8675728  26.3468814
  26.4944510  39.9405363   2.9404032  25.8975939  39.8618344   2.1962273
  26.9268755  39.0881279   2.9918062  34.6234512  66.3274622  39.6165442
  35.4217386  66.7130423  39.2555761  33.9350557  66.9568491  39.4015718
  42.9511595  68.7093878  26.1711097  42.8103256  67.8985834  25.6822395
  42.1376657  68.8396072  26.6584516   8.1943492  50.7372216   0.8509218
   8.7505440  50.2260712   0.2630436   8.8033704  51.3039997   1.3242972
  66.0416801   9.5011691   3.7868416  66.0601039   9.2357424   2.8673661
  66.8384917  10.0187519   3.9027369  42.6365376  68.7868690  18.6177373
  42.2368145  68.9351320  17.7607250  42.0800161  69.2701626  19.2284274
  55.2774171  21.0156967  47.6515055  55.3527407  21.0372020  46.6975164
  54.7602300  21.7913677  47.8684807   0.2444086  46.8936586  56.9106579
   0.1444199  46.9480085  57.8610706   0.9606925  47.4961853  56.7103338
  12.0097947  54.5010900  34.7734022  11.6363442  54.1119766  33.9826083
  12.9545999  54.3830442  34.6752191  56.4188913   4.7391941  49.1480064
  56.7771915   3.8523437  49.1846704  55.7795791   4.7099878  48.4362078
  59.5973472  38.3566238  48.6111641  60.2054075  37.6242114  48.7115383
  59.7940377  38.7142898  47.7453613  20.4653597  65.5024338  38.7249160
  20.4178381  65.2385998  37.8060246  21.2757063  65.1069164  39.0460682
  69.9391875  68.8864183  47.8069401  70.2890221  68.0006742  47.9034042
  69.5188615  69.0707159  48.6469364   2.9008171  53.2145691  37.5411820
   3.1960651  52.3056364  37.4872994   3.6347508  53.6815262  37.9405856
   5.3843884  46.4708165   3.4865772   5.7534389  47.0385197   2.8100121
   4.5550112  46.8866852   3.7219870  67.8511281  37.8212288  10.1713001
  67.0559748  38.0983857   9.7161686  68.4328838  38.5796526  10.1205027
  62.1389321  56.3176250  35.2266717  62.3413710  55.3828382  35.2643585
  61.1981694  56.3521671  35.0534534  22.2988800  21.1136845   1.3844502
  21.3831095  21.0951784   1.1065113  22.7282147  21.6942337   0.7560694
  55.1728889  25.2105502   7.9636872  54.5222859  25.9020022   8.0855238
  55.9434624  25.5201605   8.4396994  29.3603969  60.7448864  37.4549747
  28.6612916  60.2757120  36.9996095  29.5776796  61.4737940  36.8738413
  70.1281802  53.8808441  40.4941225  69.7131262  54.7413206  40.5536461
  69.6001128  53.4039831  39.8538256   1.0329847  48.8125992  32.6750875
   1.7801036  48.4078407  33.1157827   0.6420156  48.1027412  32.1656990
  12.8039896  71.3116980  55.5114174  13.4895658  71.2219095  56.1733484
  12.8159463  70.4788828  55.0397110   9.0386188  72.7936459  37.7525854
   9.2293066  73.3011961  36.9637513   9.3144786  71.9028330  37.5367355
  28.5740781  67.4501276  19.9651933  28.8730264  66.5924740  19.6630561
  28.3174729  67.9096508  19.1656792  71.5638868  53.9332867  47.4695158
  71.9047377  54.4765091  46.7589045  71.9083498  53.0586958  47.2887897
  33.9573387   9.2404319  36.5007234  33.1039522   9.5438339  36.1910295
  34.5498184   9.4017745  35.7664418  36.4059464   8.3339073  11.9917011
  37.0693139   8.9656974  12.2692251  35.6040350   8.8498069  11.9079602
  29.8765940  23.7279655  48.8372755  30.0405223  23.8045455  49.7772217
  30.7458637  23.6240627  48.4502268  52.7949051  34.2343402  48.1959009
  53.7210206  34.4726205  48.2378626  52.5092677  34.2214990  49.1093969
  37.9114405  19.7413589   0.3792141  37.1632174  19.1609718   0.5190213
  37.6032046  20.6020500   0.6628037  69.5763413  63.9028645  36.4632916
  70.3760157  64.2855501  36.8242717  68.8799838  64.2126942  37.0423651
   4.2603946  45.5246258  43.5827780   3.4431773  46.0161352  43.6652756
   4.1416499  44.7650385  44.1530037  35.0756417  21.6331054  58.0819225
  35.6211690  22.2227622  58.6024332  34.7778002  22.1688320  57.3467255
  21.3212228  57.1453857  61.0576296  21.4528441  57.4556065  61.9535494
  22.1060157  56.6327238  60.8639526  67.8370408  56.9355251  58.8573456
  67.9702596  56.5207054  59.7096395  68.4500770  57.6706268  58.8503122
  48.5340168  50.5528286  12.9746926  48.8559087  49.7349575  13.3537924
  48.1876959  51.0425976  13.7206280  73.8743571   8.5928108  47.6445961
  73.7111072   7.7318813  48.0297899  74.7809867   8.5510971  47.3404312
  65.6989578   8.7912418  13.5415959  64.8666648   9.0888740  13.1742632
  65.6800965   7.8398944  13.4376192  65.6030373   0.1963808  25.9158635
  65.2460174   0.8344509  26.5336323  66.5473489   0.3523542  25.9293914
  18.5568074  15.3792716  45.6665897  19.4736175  15.3953697  45.9412384
  18.2155571  16.2367107  45.9207344  18.4579710  23.3485821  38.3227312
  18.1558804  22.9994563  39.1612303  18.7824110  24.2247084  38.5309946
   6.2385237  40.0073433  60.8979845   5.8386111  39.6598601  61.6952038
   5.8780873  40.8901405  60.8143902  77.9164576  36.8410730  59.2619371
  76.9653601  36.9011021  59.1722584  78.1902946  37.7251935  59.5060158
  46.1650407  15.1843141  59.7259024  45.4975963  14.7993014  60.2938074
  46.7629856  15.6291841  60.3265560  49.3204693  10.6684257   2.8860041
  49.4504146   9.7825386   3.2244724  48.5319809  10.9810497   3.3296099
  56.3431386   1.2961389  28.8303018  56.3665990   2.0612813  29.4049668
  55.6173638   0.7684709  29.1635489  61.8987957  57.1978140  24.8265862
  62.6215950  56.5729618  24.8844361  61.2836520  56.9158316  25.5035758
   0.7326317  39.1959906  24.1248059   0.7624836  40.0563192  23.7062621
   0.7919545  38.5744739  23.3992529  31.6946077  69.0886736  49.0728092
  31.0722470  68.9630556  49.7891331  31.1954570  68.8815355  48.2827616
  71.3912133  36.6066410  26.7626595  71.2849215  35.7153179  27.0950556
  70.6044082  37.0667221  27.0550489  34.3838278  15.9171440  51.6058731
  33.5688541  16.1459876  51.1590147  34.1018812  15.4764701  52.4074602
  57.4061541   3.8672639  13.5780251  58.0130009   3.1279518  13.5407996
  57.5567082   4.2575933  14.4389594  55.2885894  71.6954994   1.3264172
  54.5585374  72.1456194   0.9013882  55.3900961  72.1436787   2.1660979
   2.9837674  72.4538422  20.9419513   3.0056435  71.8324566  20.2141929
   3.0794498  71.9102478  21.7239881  26.8498826   3.5614873  20.4796529
  26.2608996   2.8405239  20.2570724  26.3331389   4.1233303  21.0571837
  77.6408187  43.8843679  64.2501545  78.3447517  43.4100103  63.8077784
  77.7649126  43.6861992  65.1783562  48.8268872  12.0724938  59.6371672
  48.0890389  12.4465011  59.1555768  49.2392226  11.4726089  59.0155971
  75.7568129  11.5749291  12.9696905  75.7619770  12.5120476  12.7747309
  74.8295243  11.3528803  13.0537379  19.8770189  55.4933310   7.3199505
  20.7206988  55.0426388   7.2837240  19.2796874  54.8527861   7.7061290
  44.0307093  68.6463022  13.8026750  43.8437939  68.7434101  12.8689384
  43.8197374  69.5006371  14.1792858  72.4197129  21.8508388  29.8184371
  72.8575257  22.1176006  29.0101123  71.8403081  22.5828506  30.0298166
   5.0128365  52.8337145  43.4723806   4.7552884  52.4508190  42.6337528
   5.3270566  53.7098980  43.2492161  31.9868970  60.0189543  30.8143234
  32.9402184  59.9926376  30.8962750  31.8236494  59.9023676  29.8783803
  77.6946763  24.0956642  42.9140329  76.9086436  24.3615962  43.3911753
  77.7755765  23.1581356  43.0893278  35.6593970  17.0532657  12.9456031
  35.2443401  17.6154472  13.5997534  36.4233390  17.5501586  12.6528192
  21.6706967  67.7784491  49.2574358  21.8325114  68.7216139  49.2354202
  22.2795272  67.4463177  49.9171686  74.5769636  51.6801929  50.7784557
  74.4120759  51.3591719  49.8918962  74.4469482  52.6266289  50.7185268
  60.1876286  26.9041206  46.9411802  61.0574225  26.5364791  46.7845583
  59.7545628  26.2630226  47.5048065  74.9166737  57.5863600  49.1625071
  73.9685146  57.6252556  49.0371561  75.2606264  57.3244381  48.3085012
  31.3208413  64.8582077  31.7670059  32.2135496  65.1894379  31.6690803
  30.9608221  65.3538036  32.5025344  39.4696164  66.3485813  38.7460232
  38.6635470  65.8462858  38.6269307  40.1710892  65.7129908  38.6039209
  74.4121130  15.6798056   1.8183100  75.3091915  15.7605246   1.4943325
  74.4951637  15.7370690   2.7701819  49.0464882   9.1550685  22.4565792
  49.7418074   9.1076709  23.1127167  48.4177379   8.4851314  22.7250671
  35.0845265  69.9660778  37.8345180  35.7753015  70.6286192  37.8447318
  34.6139383  70.1233053  37.0159483  47.2639779   2.0185758  48.4306049
  46.4370469   2.4158098  48.1574297  47.1573571   1.8650676  49.3693781
  39.2337004  18.2839347  51.1578608  39.8991839  18.6722709  50.5899143
  39.7330049  17.8464271  51.8474293  67.5105409  15.1631404  22.5745583
  67.7124289  15.7262947  21.8273449  67.5234441  14.2757179  22.2160363
   4.9622675  53.3022785  52.0683622   5.7477804  53.7351036  51.7339182
   4.5711085  52.8881073  51.2991476  52.5433683  69.3037748  56.4516783
  52.8145409  69.0085745  55.5824566  53.2113743  68.9554071  57.0421410
  20.9233284  69.7879028  56.4304638  20.3096747  70.4795122  56.6781378
  20.3656554  69.0528393  56.1756754  20.0195432  65.5127335   7.9378051
  20.4131103  64.7603130   8.3796132  19.1150284  65.2469921   7.7720672
  40.0705051  34.9926949  17.5787771  40.1019812  34.2068172  17.0332170
  39.2225742  34.9440050  18.0202234   9.5093495  70.1457500  34.6236682
   8.7207317  69.6490669  34.4054484   9.3481940  71.0195827  34.2677546
  22.4315139  52.5876449  56.2356907  22.0387479  52.6729415  55.3669590
  22.4146958  51.6475223  56.4148897  40.8226387   9.4203617  37.9428816
  39.8880009   9.6206523  37.9935288  41.2250594   9.9871685  38.6009264
  42.6185226  49.5611286  23.7516570  42.9665279  49.4682932  22.8648043
  42.5857496  50.5064535  23.8983488  20.5717631  74.1670387  28.5259724
  21.4312955  74.5726213  28.6397147  20.7138129  73.4847492  27.8698206
  47.9460311  59.3242787  32.4624944  48.7215933  59.6190296  32.9398370
  48.1806394  59.4234382  31.5398026  30.8066177  28.6766791  26.1250472
  31.4325166  28.8604903  25.4245496  30.7209992  27.7233148  26.1256671
   5.4607564  27.8493619  24.9606752   6.1135185  28.5483694  24.9997020
   5.2646512  27.6533628  25.8768392  61.7493013   9.7681910  17.3205233
  61.8429855   9.1738093  18.0649459  61.5506188  10.6171906  17.7154362
   7.6634765  14.1269815   9.7092181   8.3566046  14.0043294   9.0605569
   7.0082313  13.4653389   9.4875985   4.4061020  59.3722010  14.7730088
   3.7498808  59.2766571  15.4632831   5.0264293  60.0136423  15.1193857
  70.7357506  33.8582706  37.9639912  70.0446836  33.5269690  38.5374880
  71.5399186  33.7528372  38.4723520  55.7905435  50.0236081  20.4620790
  56.5451965  49.8763608  19.8919487  55.7794043  49.2647885  21.0454321
  27.1092653  19.2198360   0.8622559  27.4546194  19.2550075   1.7542911
  27.7706718  18.7353063   0.3682877  28.3153796  26.1560321  54.2811298
  27.4842763  25.6922841  54.1789770  28.1900883  26.9790125  53.8086510
  19.6677265  67.0661642  16.7729914  19.7684691  67.3088600  15.8525717
  19.5449970  67.8991582  17.2282851   7.7736636  71.3242434  30.4475141
   7.5126430  71.4208825  29.5316768   8.4771606  70.6754167  30.4288769
  17.2633278  15.0461137  35.8607054  16.9677341  14.4798410  35.1478291
  16.7493010  14.7659338  36.6180062  72.7535985  26.9001245  61.9579983
  72.6023058  25.9672141  61.8062687  72.1608887  27.1253681  62.6750660
  75.4318077  22.6448464  55.4467535  74.6241862  22.3781395  55.8858919
  75.7640914  23.3698368  55.9761000  30.7288813   0.7126473  59.0927226
  31.5250778   0.5620192  58.5832012  30.6675410   1.6651223  59.1652483
  78.1244823  45.8963680  50.3461933  77.7917928  46.0435867  49.4608259
  77.9737216  44.9648809  50.5069017  33.3096647  21.1562586  17.4130821
  33.1766176  21.1634398  18.3609641  32.4278140  21.2233663  17.0469284
  30.8649080  61.7630645  57.5438333  31.4242168  61.3890740  56.8629980
  30.0440895  61.9656273  57.0949930  78.8557015  53.9626026  31.0284662
  78.1709459  53.3775711  31.3526225  79.4365665  54.0901852  31.7785001
  12.1761727  18.0057526  32.4684811  12.1998549  17.9825747  33.4251070
  11.8980908  17.1257865  32.2143888  28.1751189  57.8585312  62.8862034
  27.5929463  58.0159303  63.6295287  28.8317173  57.2479507  63.2213165
   3.1314784  19.9664712  61.7068624   2.3760317  20.2190280  62.2376585
   3.3379078  19.0764236  61.9922304  58.4618048  53.7975216  21.1299348
  57.7671436  53.4627342  20.5628443  58.4339241  54.7465277  21.0081053
  10.4792285  38.4335089  14.0169895  11.2522030  38.9929557  13.9410710
  10.3533411  38.3255792  14.9597168   1.7808641  40.8809710   5.5101830
   1.6614686  39.9470091   5.3378803   2.7279717  40.9894371   5.5965221
  22.5562263  50.1833725  61.4173746  23.4202933  49.7762585  61.4796448
  22.6385140  50.9972000  61.9145060  12.1128750  16.0044873  45.9607744
  11.9106364  15.5927896  45.1206350  12.8911805  15.5427063  46.2725925
  12.5335860  15.5603123  28.6101246  13.2634127  15.5832386  27.9912066
  12.4458015  14.6359777  28.8427901  65.2565864  15.6889045  24.1941786
  64.5980743  15.0289273  23.9773250  66.0146002  15.4561162  23.6580300
  65.8401568   0.4117540   4.1723120  65.9073348  -0.4804894   3.8322842
  66.6688843   0.5571679   4.6287071  68.0808441   8.7724203  41.1333752
  68.2989482   7.9475939  41.5673351  67.3889486   9.1523039  41.6748524
  49.8467521  18.0818319  13.5036790  50.6084374  18.6495996  13.6207581
  49.3728021  18.1428361  14.3330657  20.3545690  45.1389456  14.7037113
  20.3826165  45.1446295  13.7469387  21.2604547  44.9800253  14.9689424
  17.5442246   8.0037738  49.1454124  17.3871712   8.9202453  48.9181757
  18.1457690   8.0410816  49.8890400   9.1234088  31.7079425  56.7585325
  10.0053227  31.6288900  57.1221399   8.8170999  32.5642443  57.0571184
  13.6703360  25.2298117  37.0896101  13.1500757  25.8524489  36.5817881
  14.1616929  24.7364664  36.4327931  76.6422776  58.8694811  50.9798717
  76.9619084  58.2123184  51.5981007  76.0660482  58.3832741  50.3901291
   6.1728281  44.2760563  14.5957637   5.9339851  45.2017641  14.6431899
   6.2412101  44.0940571  13.6585164  10.1327240  28.6782312  30.6363392
   9.8989713  27.7969408  30.9277487  10.2823317  29.1664124  31.4459848
  49.5686098  38.8709445  64.0796978  49.8275109  39.4088769  63.3314789
  48.7418552  38.4698582  63.8116708  32.7692842  33.2263303  15.7874644
  33.1884956  33.9218235  15.2807248  33.4968638  32.7026176  16.1230052
  28.8388681  21.4803219   3.9018667  29.6677876  21.7960548   4.2616394
  28.4105325  22.2659850   3.5620221  77.6549158  36.3766837  47.5397301
  77.2346092  37.1484804  47.1603870  77.7874831  36.6041565  48.4600115
  58.5294294  73.0081397  15.2544963  58.7939352  73.2348241  16.1460590
  59.3533248  72.9208805  14.7751069  66.8458060  30.6589293  54.4122458
  67.5019173  30.1028895  53.9920473  67.1165017  30.6974363  55.3295660
  76.2472097  16.9554126  31.7861319  76.7850093  17.7453256  31.8412852
  76.8237057  16.2518609  32.0842886  79.0854943  10.6992459  23.0638123
  78.3112584  11.2617815  23.0823588  79.4448798  10.8153260  22.1842670
  67.7940392  50.0914928  60.2563042  67.5813508  50.1729807  61.1860115
  68.7314677  49.8985561  60.2410740  50.2588276  41.6312551   9.9083370
  50.5071977  40.9254217   9.3113899  49.8041204  42.2651529   9.3536800
   6.0020214  22.6013899  45.0199461   6.3235354  23.0049324  44.2137146
   5.0977731  22.3578548  44.8218107  57.0293113  73.9783904  64.0386499
  57.1764441  73.1781694  63.5344380  57.9076239  74.2810556  64.2692866
  74.9611653  13.8253379  33.8980246  74.6467159  13.9296460  34.7960639
  74.2196862  14.0879321  33.3526039  19.8761821  42.5928736  23.5004401
  19.5932484  41.9290924  22.8714919  19.4078088  42.3744726  24.3061471
  48.5151738  56.1451779  26.0122442  49.4189340  56.2796496  26.2974930
  48.5696298  55.4381536  25.3692961  70.4921208   4.5930004  14.9522090
  70.9585253   5.3251904  14.5489764  70.4912446   3.9107132  14.2808557
   8.8924295  59.9622297   6.7875385   8.8386488  59.5207596   5.9399265
   9.8188460  59.9152422   7.0237088   2.8294238  52.7561331  16.3130069
   3.0163527  52.7212667  17.2511292   1.8835884  52.6222706  16.2521148
   5.1462201  34.6705829   3.8441860   5.9473947  35.1628198   3.6651528
   5.4465727  33.7777277   4.0139830  72.1317879  31.0917258   3.7221459
  72.2717140  30.4481530   3.0275455  72.7713225  30.8601165   4.3956333
  18.5964572  28.4719324   2.8916100  17.6805842  28.4965229   3.1687453
  19.0935516  28.4481049   3.7092656  56.7194125  66.3610362  30.8331132
  56.0521063  66.8706422  31.2927175  56.2617934  65.9941499  30.0766659
  42.8874636   4.2239783  62.3419741  42.2449028   3.5881541  62.0272184
  43.2282257   3.8402055  63.1499522  13.4759784  23.6989045  54.2889118
  13.9181209  24.5338154  54.4427490  14.1869092  23.0744028  54.1446686
  71.7327438  27.3892188  21.6463685  71.3405506  28.1459999  22.0819139
  72.4816934  27.7482533  21.1705542  30.4297352  20.2123737  18.4092987
  31.1338782  19.7765267  18.8893521  29.7413611  19.5508027  18.3407843
  66.8264703  29.9173880  49.4407988  66.4970199  29.0692925  49.7381687
  66.2285415  30.5561185  49.8290443  17.3878276   3.4077847   2.2699441
  16.6952109   2.8536415   1.9101685  17.5216901   3.0774292   3.1583008
  70.9059129   9.9012285  16.7767119  70.6933276  10.8056879  16.5465105
  70.1009301   9.5570463  17.1637177   7.9834020  24.8000360   7.0863068
   8.2267386  24.3890095   7.9158103   7.8142351  25.7145619   7.3127049
  78.3085797  29.7768474  35.1704311  78.0806053  29.6996021  36.0968733
  77.6168152  29.2989802  34.7128963  21.6935492  43.5465384  33.5274005
  21.5578628  42.5990868  33.5150242  21.0086393  43.8940620  32.9561234
  14.5626962  33.0613303  23.6108923  13.8291824  32.7768302  24.1560960
  15.3416085  32.8130889  24.1087914  77.3063632  56.0800314  38.7366128
  77.1795247  56.9079256  39.2000031  77.4662725  56.3360405  37.8282523
  77.6282792  59.5370722  37.9817533  77.1263844  59.6037960  38.7940836
  78.3127845  60.2005911  38.0679440  15.9134626  28.5358644  50.3481150
  15.3297174  29.0094519  49.7555065  16.4885294  28.0358195  49.7689056
   8.1233386  27.7260103   3.6073267   7.2670404  27.9531481   3.2448399
   8.3932260  26.9501032   3.1160414  24.6164489  58.7015867  26.7356801
  24.7541046  59.4940281  27.2546387  23.7446785  58.8122320  26.3561988
  68.5990182  39.7103524  38.5925198  68.6644594  39.2136478  39.4081378
  69.5049099  39.8115158  38.3003569  67.2763407  69.5597713  45.3363848
  67.9551828  69.6036498  44.6629763  67.1717799  70.4646795  45.6303930
  15.5833626  62.1608305  33.0670500  16.4876223  62.4413157  33.2080245
  15.6553149  61.2427711  32.8058696  19.5168638  34.2821074  11.9965959
  19.6939635  33.6191535  11.3292420  20.3756022  34.6531153  12.1994579
   4.8562852  47.1945953  26.5997624   4.9041089  48.1505919  26.5958619
   3.9687669  46.9979572  26.2999701  72.8906880  16.8623102  52.2400284
  72.6974402  16.0852826  52.7645445  72.2788195  16.8137252  51.5055323
  34.2503715  27.4394965  29.1696620  33.5726976  27.2193551  29.8088241
  34.4762325  28.3491921  29.3637586   5.5234396  38.0783176  35.3355765
   5.0088125  38.6000824  34.7198224   4.8709270  37.6128030  35.8587933
  39.6924829  28.5293744  60.4103557  40.4753625  28.1286023  60.7881314
  39.4133937  27.9157088  59.7308302   0.9229124  42.3519039  35.7565904
   0.0443488  42.0037699  35.6044030   0.7754242  43.1972885  36.1806273
  75.8832324  36.9778895   3.1478226  76.6449157  37.4859929   2.8687140
  76.2206335  36.0913610   3.2761061  73.6378876  30.2626085   5.8491307
  73.3766798  30.7867193   6.6063029  74.5319024  29.9840569   6.0475719
  64.5687083  16.5889013  37.3783851  63.8593391  15.9486020  37.3232055
  64.4430701  17.1519685  36.6145778  15.3510797  21.0634017  49.0278292
  14.9547279  21.8968678  49.2817354  16.0272694  20.9089327  49.6874762
  70.8179692  17.7362466  22.6151109  70.3009430  17.7721035  23.4198666
  71.6769288  17.4208915  22.8961325  25.9390807  11.4634943  13.7642002
  24.9893737  11.5754175  13.7222493  26.1648297  11.6705763  14.6710551
  18.4115374  35.1368022  40.4483223  18.0988491  35.0889802  39.5449018
  17.9346323  35.8747482  40.8280945  24.0847797  51.3133582  63.9963840
  24.0726810  50.6542536  64.6904062  23.7452971  52.1056732  64.4125813
  11.1561930  32.0479631  29.8469853  12.0080984  31.6117501  29.8613358
  11.1815679  32.5973153  29.0635300  13.7102234  46.0589170  28.9427924
  13.9521790  45.7792568  29.8256755  13.6541474  45.2457666  28.4409189
  20.0367570  20.1358819  40.1127672  19.5942903  19.3369770  39.8260522
  20.9548163  19.8812163  40.2052116  48.8542339  73.4796303  32.9562521
  49.7499266  73.1887002  32.7850008  48.7171283  73.2982394  33.8860536
  68.9111081  33.8436675  29.7194576  68.4879271  32.9978609  29.5719361
  68.5344938  34.1599202  30.5406642  18.2791030  46.7947245  31.7725778
  17.8097987  46.5946436  30.9626675  17.7256823  47.4363852  32.2178102
  10.9994686  57.7853966  22.1785069  10.6972289  57.8386450  23.0851746
  10.2521598  57.4300146  21.6973996  16.4709022  54.5522639  56.0724259
  16.9450446  53.7213596  56.0404837  17.1562191  55.2201292  56.0494489
  32.2701631  14.9661781  27.8828239  32.0879719  15.5399372  27.1386242
  33.0691759  15.3232147  28.2705498  58.1827287   0.5326511  16.8204069
  57.3180012   0.2458288  16.5267944  58.1830386   0.3661205  17.7630079
  74.3365071  34.8374963  16.3543940  74.2282010  34.1152501  16.9731522
  74.6662632  34.4225955  15.5573046  51.7056274  31.2538528  13.5677433
  51.7326117  31.0261631  12.6384091  52.5112724  31.7488456  13.7165582
  62.6590840  24.8749804  28.5856867  62.5087444  25.6547999  29.1200185
  62.1377186  25.0213075  27.7963829   8.6266263  23.7071261  62.2574663
   8.5002311  24.0158579  61.3602814   7.8881510  24.0742549  62.7433700
  73.6339573  21.2044430  32.7009344  73.5255191  21.3948488  31.7691541
  73.2630525  20.3289461  32.8112388   5.5111969  43.1652308  48.5894299
   5.5008489  42.2384214  48.8284779   5.9827179  43.5918713  49.3048859
  17.1352720  31.4897513  10.1808679  16.9721699  31.5262508  11.1233640
  16.2628984  31.4793372   9.7870564  66.5234530  48.2338260  52.3008204
  67.4553239  48.4402488  52.2284555  66.2441087  48.6670135  53.1073856
   3.7504780  28.2004166   8.6717713   3.3379835  28.9473200   9.1056079
   3.0268037  27.6024938   8.4846461  78.9335355  34.4468069  16.1865604
  79.8790164  34.4580460  16.3354599  78.5597492  34.2181563  17.0375800
  64.1622373  63.6964437  58.9401126  64.9939032  64.1334411  58.7568230
  63.8092609  64.1616794  59.6985290  68.6998311  36.8867803  18.5173225
  69.4600741  37.3345304  18.1461346  68.1745736  36.6364956  17.7572596
  23.3304191  29.8487520   3.9462051  23.7919044  29.0123320   3.8856652
  23.7883258  30.4201174   3.3296865  14.1269088  45.3816700  31.4177752
  13.8467729  46.0579491  32.0345402  15.0799263  45.4655647  31.3869309
   9.2820203  36.8832016  25.9011936   9.1134948  37.7584410  25.5522156
  10.1207495  36.9638419  26.3553548  40.3172751  74.8729941  61.3373575
  41.0180648  74.5891878  60.7503480  39.9454161  74.0591761  61.6774383
  20.3597927  29.4062519  25.2418470  20.6432438  29.8194695  26.0574079
  20.8541608  28.5874820  25.2037644  28.2887745   8.2587099  36.2512136
  29.1084743   8.2371783  36.7450356  27.6437235   8.5967129  36.8724179
  72.9005698   9.0041453   8.7954843  73.6901752   8.4740734   8.6869538
  73.1248412   9.6296746   9.4844306  11.3339925  38.4512401  21.7391276
  12.0080030  39.0623689  22.0365548  11.2479126  38.6270404  20.8021569
  29.5653439  43.0967951  16.8760240  30.1500416  42.4078941  16.5601540
  29.8532510  43.8850546  16.4156032  45.4686546  18.7102795   8.3142298
  44.8739862  18.0020130   8.0673259  45.1907778  18.9600658   9.1954929
  33.1462479  31.7490029  25.2110672  32.3933482  31.7503643  25.8021450
  32.9015875  31.1415386  24.5129561  18.3123398  18.0529737  55.1806688
  18.5672438  18.3015192  56.0691929  18.1943953  17.1039653  55.2219439
  11.1227036  23.1039310  39.2825866  10.9515738  23.9062381  38.7893844
  12.0286775  23.1932282  39.5783401  12.3138734  23.0301641  42.2324622
  12.5149103  23.5687802  42.9977787  11.8210479  22.2887633  42.5841391
   7.9954624  21.2925458   6.9170696   8.7969559  21.7995381   6.7874587
   8.0244863  20.6203985   6.2361819  57.1051911   9.5936894   5.4884267
  56.7978195   9.7963423   4.6048623  56.8272427  10.3422523   6.0162807
  74.5115078  11.4184487  26.9550872  74.4960884  12.0317209  27.6898599
  75.1997174  10.7923639  27.1800685  16.9192505   8.8481653  53.0676317
  17.3674440   9.4818383  53.6278200  17.3873448   8.8923699  52.2338629
  33.6376055  57.7457663  64.0688222  34.5370277  57.4447080  63.9398466
  33.6973651  58.7004849  64.0345732  24.6675801   8.0653983   3.2121554
  23.9236736   8.0297393   2.6108554  25.0552821   8.9277005   3.0626425
  42.3664415  17.0610784  58.0010641  42.2039997  17.7935241  57.4066174
  42.2704255  16.2820981  57.4531549  72.7989940  40.3646660  20.6685066
  72.9044834  39.9164963  19.8293114  71.8847535  40.2127361  20.9079099
  27.1218085  32.0021152  17.2171116  26.5888023  32.6245356  17.7118123
  26.9281912  32.1967912  16.3001347  59.9451271  23.8086009  33.9349222
  60.1503149  24.4097733  34.6509695  60.5452887  24.0589976  33.2325411
  69.2643437  51.4669561  15.7728565  68.7235895  51.9000292  15.1123548
  69.6304706  50.7063770  15.3215170   8.7825137  43.2222366  30.2585840
   8.3828253  43.6690855  31.0047793   8.7292260  42.2924280  30.4796028
  25.2569413  31.5314579   8.7711114  24.8406029  31.0713410   8.0422854
  25.9091830  30.9143138   9.1026932  14.7830959  18.1003579  63.9452056
  15.6629594  18.3884248  63.7021207  14.2721625  18.1858632  63.1403040
  69.7199438  35.8701682  47.9025078  69.9859212  35.5003428  47.0606518
  70.1302461  36.7346859  47.9246855  11.0553551  52.7173901  52.2382832
  10.3013134  53.3059406  52.2738600  11.5329468  52.9871655  51.4538336
   3.6861286   3.9201340  26.2156463   3.2549575   4.7600901  26.3731170
   3.2496646   3.3114114  26.8116236  38.1622223  50.5007887  12.9747438
  38.1227878  50.6495333  13.9194930  38.1191830  51.3772058  12.5922918
   5.4074427  37.7659295  62.4076331   5.0112554  37.4025148  63.1995914
   6.3500639  37.7130074  62.5654194   2.4484058  60.4414463  13.1116235
   3.0302235  59.9970675  13.7282622   2.8424665  61.3053322  12.9905868
   6.6479784   7.0108271  40.4895496   7.4441713   6.9058579  39.9686956
   6.9623494   7.2406936  41.3639450  56.9155955  18.5569022  60.5021307
  56.3219124  17.8465484  60.7453785  57.5220948  18.1589101  59.8776362
  74.7042663  32.5585437  29.5857596  74.2382611  33.3382201  29.2838073
  75.4127137  32.8993964  30.1317930  77.7137395   0.1490321  42.0936537
  78.0690999   0.8542402  42.6346064  76.7655037   0.2153927  42.2062445
   5.4647410  43.4383965  36.8014956   5.3869581  42.8963137  36.0164285
   5.9134656  42.8788900  37.4353981   9.5175618  37.8927612  48.1929970
   9.3374425  36.9983029  47.9036331  10.3340590  38.1273413  47.7519369
  27.8631878  20.6740594  37.1170378  28.1260777  21.5315795  37.4513769
  27.8130722  20.7919168  36.1684442  19.3937278  13.8946652  26.5247440
  19.7263861  14.1239917  25.6570005  19.5510411  12.9535282  26.6005325
  23.7618494  24.9137592  24.1249180  24.1500926  25.7205105  23.7863207
  24.2587757  24.7244859  24.9208283   8.3455539  18.2443297  32.5560164
   7.5824410  18.0816424  32.0015597   8.7498617  17.3836541  32.6655841
  79.0128499  27.8935480  22.1231437  79.5253187  27.8956175  22.9315996
  78.8646772  28.8195086  21.9311190  62.8120033  44.6268559  32.1630836
  63.6281303  44.5345211  32.6546550  63.0280618  45.2290535  31.4511061
   5.4901868  37.1318841  44.8626041   4.8261321  36.6706371  44.3502426
   5.6810153  37.9196954  44.3535185  72.9930494  48.3716202  26.4293051
  73.3310822  49.2657852  26.4787006  72.3047290  48.4121180  25.7653713
  31.8350458  63.2309008  13.4494865  32.7699208  63.2868147  13.2517171
  31.6330862  64.0575647  13.8877499   0.9193407  63.1022835  31.5546751
   0.8545949  62.4212503  32.2241807   1.8463683  63.1168222  31.3166833
  22.5028634  63.3327436  15.8834767  22.3577690  62.6934958  15.1859498
  21.6231489  63.5827494  16.1660266  46.0595989  45.0927687   5.5021089
  45.2224398  44.9769735   5.9515429  46.4762259  44.2321301   5.5463159
  57.7177361  44.6389961  61.0217857  58.0886582  45.0318050  61.8119431
  57.9876856  45.2241611  60.3140163  65.9163348   9.4165438  43.0284071
  65.4276112   9.2202920  42.2291136  65.3043953   9.2198789  43.7376928
  12.6898229  44.3022966  13.7706482  12.3605621  43.7046671  13.0993366
  12.2368062  44.0365839  14.5709014  73.4921694  57.8979705  37.6503968
  73.2769489  57.5658821  38.5219646  73.7987876  58.7916969  37.8035998
  24.3224941   0.9055330  45.6352043  24.4415144  -0.0441502  45.6481457
  25.0106802   1.2410165  46.2097311  20.6225133  29.8981476  38.4175229
  20.8045697  30.8373594  38.3864284  21.4407706  29.5055079  38.7216973
  45.6229655  69.6217515   2.8536808  44.9237160  70.2750828   2.8746235
  45.1674251  68.7867095   2.7468073  29.1171670  36.6977167  11.5134060
  29.0558791  37.0818877  10.6388271  29.6801305  37.2994781  12.0004249
  26.7218900  74.6721411  35.3207874  27.0808077  74.4248056  34.4685912
  25.7730055  74.6473598  35.1973629   8.3659619  66.5003347   7.0567417
   7.6010126  66.6845560   7.6018554   8.0105305  66.3891983   6.1749548
  28.5402608  23.3073211  42.0197105  27.8972840  23.3246851  41.3108301
  28.0577588  22.9654098  42.7723885  78.0129781  27.2036624  31.4044785
  78.1952826  28.1432104  31.4200807  77.4565350  27.0803905  30.6354499
   1.9008218  66.8539572  22.0136571   2.7460811  66.5933752  21.6477799
   1.4627211  66.0274887  22.2167635   6.0358548  23.6629057  32.8509498
   6.7202920  24.1099596  32.3530340   5.6801808  23.0159998  32.2416544
  75.0289712  14.9313283  39.0639806  74.3480618  15.4382515  38.6216879
  74.6065880  14.0998721  39.2796302   6.5597737  43.9937210  31.5288997
   6.2673408  43.9314318  32.4382043   6.0900658  44.7501230  31.1775279
   4.0811259  49.3652630  41.4534855   4.0629342  50.3191471  41.5310097
   3.6156598  49.1823721  40.6373215  76.5211490  17.3767304  25.0453401
  76.2953109  16.8709350  24.2646980  76.7673046  18.2385778  24.7093987
  78.2727230  45.4396677  43.7452936  77.9595835  44.5387602  43.6644316
  78.1790498  45.6431770  44.6759081  13.3169687  22.5879788  46.7707014
  12.5597274  22.0630217  46.5113974  13.9508426  21.9492149  47.0969200
  36.8457198  43.5925531   1.4716202  36.9279146  44.5460796   1.4880376
  37.5292230  43.2829666   2.0659348  78.8077801  51.4425802  48.7183857
  79.6430614  51.8544674  48.9394951  78.2502127  51.6086435  49.4785023
  34.6057534  63.0764771  15.5424368  35.2185678  62.6261091  16.1236930
  33.9104795  63.3876133  16.1221099  41.6615009  36.0361338  12.7533746
  41.9066286  36.7025423  12.1114707  42.4487257  35.9135962  13.2839370
  41.2416621  68.5684916  57.7384073  40.8657249  67.6890227  57.7763140
  40.5661329  69.1340634  58.1126029  48.3772674   7.5727866  58.7544912
  48.9672905   7.9439996  59.4104678  48.9163956   7.4878619  57.9681325
  52.7411322  66.1657286  55.2145910  52.9281763  65.4126644  54.6541023
  53.1577185  66.9042301  54.7704077   5.8073556  44.5001507  41.5687418
   6.4480168  45.2074051  41.6433907   5.1588368  44.6919489  42.2461367
  24.9629036   0.4131509  17.3134995  25.5979628   1.1236526  17.2234023
  24.3794937   0.5166103  16.5617275  75.9986997  63.6023449  18.9655209
  76.4881921  63.1752084  18.2625389  75.1155186  63.7086581  18.6120832
  35.9532261  66.0592651  16.2176597  35.4714203  65.2560616  16.0202694
  36.2932301  66.3488102  15.3710246  10.4278910  42.7179861  41.5951204
  11.3570499  42.6653767  41.3712263   9.9990916  42.1238661  40.9791803
   0.4439247  44.1653347  12.1841419  -0.3604526  44.3120146  11.6864538
   0.8790895  43.4444284  11.7289960  36.2871099  14.3142271   9.7702795
  35.9141898  14.3561327  10.6508517  37.2299457  14.2313147   9.9131608
  19.2368042  34.6022868  20.7974720  18.4554100  35.0972939  21.0436869
  19.0779006  34.3391967  19.8909593  21.8177890  71.2097832  62.7697949
  22.6734208  71.0847255  62.3593238  21.2082901  71.2833544  62.0354036
  74.0071789  37.7602649  24.3499517  73.7982050  36.9173837  24.7525811
  73.2400802  38.3056545  24.5241427  15.9513354  51.3341713  52.7758551
  16.3789165  52.1902895  52.7542210  15.0939786  51.5044403  53.1659555
  12.4365699  42.9077435  38.0424547  13.1522095  42.9403257  38.6773014
  12.8370368  43.1777334  37.2160387  60.2951580  29.3008111  62.7980805
  60.2799004  29.6742938  63.6792774  60.5612320  30.0273727  62.2345725
  25.0552917  33.3402348  35.1104283  25.1399732  34.1869545  34.6721053
  25.9571433  33.0610180  35.2683330  17.6570249  18.1564152  33.4351993
  16.9961751  18.2887387  34.1149044  17.2401941  18.4682512  32.6319289
  67.0751146  54.9527597   4.2758521  67.5946156  54.2599297   4.6836975
  67.5553075  55.1740122   3.4779206   2.7424765  16.3944018  51.3458729
   3.3438376  15.6806064  51.5582275   2.2053704  16.0507047  50.6319952
  12.1082306  40.1593971  36.3566542  12.2686708  40.6304979  35.5390048
  12.6439691  40.6160307  37.0052671  70.6674349   0.7936667  62.2713600
  69.7781265   1.1312244  62.1645133  70.5926585  -0.1419498  62.0835760
  26.6145583  73.4175595   9.7260094  26.6908332  72.9688256  10.5680621
  26.6397401  72.7145802   9.0768427  19.0766132  38.6262965  29.8731160
  19.4476116  37.9733634  30.4666424  19.7426009  39.3121409  29.8250461
  19.8221278  20.8156657  33.1947231  19.2842376  20.0263405  33.1325269
  19.2037690  21.5094423  33.4239388  21.5342474  48.8738489  24.9217510
  22.2066259  48.7705183  25.5951500  21.8910861  48.4238958  24.1559577
  55.2631345  30.5285094  64.3008649  55.9283361  30.0592111  63.7973783
  55.4898167  31.4523814  64.1945611  50.7934455  33.6449446   5.0766766
  51.6331486  33.7566750   5.5223763  50.5986718  34.5085718   4.7127497
  35.4895739  11.6057159  10.0654685  35.0696395  11.3303138  10.8803535
  36.0651628  12.3255016  10.3240132  29.8813601  53.6587342  59.4912637
  29.1780945  54.2991027  59.5988602  29.8349156  53.4045753  58.5695923
  14.6523571  30.9929347  12.3736668  13.8618541  31.4867592  12.1557820
  14.4324064  30.5343795  13.1845796   7.2141737  35.1285744  31.6223574
   7.0172882  34.2802787  31.2250423   6.3902980  35.4007292  32.0265770
  11.5706360  62.7910089  23.3717418  12.0427525  61.9614029  23.4430957
  10.8187675  62.6896811  23.9554024  78.0247938  50.3437853   9.2807800
  77.7361997  49.7305918   8.6048084  78.9798614  50.2810001   9.2691445
  26.7447639  39.2651439  33.9076138  27.0091534  38.5415530  33.3395100
  27.4829936  39.8737979  33.8794947  60.2105979   2.5668931  25.7851720
  60.8460561   2.9814985  25.2016258  60.1287440   3.1742671  26.5204453
  45.7874632  47.6805544  12.0542574  46.1043453  46.8603086  12.4324334
  45.3403711  47.4165773  11.2501049   4.4802161  14.3208716  58.0620909
   3.7997862  13.6597274  57.9350609   5.0571676  14.2193006  57.3050934
  30.3157687  25.9025192  26.3998580  31.1772323  25.8850813  26.8167591
  30.0837231  24.9802899  26.2908578  33.1090617   2.3677143  11.7197752
  33.5315776   1.6400707  12.1761167  33.7216902   2.6011080  11.0223186
  75.7279167  29.2858028  40.7833624  75.9877158  28.6773801  41.4751434
  76.0484797  30.1373696  41.0805273  19.3570030  34.7328401  43.2849836
  18.4738219  34.4428158  43.5132551  19.3533754  34.7819877  42.3290539
  68.9894485   9.9779962  25.0037134  68.6631715   9.8270152  25.8908308
  69.8240733  10.4295610  25.1291025   7.7837276   4.6149492  45.1413012
   6.9368047   4.6193385  44.6952820   7.6294547   5.0982267  45.9530163
  68.8900439  69.1412830  19.6028042  69.1622344  68.9953375  20.5088067
  68.5787693  68.2863140  19.3055451  69.4606352  11.8785213  49.0739489
  69.1807270  11.2143920  49.7038818  70.0324488  12.4590800  49.5761585
  33.2042813  42.6327085  31.7910671  33.5818172  43.4837580  31.5687776
  33.8917899  42.0022535  31.5763712   6.1087841  47.5392532  38.2574010
   6.1367142  46.9732904  37.4859500   6.9073462  47.3258209  38.7400770
  28.8609171  53.7151766  13.4868920  29.6634817  54.0429831  13.8926828
  29.1517949  52.9930592  12.9299653  10.3663266  41.0919189  39.3894291
  10.6291986  41.8315935  38.8416982  10.3582132  40.3432417  38.7930632
  72.6527391  59.6443796  41.3653088  71.8259070  59.3367767  41.7367411
  73.0864898  60.0971270  42.0885754  19.8534822  51.0764217   7.8227639
  20.4599953  50.5393791   8.3326250  18.9935231  50.6906605   7.9897594
  21.4089322  30.3790736  27.5497532  22.2644067  29.9927282  27.7371883
  21.6096282  31.2471771  27.1999669  27.7667410  56.2972369  15.1850903
  28.5843898  55.9704461  15.5604422  27.0821130  55.9216728  15.7386839
  22.0304346  49.9650002  58.1894588  22.0661831  49.7831297  59.1285419
  21.5582013  49.2193985  57.8189039  37.9996967  56.0778999  16.3976264
  37.9205465  55.7230759  15.5121493  37.9320025  55.3130007  16.9690955
  32.8030014  63.5318565  17.4602830  32.6627922  62.6321650  17.7554643
  32.2638130  64.0629721  18.0463040  22.5507450  28.0261326  21.6479254
  22.5482702  27.7250504  20.7393146  21.6522408  27.8890204  21.9481277
  29.2003989  67.6180220  47.3390484  30.0119567  67.1558857  47.5488949
  28.5059619  67.0138311  47.6016140  78.1075372  37.5363660  36.0179162
  77.1939418  37.8131008  36.0885739  78.5913378  38.1697607  36.5479898
  14.2916405  34.0939808  12.3724949  14.7426212  34.7587729  12.8929782
  14.8886168  33.9124537  11.6466177  25.7381105  30.4109788  24.8213768
  25.5444336  30.6767273  23.9224339  26.4223695  31.0159278  25.1078272
  70.6851742  70.3536797  39.9657822  70.9918133  69.5701599  40.4221821
  70.1188657  70.0194740  39.2702007  15.8658234  14.3768169  57.0814419
  16.2174384  14.2119838  57.9563284  16.5437064  14.8919441  56.6440105
  56.4020685  29.4700599  10.6924832  56.7972449  29.2031646   9.8625219
  55.5434421  29.8158312  10.4486978  62.1143762  35.0709438  19.7227025
  62.1397523  34.8620844  20.6564927  61.4417187  35.7477069  19.6468353
  22.0985181  73.0697801  10.6785881  21.4742199  72.6586415  11.2764609
  22.4025951  72.3540546  10.1204598  30.1523733  59.5911169  34.6948123
  30.7221770  60.3599834  34.7148895  30.4803061  59.0690327  33.9626122
  15.0451171  53.3428764  20.7445264  14.5170164  53.7520456  20.0590181
  15.6752431  52.8007221  20.2699280  20.0503087  36.8304491  31.8345451
  20.0280952  36.0313559  32.3610306  20.9821153  37.0005679  31.6966081
  10.9663904  43.7864685  33.1189823  10.7060003  44.0876198  33.9894652
  10.3557277  44.2201042  32.5229239   7.8909355  44.6966934  21.9404078
   7.7648854  44.3354082  21.0630155   8.8310277  44.6142435  22.1005988
   1.6756172  66.5254927   2.2225139   2.4472053  65.9645224   2.3012227
   1.7908719  66.9752598   1.3854608  72.4986336  19.8090374  13.4425676
  71.6007004  19.9582458  13.1464517  72.4193279  19.1351616  14.1177237
  13.0328763  51.0012150  31.5017486  12.5368130  50.7573271  30.7202935
  13.6236548  51.6930676  31.2041783  67.3739997  64.5258760  48.5276556
  67.8125457  64.8357821  49.3200350  66.7142800  63.9090395  48.8446951
  68.3668760  56.6713476  14.7447491  68.6338583  57.3869419  15.3217030
  68.4352747  57.0366526  13.8626456  14.6509898   8.9321393  45.5504751
  14.9751830   9.2650890  44.7136497  15.4128683   8.5164976  45.9542274
  12.4102970  34.5785163  63.3010786  12.6601811  34.8356412  62.4135679
  11.8126699  33.8410876  63.1774867  35.8557177  49.2206144  20.4837370
  35.5745935  50.1102924  20.6974363  36.0463667  48.8194942  21.3316679
  56.7140623  67.0307752  62.0902303  56.4404078  67.4807831  62.8895048
  56.6181918  66.1005136  62.2943256  22.7657563   0.4512741  35.9185076
  23.3285395   0.2319719  35.1759338  22.1197016   1.0587503  35.5582094
   8.8873428  34.2293549  19.3598020   8.0639392  34.4350719  18.9171755
   9.5633715  34.5996404  18.7922597  51.4501783  20.9911469  11.6322481
  50.7407509  21.6271094  11.7244160  51.2619338  20.3248719  12.2932112
  73.9305399  56.4791727  12.3992133  73.3887032  55.8446360  11.9301629
  74.1438860  56.0469818  13.2262111  26.9590354  52.7295542  22.9240799
  26.0293388  52.6572800  22.7080417  27.0153570  53.5039902  23.4838200
  14.4896829  13.7049460   3.9888796  14.3545353  14.0004337   3.0885160
  14.9938476  12.8959000   3.9023164   5.7793335  59.6158220   5.9295189
   6.6071145  59.7479774   6.3916313   5.4598979  58.7712457   6.2471449
  70.8621621  24.0500043  31.0667050  70.6466007  24.0726493  31.9990432
  71.1295259  24.9457572  30.8608663  31.6990928  13.7938453   7.7492833
  32.3386119  13.2072021   7.3454291  32.2224651  14.3759872   8.3001262
   8.8629872  39.8617649  12.0734143   8.0037409  39.5766687  12.3842955
   9.4829047  39.4646025  12.6851308  63.5521769  67.6404141  20.7435226
  64.1515815  68.3228295  21.0456085  63.8573944  66.8440138  21.1780596
  35.1021051  60.2575111  17.2691584  34.1845846  60.4714870  17.4382782
  35.5854416  61.0327053  17.5549793  53.0011634  25.6884433  20.3391385
  52.3332838  25.5799629  21.0161924  53.6477212  26.2746765  20.7322454
  20.6412864  42.6457691  30.2991939  21.2289166  43.3558512  30.0409245
  20.0532675  43.0431366  30.9415054   4.0810660  29.9981403  17.4473190
   4.8657155  30.3233171  17.0059383   4.3828562  29.7516060  18.3216047
  33.8987041  40.7941198  34.4002533  34.0644455  41.0101175  33.4825897
  34.0312171  39.8475075  34.4512105  65.4793922  62.5528240  49.1206312
  65.0667671  61.8240976  49.5842361  65.4627613  62.2911739  48.2000351
  16.8402767  21.9684267  30.3713465  16.2627780  22.1225262  31.1189961
  17.0586920  21.0380340  30.4251766  30.6790828  69.1964122  59.8088810
  30.6216248  68.3222887  60.1946730  29.7913473  69.5476290  59.8781917
  70.1539250   1.4217666   8.0695641  69.6275087   1.4772585   8.8670838
  69.6500750   0.8511737   7.4892246   8.7451595  60.4233885  22.4959397
   8.1471533  59.8526096  22.9784679   9.4242227  60.6505871  23.1311440
  75.1753306  36.5737079  59.4281215  74.7386503  36.6073249  60.2792448
  74.5041537  36.2502549  58.8271779  29.4605803   2.3030923  29.4717741
  28.5910583   2.5706720  29.7693706  29.9057674   2.0090774  30.2665043
   6.1497849  56.6756725   9.7821116   6.3104349  56.8717957   8.8590956
   6.3025296  55.7337046   9.8569286   2.9436159  40.6786203  35.7932973
   2.1440473  41.2018919  35.8490753   3.1042030  40.3901005  36.6917419
   4.1888878  63.7237549  17.3679543   3.9746079  63.1054783  18.0665600
   5.1420772  63.8039207  17.4030995  19.5452321  24.2010951   7.2358739
  20.2734971  23.7324691   7.6436156  19.9199951  24.5815301   6.4414853
  19.2301214  50.7555103  11.7944777  18.7230551  49.9773407  11.5630293
  18.6606932  51.4896536  11.5642297  13.3127832  40.8307457  52.9230833
  12.5806725  41.2215710  52.4461079  13.9067793  40.5219173  52.2389603
  76.9112324  36.2858844  14.8502314  77.2038255  35.3788948  14.9396145
  77.6666153  36.8088150  15.1188791  21.7852235  26.4839911  27.7197981
  21.4725208  25.6106544  27.4837255  20.9917212  26.9698739  27.9445267
  63.1044213  56.6868973  20.0242686  62.2774843  56.8047333  19.5568049
  63.7518791  57.1390200  19.4833267  23.2858586  65.2411985  38.8630724
  23.5148716  64.4931793  38.3114815  23.5323858  66.0063410  38.3434415
  62.9577021  21.2080814  58.8461447  62.8099278  21.7363979  59.6305418
  62.1968106  21.3833572  58.2924700  25.9387040  46.4918423  27.1361351
  25.7964849  45.6939983  27.6454973  25.8608150  47.2007036  27.7746296
  14.5699489  51.5475368  25.6901026  14.0166390  52.3243475  25.7715845
  15.0214159  51.4856815  26.5318751  54.2856673  62.0910003   3.3895075
  54.0742735  62.3869731   4.2749130  54.1500024  62.8630068   2.8401148
  65.2079479  25.0554204  31.3838983  66.1485151  25.2187443  31.3139653
  65.1272122  24.1022277  31.3501835  19.2345778  -0.2236746  43.2979107
  18.8624159   0.5101730  42.8088331  18.8439450  -0.1536654  44.1689634
  33.0961490  52.7382469  36.2981510  33.6886072  53.2411480  36.8570042
  32.4132895  52.4267054  36.8921876  24.0418983  56.8135023  50.2950335
  23.4912682  56.0880184  50.0005627  23.8000035  57.5441217  49.7258997
  56.1310788  15.7764414   4.0375054  56.0093396  16.6094998   4.4929421
  55.3549166  15.6904343   3.4839642  65.6290284  59.6880722  35.4501748
  65.1666001  58.9302635  35.8081102  65.4699651  60.3871965  36.0843301
  20.7189608  40.5280304  28.4448099  20.6405568  41.3963366  28.8399410
  21.6181564  40.2594233  28.6332917   1.4841832  22.4820018   4.1273779
   2.4159366  22.3384023   3.9617074   1.3777794  23.4324908   4.0889224
  19.9776912  47.4461699  49.1470003  19.1380894  47.0004845  49.0344524
  20.4857612  46.8614435  49.7093105  32.2353435  49.2824221  27.3327374
  32.1863055  48.3264828  27.3290300  32.8521490  49.4878817  28.0352807
  53.3037510  27.7030585  57.5155479  53.3351537  27.1506284  56.7344797
  54.2087929  27.9865954  57.6449168  64.4426024  70.5994390  30.8300209
  64.8416424  69.7408722  30.6890893  63.6072338  70.5545642  30.3648591
  64.8064581  47.7178240  26.6825414  65.2265052  47.2244215  25.9780240
  63.9785735  48.0158138  26.3056612  32.9713559  14.9024318  55.5744285
  32.3516822  14.2796872  55.9544635  32.9063356  14.7590898  54.6302587
  22.9993391  50.7942629   1.3785475  22.5542259  50.2175331   1.9994223
  22.2961020  51.1489201   0.8345741  78.1219488  66.0152912  33.6791849
  77.6931835  65.9292507  32.8277230  78.9295648  66.4943027  33.4933519
   2.6387370  51.9702625  26.3135958   1.9837354  52.5931835  26.6285133
   2.3745044  51.7793703  25.4136109  20.9310579  61.9194889  40.9191084
  21.0574007  62.2622442  40.0343561  20.0153875  61.6413593  40.9397268
  44.0060711  12.0320272   1.0072277  43.6022139  11.8225729   1.8494025
  44.8632431  11.6073060   1.0404221   6.3548189  41.2868881  63.7112951
   6.9344479  41.7280197  63.0902767   6.7619234  40.4323101  63.8533926
  72.8326426  60.3452635  30.5597377  72.7243767  60.0583696  29.6529841
  71.9572244  60.2727890  30.9400296  41.3789034   6.4343166   2.8531313
  42.2722101   6.0925144   2.8156358  40.9938192   6.0142583   3.6222160
  21.8745776   1.8050097  48.8543236  21.9741603   2.2172425  47.9961992
  22.6949569   1.9966195  49.3087387  36.6554451  60.9488058   9.1610408
  36.5262008  60.4349089   8.3638984  35.7951403  60.9605980   9.5805287
  57.8480816  21.5804791  12.1912074  58.1150723  22.0655441  11.4103985
  56.9957590  21.2094665  11.9628978  33.6177369  17.6826266   2.0124829
  33.1044300  18.1231240   1.3351977  33.3375462  16.7684010   1.9687330
  70.8830535  20.8726810  47.1296442  70.6542218  20.2156137  46.4722777
  71.6696274  20.5261872  47.5509250  16.1292183  38.7338519  21.6343522
  16.0284698  39.6173859  21.9885445  16.1392653  38.8560772  20.6850410
  24.2028809  66.7837763  32.3199630  24.2510915  65.8386374  32.1763611
  24.0055180  66.8746376  33.2521772  21.8660045  66.0331059  23.2155013
  22.6701736  66.3091993  22.7758265  21.5979052  65.2412462  22.7493334
  27.5140440  70.8908894  20.8072817  28.4634478  70.9799864  20.7240641
  27.2401885  71.6770937  21.2796366  63.6195902  69.7102451  39.6432495
  63.4910766  70.6444931  39.4792581  64.0962020  69.6759987  40.4726458
  25.8487868  22.8028226  22.9067922  25.0175381  22.5554657  23.3118486
  26.0443258  22.0854473  22.3039937  50.8905707   7.0197991  19.6492636
  51.5682727   7.3782042  19.0761149  50.0682138   7.3336485  19.2731535
  10.0959170  32.1166515   7.2855133  10.6790221  31.3594103   7.3384768
   9.7012091  32.1763182   8.1555003  16.6630721  71.4066553  33.9453125
  16.6738665  70.6053114  33.4219027  16.2624204  71.1457300  34.7745466
   1.2666784  59.3012857  22.8263974   0.4635513  58.7823343  22.7827454
   1.5180585  59.2763662  23.7496638   9.8755473  60.0777292  19.6054006
   9.5839590  60.8585501  19.1347373   9.7136050  60.2791834  20.5270410
  34.8220348  21.2918115  44.4967222  33.9731359  21.2744284  44.0547991
  35.4583120  21.3956141  43.7891865  72.4539486  52.5528383  31.0277343
  71.7815045  52.4144888  30.3607178  72.7307007  53.4607792  30.9041190
  66.1407021  51.0024595  40.0752163  66.4000419  50.3031063  40.6751156
  66.2843052  51.8086672  40.5708361  56.1631870  56.2839794  28.1722140
  56.9090128  55.8947945  28.6288476  56.5572405  56.8689013  27.5250530
  30.2379179  36.9410753   7.2707450  30.2960682  37.5748062   7.9857516
  29.5985723  37.3191619   6.6669905  61.4789502  54.7895336  39.2358875
  61.2343971  54.8654127  40.1582050  60.7029156  55.0813961  38.7575388
  76.1715937  45.0307035  31.1921954  76.8367625  45.2355576  31.8493223
  76.0829139  45.8357954  30.6821012  61.4167637   3.8102315  51.1259043
  61.6553455   4.0771125  52.0136464  61.3691300   2.8551267  51.1675835
  47.6469449  19.9322559  20.3913069  47.9929761  19.0417530  20.4503560
  46.6982726  19.8257209  20.4613423  64.6082858  38.2358408  36.0965490
  64.5417074  39.1537428  35.8333850  64.9021641  38.2684016  37.0069385
  74.7088052  34.2818141  11.4230239  74.0883372  34.9218822  11.0743618
  74.4692255  33.4590578  10.9965193  20.2641463  62.5855303  37.3688650
  21.1776447  62.3824406  37.5701308  19.8751020  61.7406321  37.1429920
  25.2355102  20.1275112  47.7863932  25.5042179  20.6548168  47.0340872
  25.7473356  20.4744102  48.5170984  33.1880522  60.7810068  37.0574999
  33.3367229  60.1848364  36.3235283  32.7086973  60.2564573  37.6988244
  29.8494196  68.3835411  29.3368316  29.3511748  67.5664186  29.3539762
  29.1875076  69.0652943  29.2214346  51.2517358  58.6122635   8.8416302
  50.5655371  59.1330460   8.4243214  50.9046234  57.7202443   8.8485777
  43.6763382  53.9660454   1.4962398  43.5152149  53.2724524   0.8565527
  42.8443146  54.4356298   1.5550499  41.9518805  64.8660660   8.6863565
  42.0685244  65.5380249   8.0147177  41.0030079  64.7655201   8.7623215
  67.4226177  51.8329833  46.2857640  67.0679462  51.8695663  45.3974498
  67.4391210  50.8999465  46.4988399  63.9656186  10.4913018  55.7028294
  64.5154428  10.8968852  56.3732237  64.5817423  10.0259851  55.1370484
  17.6963019  69.8638773  44.6509504  17.4024868  70.6211805  44.1445923
  17.3659050  69.1081619  44.1651869  30.4262328  61.1469793   8.2759839
  30.7754374  61.4951515   9.0963894  31.1961627  60.8318710   7.8025436
  25.8383942  49.4066191  23.5521936  26.6388726  49.8105383  23.2170630
  25.1912737  49.5481825  22.8612328  56.8732695   4.5917846  29.1697240
  57.1813206   4.9038173  30.0205874  56.0375480   5.0396730  29.0385962
  56.8671866  72.0935198  61.1133167  57.0538565  71.1602947  61.0109633
  56.4423986  72.3441860  60.2929801  43.9279739  13.2659961  30.6207561
  44.7285513  13.4571220  30.1321077  43.8156811  12.3192169  30.5356336
  19.6243763   8.7158132  10.9415531  19.5639288   9.6419775  10.7074654
  18.7160766   8.4145963  10.9637225  17.8428411  27.9318261  42.3373652
  18.1014264  28.8532019  42.3581696  17.7908456  27.6767945  43.2584953
  25.5732465  59.1554832   5.4722035  26.3766193  59.6396065   5.6631243
  25.5449152  59.1057491   4.5167166  24.2968202  71.0567427  60.6809664
  24.7851348  71.7627621  61.1044264  24.8592567  70.2877188  60.7731581
  25.0623278  40.4959467   0.7191813  24.3635420  40.1571968   0.1595557
  25.3495983  41.2987450   0.2841913  78.4520996  66.3283443  11.7617917
  78.9323598  66.1843491  10.9464109  78.4447751  67.2793007  11.8707085
  38.3492462   1.6536714  35.5547714  38.1900147   2.4487783  35.0461626
  38.9404289   1.1348106  35.0093174  23.4415555  68.0387735  36.0102963
  23.5864758  68.2663965  36.9286752  23.8726306  68.7382650  35.5192614
  28.2246280  43.2880402  28.6532044  28.7336183  44.0933323  28.7462783
  27.9511023  43.0731630  29.5449662   9.6838957  50.0182629  34.6364474
  10.5825472  50.2406645  34.3931460   9.4343728  49.3259859  34.0243030
  69.8857907   3.4097196  23.4973860  70.3794269   3.3019067  22.6844072
  69.4359378   4.2483999  23.3950186  44.6369401  13.9894153  48.0217457
  44.0555541  14.5207740  48.5656929  44.2870621  14.0822460  47.1356297
  15.6603217  55.2987289  22.6029015  14.7430050  55.4989576  22.7891016
  15.6254935  54.6323538  21.9166327  18.6905682  51.4588833  24.1913462
  17.7975154  51.7526245  24.0113282  18.5896611  50.7813311  24.8599029
  24.0014768  47.2858667  14.5604205  23.8987088  46.3842487  14.8649848
  24.3732262  47.2011852  13.6824322  47.9561833   2.2249843  40.8645153
  47.2598652   2.6154567  41.3926315  47.4971823   1.6600563  40.2429008
  12.8224444  66.7505264  25.8912802  13.6044705  67.1773338  25.5412793
  12.9292977  65.8278704  25.6599259  70.9553949  28.5382628  28.5124803
  71.4972172  28.1580472  27.8210354  71.5066019  29.2163610  28.9031005
  18.0575716  69.3796158  53.0969906  17.2031486  69.5844126  52.7171898
  17.9656839  69.5971060  54.0246153  49.0916729  62.3813581  26.8612075
  49.3974924  63.0489397  27.4752426  48.1378031  62.4047995  26.9374275
   3.6893260  53.1483412   3.6026445   4.1269925  53.0740499   4.4506782
   2.9740065  52.5137711   3.6458844  56.5273094  67.8798437  27.8992343
  57.4124336  68.2100344  28.0533600  56.5934992  67.3909569  27.0789671
  29.7482014  67.3733091  22.3967433  29.2840123  67.4734306  21.5656376
  30.6738472  67.4473715  22.1645236  58.1249527  14.0252735  43.5693693
  58.4790734  14.8840667  43.3384848  57.2947649  13.9733173  43.0957413
   1.1820956  54.6622203  55.1230145   1.8294855  54.0929530  54.7070271
   0.6580444  54.0727161  55.6653065  31.4616227  56.7454958  21.2856817
  31.4651275  56.5218687  20.3549790  32.3859334  56.7500687  21.5343976
  73.6002324  68.9979887  30.3615189  73.9744405  68.7148285  29.5272398
  74.1892687  69.6882105  30.6662607  36.8760777  70.6897497  12.6657569
  36.9368100  70.6623840  13.6206365  36.1988044  71.3422346  12.4874377
  17.8276479  62.3949766  46.2067366  17.4030435  62.7009678  45.4052973
  17.4894369  61.5085411  46.3335419  58.9841227   5.2573587  47.7963352
  58.2273964   5.5396701  48.3100510  59.2926816   4.4667674  48.2390404
  45.3339151  22.1069385  21.7886209  46.2132505  21.8951274  22.1018910
  44.7709230  21.4445163  22.1892023  73.1147126  26.2444736  44.3800926
  73.0387477  26.4683296  45.3076458  72.6821641  26.9659664  43.9233780
  30.2955518   5.5559398   7.9220676  31.0458265   5.2819110   8.4495401
  30.6696288   6.1297180   7.2534245  26.3677764  65.3506184  10.9960532
  26.7553210  65.0564861  10.1717186  26.7303276  64.7592258  11.6556311
  63.7373650  27.8812764  53.9380026  64.3917906  28.1819652  53.3074916
  64.1303444  27.1065782  54.3400455   9.7717381  37.8791118  34.2733264
  10.1547003  37.4587107  33.5033703   9.4127589  38.7026262  33.9428926
   1.6739535  27.9127836  47.7089024   2.3858353  28.5431361  47.8189564
   1.9768789  27.1274137  48.1646061  23.6201620  55.8872986  26.4488745
  23.7521458  56.2657070  27.3181391  22.6701784  55.8051062  26.3651562
  15.5265641  37.9363966  15.2263761  16.0049200  37.1072960  15.2270615
  15.2207208  38.0357099  14.3248069   8.2853357  67.5608131  49.7148085
   8.0777924  66.7101928  50.1015949   8.4695522  68.1263944  50.4647517
   7.3112971  28.1412792  13.8181019   7.9504538  27.5781131  14.2546284
   7.8393579  28.8118505  13.3848357  21.2859893  51.3416576  23.8280153
  20.3660440  51.2346315  24.0698338  21.7198992  50.5682898  24.1883731
  30.0198960  57.5913429  17.2129488  29.1052032  57.8533888  17.3173440
  30.0858617  56.7597294  17.6823080  11.1376059  22.1793866  18.3225739
  12.0737684  22.1708846  18.5219717  10.7146168  21.9453812  19.1487420
   6.8519145  32.7648878  30.6228590   6.0832286  32.1961069  30.6657815
   7.5213265  32.2309899  30.1949906  28.5509849  24.7330427   5.6833798
  27.9180288  25.2489543   6.1828160  29.2897511  24.6166849   6.2808055
  10.2549887  55.2070999   8.4834206   9.8991030  55.8060169   9.1398299
  11.1128378  55.5720377   8.2662821  42.1470737  61.5352345  17.8496206
  41.4846373  60.8510637  17.9461801  42.5933170  61.5577316  18.6961365
  52.3380569   0.4705001  46.1777830  52.3049025  -0.4801367  46.0709000
  53.2108525   0.6414367  46.5316725  78.2033308  34.2863158   7.0045292
  77.5602944  33.9678553   6.3710272  77.6788099  34.5990876   7.7416050
  25.5646726   6.8682693  56.1198950  25.5568715   6.3364242  55.3240848
  25.2551957   7.7284644  55.8361393  43.1965065  30.1869535  11.4500403
  42.5823736  29.4668889  11.3065648  43.9985371  29.7610116  11.7526186
  43.1447983  66.7821980  31.9476771  42.7220106  66.8067646  32.8060937
  43.4888935  67.6669121  31.8247557  44.8153087  10.1428912  52.6627600
  44.3474885  10.3197167  53.4789145  44.1516133   9.7707055  52.0820582
  23.6885691  15.3360534  12.5758588  24.5175838  15.5901992  12.1704221
  23.0197501  15.7681036  12.0445919  23.2728597  15.4187701  46.9096518
  24.0206405  15.0352405  46.4514339  23.5678884  16.2947915  47.1582139
  32.0188113  41.1665319  63.1013833  31.1555692  41.1252139  63.5128843
  32.6301786  40.9484170  63.8048678  49.1865444  66.9711304  20.7598567
  48.3534813  66.5237617  20.9085155  49.7518110  66.6669416  21.4699125
  55.3330755  60.9262276  20.9491801  54.8408890  60.5301571  20.2300787
  55.6420898  61.7608404  20.5967999  25.8288860  70.7015085  40.3116083
  26.1682272  70.6598854  39.4175458  26.1358643  71.5445042  40.6453037
  47.8428312  71.0920760  43.2721246  47.2091719  71.4383718  42.6438034
  48.3709665  71.8502041  43.5222185  42.0306281   9.8699142   9.2563188
  42.0379094   9.5236255   8.3639860  41.3250188   9.3925525   9.6927422
  42.0242643  68.7540007   3.2102096  42.7180481  68.2629538   3.6503947
  42.0539093  69.6225071   3.6115161  28.7201166  67.2569084  38.9925265
  28.9592433  66.9164515  38.1304741  29.1401458  68.1159449  39.0357184
  40.1344442  72.0804834  19.0619147  40.3247833  71.2665176  19.5282495
  40.8390856  72.6747417  19.3199325  22.8889865  15.7874443   4.8776424
  23.1630323  15.2614738   4.1263247  22.8893111  15.1739551   5.6123942
  61.6726498   2.2804595  35.4027176  61.9502310   3.1926776  35.4866219
  62.4231867   1.7724325  35.7106638  24.2299891  60.7598162  28.3953142
  24.9499822  60.8991051  29.0104890  23.4472704  60.7299423  28.9454889
  46.7161942  50.8339977  17.0177245  47.1783733  50.0506067  17.3159194
  45.7891417  50.6183195  17.1191430  50.4900269   2.4493123  43.7399817
  50.4909090   2.0883562  42.8534508  50.0212268   1.7989351  44.2629242
  31.3177919  57.4459600   0.1753641  32.1189117  57.9503679   0.0338938
  30.7446027  58.0382967   0.6620088  31.1295295  71.6170979  16.2837088
  31.2143803  70.9047794  16.9174564  30.1856947  71.7542362  16.2024617
  41.8676583  15.2650978  19.9024272  42.4173168  15.9849502  19.5927215
  42.2485963  14.4835140  19.5021188  61.0489913  73.3668801  54.0896034
  60.4780622  73.9765855  53.6221302  61.8160792  73.8891098  54.3243015
  24.1090941  42.1333408  26.5825939  23.3779597  42.6369619  26.2247682
  23.9043880  41.2245560  26.3625026  35.1328564  56.5704489  27.6018906
  35.3500581  56.0816145  26.8081045  35.0146437  55.8978271  28.2725859
  73.7902856  48.5096095  62.0315373  73.9315820  49.2156051  62.6622725
  74.6402192  48.0744193  61.9647694  19.2527783  61.1541891  15.7868218
  19.9961746  60.9046030  15.2379107  19.4753408  62.0277309  16.1087167
  70.8747909  39.8000598  16.6614282  69.9980644  40.1559687  16.8060291
  70.7809810  39.2369986  15.8930564  78.4457777  37.3326993   5.2904427
  78.0937015  38.1752253   5.0033450  77.8678746  37.0622301   6.0039592
   8.3831453  57.7988863  35.4810548   9.1176075  57.1888542  35.4128051
   8.2995522  57.9690933  36.4192843  71.2511603  32.4404502  18.6728549
  71.7270056  31.7531776  19.1391826  71.9292287  33.0587912  18.4006262
  38.2803754  10.2405788  37.6296353  37.7983097   9.9176742  36.8683362
  37.6042727  10.4184486  38.2834554  76.4208925  61.7363787  43.7444210
  77.2508297  61.7875671  44.2185688  76.2699560  62.6273918  43.4289026
  60.2814654   2.3085166  38.4357667  59.7654919   1.8996669  39.1306376
  59.6658448   2.8918077  37.9919028  62.7462530  70.4318476  33.0418372
  62.6818800  71.3514423  33.2995820  63.4656858  70.4097557  32.4108410
  45.3157715   5.5953742  24.0763187  44.8161236   4.9069644  23.6373591
  44.6510009   6.1544754  24.4784594  38.0569998  17.2264339  21.2053251
  38.2662145  16.2950851  21.2763453  37.3928324  17.2709514  20.5174780
   6.3464519  17.6983855  57.3969591   5.4064342  17.5855516  57.5379080
   6.7231008  17.6915906  58.2769144  71.2757710  15.3633548  36.6401911
  70.4896430  15.8854820  36.8002272  71.0146502  14.7384502  35.9637737
  10.9700271  28.0416034  54.6535558  11.7540213  28.5869048  54.5885301
  10.5906220  28.2679151  55.5027116  73.1352035  38.2477546  28.2014537
  72.9022405  37.6001740  27.5361705  72.4542407  38.1613874  28.8685822
  48.7133773   6.2254980   6.0612213  49.6112003   6.2031392   5.7300961
  48.7269728   5.6540850   6.8290341  57.9646134  29.7919057  44.2966473
  58.0942249  28.8852332  44.5748103  58.0005711  30.2987741  45.1078332
  34.0182304  52.7628088  25.5158114  33.1846762  53.1501389  25.2486110
  34.1246319  52.0040703  24.9420333  36.1460018  70.4779005  28.2723212
  36.5788865  70.8224010  27.4911928  35.8059835  71.2530565  28.7192559
  48.8962130   9.8480369  29.2441463  49.6812204   9.3223049  29.3977880
  49.2277531  10.6815673  28.9101744  24.9013901  66.6129875  47.3590517
  24.8338318  65.6947136  47.6206732  24.0275788  66.8354082  47.0377827
  28.4100773  20.6677009  40.2017879  27.9789505  20.9215690  41.0178232
  28.8118924  21.4754249  39.8818493  11.2145817  61.8856335  12.3404372
  10.5388081  61.7047977  11.6870928  11.0535812  61.2466717  13.0347264
  17.9955328  64.1034698  13.7876058  18.6164975  64.0832758  13.0594385
  17.8193903  65.0340223  13.9264357  54.6177833   0.9972742   9.0856421
  54.6833328   1.6049102   9.8223364  53.8866285   0.4229430   9.3132174
  16.9511139  69.5538664  20.9679365  16.2049520  70.0862074  20.6920958
  17.5121987  70.1601887  21.4514518  15.7041851   0.6866600  23.1473374
  16.1540369   1.2516071  22.5190854  15.1115147   1.2741615  23.6161828
  22.5819778  67.2524452  17.1203601  21.6871405  66.9257450  17.2139621
  22.9502296  67.1982002  18.0022228  39.2482138  44.1111040  10.5861044
  38.6131215  43.7575436   9.9633026  38.7966180  44.8489285  10.9958673
  19.5197785  42.7222538  16.1982226  19.4113839  43.5010576  15.6523728
  19.9184346  42.0753717  15.6161153  24.9414229  63.1139565  43.6972713
  24.8095918  63.5904837  42.8776503  25.3974795  62.3132753  43.4381199
  10.7124794  73.8687229  47.8271055  10.9538531  74.2650080  46.9898891
  10.3041434  73.0363178  47.5892067  72.9413120  39.1281080  18.3638716
  72.8750566  38.2011461  18.5931897  72.2015271  39.2830110  17.7765429
  55.2530841  12.5936748   3.4713903  54.9197797  11.6970016   3.5048726
  55.3262094  12.7872707   2.5368297  68.0655602  11.5479137  28.2553816
  67.2397450  11.1805107  27.9403043  68.0949096  12.4279167  27.8799272
  64.1843871   3.5041429  18.2746613  64.9583606   2.9526283  18.1605256
  64.4377164   4.3512393  17.9079342  11.0165167  45.5562544  30.7722974
  11.8411112  45.2125406  30.4285860  10.3788483  45.3869486  30.0787950
  58.9042425  53.1374741   9.3242848  59.5146942  53.2761192  10.0484073
  59.3408585  53.5245466   8.5654879  25.4396152  60.3967810  49.4305897
  24.7954702  59.8302841  49.0058661  25.6666040  61.0439825  48.7628794
  23.4845543  59.7721577   7.0245427  23.5455799  60.0039482   7.9512477
  24.3937159  59.6723032   6.7422545  25.2429938  37.7594090  20.2900457
  25.7767105  37.7934408  21.0839081  24.6654248  37.0075488  20.4217887
   7.5699262   0.7616378  56.6757774   7.8893701   1.1915161  57.4691200
   7.2708110  -0.0977181  56.9728851  18.0506945  37.8285050   1.9578370
  17.7804315  37.3102593   1.1998054  18.9976251  37.9250383   1.8566702
  47.1571473  15.3589012   1.9951561  47.0871500  14.6603633   1.3444793
  46.9640736  14.9299385   2.8287873  42.5278234  57.2866249  30.3936648
  43.2801294  57.6540041  30.8576655  42.1951056  56.6055918  30.9782362
  38.2444231   4.1015340  17.6779234  38.4569434   3.4191514  17.0412016
  38.8218264   4.8301174  17.4498773  42.9643965  65.8060455  17.7614141
  43.2951164  66.7010832  17.8373158  42.1544313  65.8059263  18.2714987
   2.8949219  68.7286329  11.4247179   3.5654482  69.3954563  11.5729618
   2.0659128  69.1995239  11.5097880  33.7725488   1.8363620  20.7457304
  34.5608089   2.1547748  21.1856103  33.4960095   1.0820629  21.2661052
  50.8551148  15.7581378  54.3219948  51.4966086  15.1498271  54.6889734
  50.8148054  15.5319358  53.3927774  53.0338240  51.3712883  19.8683608
  53.1348467  51.4167500  18.9175928  53.8154316  50.9086037  20.1704168
  37.8668360   3.1517650   5.9063506  36.9698922   3.3012582   5.6073958
  38.3224861   2.8119136   5.1362109  60.9781507   9.1373397  40.2371645
  61.1416224  10.0125267  39.8856640  61.7538146   8.6324169  39.9929547
  15.3625611  11.4291526  30.3650737  15.3666905  12.3802043  30.4732943
  15.7421724  11.2850810  29.4982553  30.4465556  13.6762477  54.2492485
  30.2430606  13.8865997  55.1606083  29.7422385  13.0884124  53.9760971
  36.1173868  72.6377964  51.9116449  35.8549428  73.3001232  52.5509262
  35.3639603  72.0503807  51.8523073  32.5648306  10.1553775  50.7282162
  33.1908492   9.7190620  50.1503277  32.8700212   9.9486877  51.6115999
  67.3104886  74.0122557  32.8615451  67.9458264  74.5757055  32.4198437
  66.5300468  74.0520525  32.3087716  23.3576322  46.2449980   4.8133025
  22.7240276  46.8811703   5.1450628  23.8055682  46.7019844   4.1014397
  66.2960128   9.2901946  26.3378000  65.6245212   8.9227249  26.9125104
  66.0370139   9.0129520  25.4590011  66.2830380  32.7195287  41.4883566
  66.5457240  31.7992163  41.5041924  65.8167604  32.8497577  42.3141050
  23.5869312  65.4855680  12.6962769  24.4039655  65.6175470  12.2153735
  23.4592056  64.5369244  12.6956546  25.0466752  48.8850689  36.1735320
  24.4852519  49.3375206  36.8030763  25.8601022  48.7229156  36.6513109
  48.7720803  69.4618702  40.5795002  47.8497890  69.5115519  40.8307791
  48.9445237  68.5250568  40.4852867  46.2577907   5.4687358  53.5348892
  45.5450312   4.9595882  53.9208603  46.1406366   6.3506843  53.8879681
  16.1886048  42.7066565  19.9430621  16.3765681  42.1469212  20.6964540
  16.9692874  42.6385641  19.3933988  32.4531937  72.3849487  13.9145482
  31.7117167  72.0417643  13.4158778  32.1156859  72.4895525  14.8041439
  63.3314252  29.4723723  59.9541849  63.7370384  30.0746701  59.3305290
  62.5577068  29.9393867  60.2696026  53.2037115  51.0902786  26.9972038
  53.9904070  50.6280041  26.7079830  53.4466267  51.4718342  27.8407884
  30.5487919  46.8167734   8.4062165  31.0809183  47.6122665   8.4225321
  29.7655249  47.0422268   8.9081061  22.1965575  60.8435965  45.1406908
  22.2552991  61.7985630  45.1120853  23.1027770  60.5506516  45.2365255
  10.4322493  29.8197031  13.3726263  11.1954236  30.3948331  13.4275997
   9.6925771  30.4144502  13.2485664  13.0123544   8.3828784  19.1366887
  12.8781915   7.4711563  18.8778639  12.1841455   8.8153030  18.9285648
  30.0020889  21.4503029   0.4466021  29.9686960  22.3482064   0.7765877
  30.5882505  20.9947184   1.0508215  50.5628613   8.4473850  33.0355692
  49.7646598   8.5626937  33.5511398  51.1462287   9.1432144  33.3384347
  13.0175960  55.9727526  23.1240702  12.3912013  56.5195513  22.6498604
  12.8035140  56.1086988  24.0470648  47.3282325  13.3403133  57.8070480
  46.4917809  13.3733581  57.3428411  47.3588848  14.1578982  58.3038903
   4.4281688  61.4069796  52.1699333   4.2220631  61.5541935  51.2468529
   4.5806867  62.2831202  52.5239754  74.2243201  73.1508303  18.1341171
  74.1760398  73.5619736  17.2710621  73.3114961  72.9961348  18.3771265
  32.0280027  44.1741705  29.0497923  32.9849219  44.1510630  29.0515232
  31.8085885  45.0358963  29.4040728   8.7899369  42.0787239  10.8499408
   8.9550424  41.3111210  11.3974428   8.0973428  42.5550318  11.3078463
  40.4757909  19.1808845  13.6626899  41.0484008  19.7369625  14.1910207
  39.8279754  19.7831966  13.2969236   4.6517631  16.7421887  54.6688771
   5.2769395  16.8421481  53.9509666   5.1571270  16.9438623  55.4563844
  48.9890003  61.5329599  36.1360192  49.5726442  61.0342550  36.7077589
  49.1554117  61.1836815  35.2604961  63.5169212  50.9621048  18.2887685
  64.3506090  50.7843065  18.7241805  63.3087865  51.8648815  18.5293937
   8.7187552  73.2386446  16.1747968   8.0048358  73.5212183  16.7463756
   9.3331116  73.9726639  16.1781621  70.9207562  23.4305908  10.7330251
  71.1706618  24.0204956  10.0218320  70.0266866  23.6896469  10.9560955
  54.0559101  45.4131651   8.1157273  53.3258486  44.9175119   7.7448297
  53.6439419  46.1682367   8.5357100  24.2772770  46.3033342  21.1398602
  23.3409595  46.2567091  21.3331771  24.7034717  46.0306931  21.9524217
  28.5244155  49.5306635  25.5121303  28.9827728  50.2329731  25.0507188
  27.7753448  49.9627399  25.9225440  71.5620331  51.5380430  33.4968352
  72.0615015  51.9119263  32.7709055  70.6466386  51.6491127  33.2400322
  73.9973859  25.7229377  31.6121960  74.7407989  25.2766849  32.0176840
  73.3100299  25.6964446  32.2778296  30.5144000  42.7279472  32.6006103
  30.2929378  43.6583996  32.5626302  31.4667511  42.7044153  32.5073075
   7.9635477  59.0919256  17.6406753   8.7370247  59.4218874  18.0979395
   7.3949564  58.7642860  18.3375168  11.7944562  61.2277937   5.4531962
  11.1230874  60.6201410   5.1429540  11.5551686  61.4050007   6.3629055
  71.7716062  43.0491756  50.4628885  72.5537562  43.5864471  50.3371465
  71.4135301  42.9376338  49.5822227  37.5947762  26.9482493  13.9237618
  36.9439912  27.4282122  14.4359577  37.4949646  26.0379457  14.2023587
  25.1934457  41.6808081  18.9330566  25.8227849  41.7035532  18.2121909
  24.3699884  41.9718981  18.5413706  62.8549524  61.4568165  10.0413525
  63.5347851  60.8188942   9.8242867  63.3235081  62.2873810  10.1241219
  48.4055332  15.1054622  25.9988642  47.7131299  14.4938995  26.2494636
  48.6527471  14.8377468  25.1137376  35.7923412  10.7142818  18.7007141
  35.5323887  11.4906085  19.1966712  35.0726485  10.5705583  18.0862057
  22.5544889  25.1922491  16.2533057  22.7158673  26.1311415  16.3464606
  23.4164675  24.7894934  16.3582575  56.3865308  13.9679576  13.9554417
  55.7743196  14.4183971  13.3736050  56.7598537  14.6643115  14.4957590
  41.8653432   2.6587440  24.5523047  41.2336055   2.0189716  24.2239308
  41.4567379   3.0158473  25.3408170  46.3062143  55.7392216  22.4177051
  46.3650417  56.4862728  23.0132627  45.9891272  56.1128187  21.5954447
  23.1794119  58.6069155  11.9901574  24.1022038  58.3708620  11.8954647
  22.7975035  58.4300327  11.1304533  46.3840818  63.9797068  29.0792966
  47.0749617  64.2639351  29.6777368  45.8358431  64.7553396  28.9607382
  10.0412643  35.5435061  16.9407427  10.9738386  35.4623103  16.7408764
   9.6473306  34.7535205  16.5706456  52.0730309  17.1073486  49.7043705
  52.8088454  17.5974990  49.3375444  51.3385180  17.7204372  49.6752024
   4.8266502  25.1866220  59.6918136   4.3342634  24.3872760  59.5051772
   5.0110265  25.1408122  60.6299705  25.8675385  64.8133564   5.8679515
  24.9753904  64.9723005   6.1762381  25.7554078  64.4208622   5.0021523
  78.2562946  56.7654657  41.6179419  79.0355181  57.2764444  41.8369055
  78.5419568  55.8540773  41.6811705  34.9935857  12.6923706  31.1484957
  34.4348476  12.5735046  30.3804374  35.8178697  13.0273200  30.7955170
  53.9126110  59.5028782  18.9409029  53.1524229  59.8117733  19.4337881
  53.5417986  59.1047907  18.1533384  69.7888736   1.8101789  34.4039869
  69.2746524   1.2608816  34.9956656  69.5283011   2.7052881  34.6210432
  16.3947415   6.7078735   8.3839899  16.5635133   7.5085021   8.8807231
  16.3806224   6.0149051   9.0441644  19.4799904  46.3039711   3.6533081
  19.1194634  47.1619252   3.4293186  20.0806479  46.1018780   2.9359543
  64.7503710  64.6405172   7.5048536  64.6825647  63.7039804   7.3190200
  63.8452530  64.9262571   7.6287633  64.5599798   4.5030309   4.8309097
  64.2955378   3.6621858   5.2041191  64.2459468   5.1533128   5.4591978
  17.1017847   3.6314918  14.5482254  17.5331781   3.9826681  15.3272033
  16.4937959   4.3204357  14.2800260  12.9519200  27.5419952  52.3275852
  12.5687003  28.3828880  52.0780563  12.2302842  26.9177963  52.2511101
  51.9706535  73.5903454  50.1736116  51.5790749  73.6390924  51.0456896
  51.4054203  72.9874706  49.6906185  59.9930068  33.4796784  53.3546162
  60.6080409  32.9916404  53.9021397  59.7101661  34.2101596  53.9047313
  29.3440104  73.0308247  35.6366301  28.9330912  73.4170723  36.4100575
  29.0402389  73.5725498  34.9082804  55.4415798  50.9329367  24.7416997
  55.0436020  51.3302088  23.9670873  55.6225395  51.6712809  25.3233647
  72.8226558  69.1994429  20.3129649  73.0736605  68.3436584  19.9653101
  73.4305505  69.3517065  21.0365057  40.6863785  60.6750679  37.6602840
  40.4516268  59.7886276  37.3857999  41.2889719  60.5472565  38.3929348
  13.5480690  48.2703829  12.7685761  12.5939393  48.1994295  12.7974713
  13.8214433  48.1977844  13.6830306  74.5637540   6.7150165  34.3955564
  75.1209573   6.4442493  35.1252413  75.1048593   6.5791561  33.6177516
  30.8885336  60.2732229  19.8224640  31.6787004  59.8858118  20.1990056
  30.1842356  59.6779823  20.0791407  59.0234093   8.8541080  57.5797653
  58.3288387   9.3159629  57.1101999  59.8153404   9.3579914  57.3922110
   9.7521905  42.6318386   6.2954056  10.4240588  43.2700375   6.0555660
  10.1318268  42.1487978   7.0294249  41.1172676  60.5429506  22.1502447
  41.9079494  60.9974480  21.8595695  41.3159513  60.2646732  23.0442882
  28.4570430   4.1494419  23.1885934  28.4753520   4.1285945  22.2317958
  29.1583441   3.5547544  23.4545851  66.2141732  54.1439104  13.6114192
  65.9678618  53.7903404  12.7566957  67.1713129  54.1487169  13.6018324
  30.2390599  65.8383846  25.6052089  29.4422245  65.7200766  26.1222076
  30.7893109  65.0907898  25.8387709  29.3088627  74.4213200  15.6505120
  28.9103413  74.2481709  16.5034080  28.6753774  74.9789906  15.1989245
  47.9072428  54.3192577  24.2136168  47.2328806  54.7542095  23.6918116
  48.5834932  54.0802097  23.5797596   1.8947642  54.5194435  22.9970932
   2.4935853  55.2589703  23.1007576   1.2147838  54.6679258  23.6542177
  42.9518509  56.5048695  21.5114498  42.3978758  55.7252550  21.5507555
  43.6213970  56.2904263  20.8618665  28.2600069  62.7595472  28.7872386
  28.9301586  62.2716999  29.2659163  28.2883763  62.3989105  27.9010296
  75.8339381  44.5920871  62.3227285  76.3025999  44.4459937  63.1444618
  75.8885980  45.5370925  62.1805623  32.2915339  72.2796965  23.6166978
  31.4548731  71.8162537  23.6547685  32.5914907  72.3075056  24.5252585
  70.9117345  11.8481113  45.2119207  71.3192491  11.7647602  44.3498230
  69.9846391  11.9961025  45.0253057  35.4755211  73.0262899  15.8991885
  34.7868156  72.4103165  16.1491704  35.1101351  73.8881302  16.0990810
  36.0981035  72.8637648  45.9035015  35.6989002  73.4551144  46.5416050
  36.9481015  72.6405382  46.2828493  35.0589967  27.2504163  26.3397408
  35.9877872  27.2484398  26.1082816  35.0394583  27.5479746  27.2493052
  31.4029217  60.2896261  25.0126386  30.7092619  59.6771765  24.7677588
  32.1965623  59.7550821  25.0376654  53.4408331  69.6956110  34.0312815
  53.2153320  70.4394722  34.5898914  53.1038666  68.9326096  34.5008755
  68.8612378  38.3923171  63.7859880  67.9629671  38.6149571  64.0304716
  69.3937349  39.0884517  64.1707978  19.0243828  51.0817242  29.7419000
  18.2504714  51.1017609  30.3048301  19.2382133  50.1521683  29.6616936
  57.1979982   5.6487630  63.7935645  56.7969641   5.1621602  63.0734097
  56.8458506   5.2399896  64.5842166  40.1793146  44.7437859   0.2395406
  40.0410986  44.2521620   1.0491268  39.8679185  44.1594172  -0.4516705
   7.0451617   4.5012237  34.0970016   7.8169847   4.0174915  33.8028502
   6.3245368   4.1386844  33.5817409  27.3356172   9.8958085  49.5409692
  26.5552445   9.4972346  49.9261868  27.4874612  10.6814406  50.0662863
  46.5468315   0.9533597  38.8981318  45.8411125   1.5295507  39.1917324
  46.1539797   0.4304172  38.1992531  18.7714052  61.5353918  32.2354388
  18.2449102  61.8330956  32.9773331  18.6172426  62.1900272  31.5543222
  24.6883369  16.9460060  32.0936537  24.6829152  16.9528343  33.0508137
  25.4301715  16.3870861  31.8623209  10.2112222   6.4941932   0.8432902
   9.6817899   5.8327915   0.3977740  10.2808309   6.1782695   1.7441684
  20.6379863  30.1463388  57.5540346  21.1106273  30.7532809  58.1236565
  20.4324313  30.6610892  56.7736411   1.3016125  21.1368154  48.0922461
   0.4938146  20.6271003  48.0299235   1.7790218  20.7408593  48.8213086
  64.3746380  26.5041877  26.5412521  64.7211675  25.6149913  26.4672709
  64.0906028  26.7251255  25.6542659  40.1761818  46.3755989  13.2773054
  39.7110486  45.9972668  14.0234613  40.3656054  47.2750998  13.5442150
  35.5272388  59.8076534   6.8250978  36.0807705  59.1435766   6.4142019
  35.7075667  60.6081533   6.3322359  56.0530385  22.3086904  54.2857588
  56.0818365  21.3543199  54.2180360  56.2480268  22.4895452  55.2052701
   0.8157277  23.1549503  60.6734467   0.6604600  24.0035774  61.0881233
   0.2422023  22.5499870  61.1438847  35.1816297  73.9895773  40.5017567
  35.4512477  74.2706299  39.6273732  34.4282246  74.5423317  40.7093096
  58.4131936   9.2886592   3.1012633  58.8806108   9.8680259   2.4995227
  58.5111002   9.7039176   3.9581233  70.6108737  29.5304225  61.4809892
  70.5134570  28.9169763  60.7526881  69.8454416  30.1016114  61.4170489
  41.1335877  14.5130683   9.3884158  41.7497484  13.7810852   9.4163102
  41.6835741  15.2923156   9.4691920   6.9165379  63.9873791  16.2936664
   7.6437891  64.5731926  16.5038109   6.2978047  64.5367670  15.8124459
  27.4995327  61.9428205  44.8552418  28.2697487  61.4027405  45.0321865
  26.9135857  61.3697100  44.3608332  60.1530675  36.6960288  13.9463103
  60.8256105  36.3871719  14.5533788  60.6413130  36.9895984  13.1771123
  28.0757737  69.4800472  49.3794680  27.2058320  69.1087151  49.5262527
  28.3120608  69.1949701  48.4967852  60.9785986  63.4507227  13.9640498
  61.8075228  63.4623814  14.4425666  60.3350735  63.7796116  14.5916951
  13.3132231  67.0236063  43.9390707  12.9693818  67.8557348  44.2639875
  12.5662494  66.6073990  43.5089207  49.4223789  18.9042045  45.7602549
  50.1593498  18.7172080  45.1787567  49.8034171  18.9014007  46.6383362
  43.3815050  66.9530201  37.3801565  43.4928560  67.3289919  38.2533598
  42.8964043  66.1413717  37.5289297  40.4761887  72.5130177  49.7919607
  39.9575973  71.7877626  49.4436836  40.0080061  72.7848196  50.5813694
   5.0016495  43.9507697  53.2228124   5.7668539  43.5699485  53.6537111
   4.8756810  43.4141753  52.4402333  22.4171662  61.1311483  38.4876776
  22.0861459  60.2331972  38.4692216  23.3179379  61.0479689  38.8006067
  12.1278358   5.8466674  18.5580063  11.7965198   5.1729156  19.1517460
  11.3422752   6.2262012  18.1642020  34.1522026  56.9617176  18.2419133
  34.4735241  56.9143152  17.3415041  34.0205169  57.8964853  18.4003258
  52.8057337  55.3975964  17.5117993  52.6066875  55.9029865  18.2999599
  52.6989174  56.0215759  16.7938340   6.2863243  69.6124411  44.9820185
   7.0950848  70.1173210  45.0670767   5.6990492  70.1826906  44.4858742
  68.2033253   6.2280486  62.5739296  68.1833625   5.9021876  63.4737341
  67.7219725   5.5713628  62.0706448  38.2782260  12.5393344  16.6982949
  37.5826279  12.8994132  16.1480939  38.9144496  13.2502700  16.7758942
  16.0484195  12.8384925  33.7901855  15.2899814  12.9235889  33.2124662
  16.4559245  12.0122673  33.5303450  26.1155176  60.2914047  15.5423629
  25.4085922  60.7191753  15.0591421  25.6743169  59.6339226  16.0802197
  36.3574719  65.1207209  25.0590038  37.1676779  65.1361990  24.5495367
  36.0092068  64.2387486  24.9283648  63.6166719  24.0996696  45.5664682
  63.0722288  24.8826362  45.4841805  63.5425858  23.8522006  46.4881563
  50.8033709  28.8165904   2.2533338  51.0821156  29.2393733   1.4410599
  50.8387617  29.5122959   2.9098278   8.9244360  72.3760462   7.2947460
   9.8200911  72.1800470   7.0197588   8.5370809  71.5199137   7.4770254
  58.9354211  39.2187951  60.9780473  58.6288720  40.1246141  60.9362811
  59.5167673  39.1276239  60.2230925  34.0699673  51.9548988  17.5510919
  34.6113992  52.4774933  16.9595075  33.7941647  51.2051058  17.0238543
  10.3223705  57.1982288   3.7338397  10.7061970  57.0417070   2.8710479
   9.6133566  56.5585947   3.8001800  39.7645044  60.8551168  34.3441153
  40.5107880  60.2867556  34.1537118  40.1579380  61.6893482  34.6000409
   0.5267942  55.3241491   3.3936912   0.0292808  54.7432995   2.8180826
   0.2350514  55.0944519   4.2759359  11.9139862  32.2620726  20.1388097
  11.9867754  32.3750877  19.1910958  12.2708499  33.0714202  20.5046439
  74.7809864  59.3596172   7.3521149  75.1122151  59.2935944   8.2477486
  75.1377494  60.1854467   7.0250744  64.2453384  38.4212993  64.2534382
  64.6166491  37.8563903  64.9311083  64.9047971  39.1024516  64.1216124
  51.4128427   0.9389736  12.0685565  52.0588974   0.3162767  12.4018598
  50.6219033   0.7584430  12.5765491  44.1713909   4.8676778   5.5682820
  43.6215667   5.4770996   5.0758094  44.9539367   4.7605468   5.0275636
  37.1821427  64.2820358  37.7693295  36.7076063  64.4583511  36.9569516
  37.7040029  63.5028505  37.5775909  15.4059005  60.3002977  36.6622853
  15.5771315  59.9181128  35.8015609  16.1903274  60.1008081  37.1732736
  15.8045868  38.4101656   5.0980150  16.0922150  37.5081423   4.9571001
  16.6004662  38.9331606   5.0016749   7.9841872  50.5230258  63.9359047
   7.0484539  50.4398654  64.1195326   8.1637283  49.8378871  63.2920271
  15.1603770  12.4667598  50.7030058  14.8057056  11.7349197  51.2078333
  14.3896270  12.9033424  50.3402805  46.0766602  45.6439257  18.1835580
  45.6761885  45.1530218  18.9011002  45.8081102  45.1751041  17.3934221
  70.6731363  36.5422848   2.0165360  71.5539403  36.2195900   2.2070181
  70.3931518  36.9671086   2.8273165  66.4999608  29.2120983  23.3546948
  66.7294435  29.9435188  23.9279199  66.9003800  28.4479763  23.7694478
   7.3925245  29.4052434  11.1293781   7.2091043  29.5451927  10.2003992
   6.8069053  28.6923265  11.3843918  57.7462605  64.6665430  40.3322124
  58.1116227  63.9079094  40.7874250  58.2633189  64.7362185  39.5296979
   7.9256225  15.1326705  38.5241246   8.2689500  14.2557670  38.6956072
   7.6110911  15.0943328  37.6208901   2.9482770  25.7802726  32.3414683
   2.8288436  25.4588272  33.2351327   2.1442819  25.5287219  31.8869948
  75.5920124  53.8028002   2.4144045  75.1948929  53.0352783   2.8260267
  75.4162502  54.5194387   3.0241343  35.2095290  11.2149833  61.0013533
  34.7197886  11.5002463  61.7727229  35.0041266  11.8679402  60.3322587
  11.5128303  74.0649652  51.8062687  11.4030755  74.7597551  52.4554634
  11.2002265  73.2744646  52.2462893  70.9195602  15.0684951  62.0128167
  70.8571148  15.0684283  61.0576558  70.2127826  14.4899247  62.2990880
  16.9753718  60.0909519  43.7017012  16.8848932  59.3027830  43.1661320
  16.8853486  59.7800493  44.6025181  32.1501827  66.9613647   4.8596898
  31.4251065  67.1197510   4.2551979  32.9316974  67.2124529   4.3673295
  21.3799405  44.6177530  22.1902251  22.1512437  44.1216564  21.9159818
  20.8676815  43.9970064  22.7083921  24.4882059  44.4078302  34.4871664
  23.8481712  45.0869560  34.7001767  24.6929264  43.9993668  35.3282857
  32.4784803  66.4966106  24.3180275  31.7243814  66.2141466  24.8355007
  32.4044561  67.4504662  24.2877746  44.3307114  53.0612564   4.0716097
  44.0535021  52.1913290   3.7841898  44.4415569  53.5574293   3.2605886
  68.8872651  21.7050983  12.0799804  68.0947808  21.9713260  12.5461543
  68.6598901  21.7886402  11.1539400  50.1527786  52.8717613  19.5027983
  49.7484207  52.1931696  18.9622033  51.0873365  52.8101206  19.3052280
  43.2090855  34.7230363  -0.0003646  43.4569311  34.2141271   0.7715269
  43.9535761  35.3050756  -0.1526832   8.1291652  30.7963230  19.2459869
   8.1026244  31.7429496  19.1066289   8.0425668  30.6911804  20.1934457
  20.4634714  69.7791052  25.9207678  19.8787558  69.4172001  25.2549148
  21.2831402  69.2980957  25.8067346  29.4583893  64.8713779  52.6665211
  30.2066851  65.2108717  52.1755743  28.6972737  65.1057339  52.1354723
  62.1340922  11.5679218  13.9973271  61.3557366  11.0269309  14.1304493
  62.1584228  12.1445896  14.7609293  37.5751614  49.3352531  61.5399206
  36.6316593  49.3993972  61.3918641  37.9018342  48.8369678  60.7907698
  69.8243237  51.7000055  22.8788376  70.3410006  51.9288635  22.1062422
  68.9692736  51.4489794  22.5294018  50.7786322  60.3006411  22.7337193
  51.6214180  60.1188612  23.1495380  51.0060930  60.6139183  21.8583035
  35.6612968  68.9645720  43.5197783  35.2279973  69.4668961  44.2098141
  35.9925008  69.6269512  42.9133177  59.0889911   0.4888822  19.4968915
  59.5282535   1.1684085  20.0082850  59.3899707  -0.3336428  19.8830116
   5.7768226   0.2347804  17.7429211   5.9800792   1.1654855  17.8362453
   4.8483205   0.1688529  17.9660249   7.0092845  47.8292656  29.4537735
   6.0806602  47.5983381  29.4300771   7.4662662  46.9899178  29.3999457
  71.4613125  46.7490435  37.6548648  70.9106318  46.0740376  38.0515337
  72.3183022  46.6301727  38.0643392  34.0814257  57.1699095  21.9789481
  34.7912717  56.9840908  21.3642788  34.4689798  57.0275593  22.8425288
  42.5346804  42.7216196   1.3966870  42.4780846  42.5753593   0.4524221
  42.0850086  41.9700193   1.7828514  48.9412498  68.8343430  13.9188623
  49.8259640  69.1279840  13.7014091  48.9613104  67.8879547  13.7768018
  33.0459380  59.4365072  20.9066415  33.4060478  60.1816607  21.3875794
  33.4367204  58.6696434  21.3255024  64.8238337  23.7226317  58.0231738
  65.5787420  24.2137693  57.6989389  64.4428670  23.3246491  57.2404170
  71.1274457  47.3625873  58.3625508  70.9000432  47.6731990  57.4861735
  70.7136536  46.5018104  58.4264368  48.1273679  23.1662799  16.8389928
  47.2829465  23.3511116  17.2501171  48.7088636  22.9567863  17.5698853
  77.5058794  63.4373569   3.9539102  77.8263140  63.8897085   3.1735688
  77.3433399  64.1370440   4.5865613   8.3732720  10.6149982  46.7611277
   8.7205144   9.8562549  47.2301340   8.2467028  11.2784741  47.4393666
  34.9040941  14.6568157  11.8955708  34.9711148  15.5074836  12.3292720
  34.8589728  14.0249874  12.6132023  23.2808900  72.3766899  26.7061043
  22.7420640  71.7795324  27.2250485  23.4333658  73.1247759  27.2834730
  33.8808751  57.1195984  32.1417165  34.5744705  57.7092314  31.8459272
  34.3446350  56.4002705  32.5703430   3.9792419  17.4129249  58.8000679
   4.0548158  16.4593650  58.7647343   3.0848670  17.5712730  59.1021490
   9.9543615  67.5953007  21.9586515  10.2495333  68.1464767  22.6834321
   9.9420019  66.7094374  22.3210430  43.3577136   7.8995944  31.3138390
  43.8587193   8.4164287  31.9447994  43.9876322   7.2670318  30.9684563
  55.5829290  12.2625019  27.2032356  55.3731612  11.3334228  27.2982836
  56.0894016  12.4751140  27.9871464  72.0375995  17.5604869  40.4723024
  71.4656619  16.7938854  40.5102396  71.7506246  18.0350448  39.6921301
  66.2678508  17.8957702  47.6806402  66.9909123  18.5046817  47.5301504
  65.6734089  18.3690216  48.2627964  12.6986396   5.5933451  57.1873421
  12.5765383   6.1000895  56.3845122  13.1776965   6.1813998  57.7712280
  71.6916438  62.5365661  61.0718832  72.5173732  62.1831344  60.7409936
  71.3161632  63.0056117  60.3267369  36.8894076  62.8266573  20.9486938
  36.7861032  63.5206270  20.2975702  37.7814651  62.9376411  21.2775517
  46.5461111  65.9002447  22.0176268  46.2788391  65.2178097  22.6333237
  45.7611084  66.4344215  21.8965745   9.5933700  16.2267639  42.4653721
   8.9058614  15.7246067  42.9028606   9.1239715  16.7892791  41.8493605
  32.4808574  14.9209262  44.9830246  31.5538859  14.7079040  45.0906324
  32.9437327  14.1883613  45.3896189  40.3384801  60.1264403  59.8554132
  40.2382394  59.1961501  59.6535707  41.2851163  60.2673362  59.8717225
  15.7232145  29.1157320   4.0701020  15.7313065  29.8980645   4.6215737
  14.8313431  29.0752390   3.7249100  58.0870990  22.4185707  24.5835733
  57.6926831  21.8542339  23.9186001  57.4019793  22.5262786  25.2433014
  68.9987945  61.0022543   6.5275747  69.6413660  60.8778428   7.2260416
  68.1528163  60.8604466   6.9523603  69.7191486  13.5653460  18.6529922
  69.4737855  13.2034063  19.5044780  70.1626275  14.3876922  18.8610911
  71.3714931  23.3052993  13.5787761  71.3254885  23.3214593  12.6228189
  70.5459414  22.9049444  13.8515604  19.5017135  28.2581019   5.4394019
  18.7170982  28.1752110   5.9813797  19.7250342  27.3580909   5.2020437
  64.0622405  16.8240571   2.2455008  63.3323888  16.2437272   2.4617554
  64.6300498  16.2959015   1.6843630  68.3691955  73.0655912  44.0854168
  69.1439807  72.5898753  43.7860298  68.2521152  72.7855224  44.9932098
  59.5226520  64.6872823   1.2603965  59.0687805  63.8783310   1.4966807
  60.1064628  64.8589473   1.9992660   9.6843421  32.6294231  15.8237529
   8.7635833  32.3757005  15.7600355   9.9685514  32.7297711  14.9152446
  51.9175875   5.8035830   2.2048723  51.0423838   5.7253340   2.5845158
  52.3661665   5.0005082   2.4695980  69.9163949  71.7591380  21.7864156
  70.4729652  71.1207549  22.2324300  69.4853711  71.2585180  21.0937166
  23.3765221   6.4275426   5.0617081  23.8033009   6.9390672   4.3743688
  24.0967655   6.1113286   5.6071347  18.0392230  10.9213781  21.6768432
  17.5444591  10.5772853  20.9331751  17.6953793  10.4466248  22.4335551
  50.8737489  65.0409981  61.0004136  51.5316769  65.1401850  60.3122807
  50.0407620  65.2153942  60.5622924  31.2988543  50.5404352   3.9401236
  31.9440794  50.0532840   3.4276772  30.5191398  49.9852489   3.9335486
  48.0929115  65.7000445  30.4483867  47.8074914  65.5536066  31.3502312
  47.8208116  66.5968625  30.2536798  52.7315521  27.6918626  17.7737319
  53.3502722  27.1210766  17.3180771  52.5439787  27.2354388  18.5939288
   4.3290493  22.2552967   4.3349385   4.2907497  21.6613555   5.0846034
   4.6342379  23.0849552   4.7020328  65.3488342  32.6609802  61.0906458
  65.8466486  33.4769917  61.0402441  65.5893496  32.2856188  61.9376945
   8.1196769  70.7191869  42.2756255   8.2356354  71.0932156  43.1490600
   8.3584972  71.4277479  41.6780150  71.1635494  66.1049514   2.0749411
  71.0459924  65.1575016   2.1438727  70.6051838  66.3628470   1.3414913
  76.7026622  17.2801197  43.9167738  76.6404701  18.1554115  43.5343790
  75.9027425  16.8374670  43.6331892   5.8397734  12.2132409   8.5401660
   6.3999915  11.5068591   8.2185894   5.1850408  11.7721295   9.0814400
   7.3977606  25.3660044  30.1371658   7.3550455  25.2790913  29.1848791
   6.5841524  25.8113107  30.3737653  43.8391495  39.4725847  13.0448794
  43.7347078  38.5239291  12.9715478  43.8726091  39.7805786  12.1392024
  76.3406236  33.6445689  31.5048718  76.7965207  34.3955827  31.1249113
  76.9289943  33.3292007  32.1908712   8.8700827  63.9399764  62.2365567
   9.5983561  63.8328811  62.8484233   9.2865725  64.1740200  61.4071045
  50.0404259  62.5214454  57.9190535  49.9799343  61.6058251  58.1914699
  50.9227487  62.6060292  57.5576896  36.8666895  68.1022236  45.9176421
  36.4180418  68.2891771  45.0930226  37.1742996  67.2006580  45.8239055
  12.8728938  21.2408948   8.6901873  13.1076467  20.4908919   9.2366463
  12.6064479  21.9170523   9.3131232  33.2702508  74.0773555  49.3446565
  33.3734574  74.4014713  50.2393806  32.4617203  73.5654899  49.3671084
  76.4215261  29.0804505   3.1701040  75.7000429  29.6102548   2.8309870
  76.8731032  28.7623096   2.3883772  27.9359889  19.0679133   3.4051302
  28.0037975  18.6404657   4.2589000  28.2984900  19.9425888   3.5457247
  67.7666251  49.5287371  18.1330848  67.9229871  49.9193573  18.9928520
  67.4485592  50.2536249  17.5949359  16.3442063  29.6246409  36.6497183
  15.9035659  29.4277596  37.4763393  16.4350092  30.5775237  36.6477275
  75.4720950  70.2595310  18.2538629  75.1405430  71.1253281  18.0157423
  76.2442064  70.4380570  18.7907100   2.7075022  39.2354298  31.3828754
   2.8216615  39.6180844  30.5129480   3.2732123  38.4632897  31.3810134
  53.5546143  66.9440012  10.6270134  52.6267257  67.1740954  10.5789387
  53.5747857  65.9983216  10.4803312  31.2891316  31.5361929  13.5449374
  31.8198204  31.6837597  12.7621067  30.6827760  32.2765374  13.5663033
  17.4381387  29.4321799  16.4238465  16.7552173  29.4259501  17.0945263
  17.2607875  28.6548376  15.8942056  29.0959311  10.1532912  22.1777773
  28.3846378  10.7922459  22.1326995  29.1615820   9.8048431  21.2886739
  60.6211916  47.9486656  38.2566071  60.1623670  48.3867645  38.9733934
  60.4417149  47.0180511  38.3906674  71.3277695  44.3723297  26.9126630
  70.9371833  43.6359262  26.4421463  72.2547392  44.3433523  26.6757655
  32.9772234  26.6315603  11.1702251  32.2029448  26.3357735  10.6914413
  33.5553455  26.9864392  10.4948986  -0.0757078  62.8648922  41.4631808
   0.3052541  63.6852237  41.7764795   0.1819678  62.2157618  42.1177519
  40.9643348   3.0652854  51.2438953  41.6566189   3.2877752  50.6214226
  41.0911032   2.1329972  51.4199603  62.1850685  11.7206550  10.2016127
  62.0344583  11.1109018   9.4792908  62.0777003  12.5873506   9.8097664
   0.4655357  65.8166646  16.9574809  -0.3816179  66.2141220  17.1589506
   0.8527180  66.3972168  16.3022864   9.5283175  13.4063911  26.5776730
  10.0415707  13.6245954  25.7997322   9.0608519  12.6058066  26.3394022
   0.7569722  27.2418823   1.4971888   1.1769489  26.7701461   0.7779419
  -0.1229950  27.4363365   1.1745751  52.6378658  14.1718648  60.5205241
  52.6559192  14.6471475  61.3511935  51.7070568  14.0818713  60.3162512
  46.8415741  12.8511238  26.0563922  47.0068983  12.3227715  25.2755308
  46.9707636  12.2460496  26.7867541  21.6339779  12.4349058  32.9903722
  21.7205191  12.8147233  32.1160269  21.4629412  13.1840754  33.5610938
  57.6689294  11.9187854  55.2936381  56.8630552  12.4313567  55.2298671
  57.4424851  11.1868833  55.8674658  62.5054840  28.0543280  39.2776656
  62.6474563  27.1093488  39.2220855  61.5600435  28.1480360  39.3942595
  13.7889040  32.1569300  16.0048187  14.2481267  32.2047901  16.8433034
  13.7126529  33.0679488  15.7211590  19.4461703  58.2147884   8.9031535
  19.8443723  57.8625202   9.6991259  19.2722368  57.4450159   8.3614647
  63.7173605  13.2921600  12.6323152  63.6892509  14.0368795  13.2330096
  63.1132889  12.6545691  13.0128479  33.7761879  22.5324535   5.4646933
  34.3819046  23.1167960   5.0087494  34.3336201  21.8414116   5.8224159
  10.3367603  19.6341765  31.3973618  11.1187267  19.0954781  31.5180469
   9.6279317  19.1163266  31.7789698   8.8812160  39.6670532   0.3197845
   8.1634563  40.2130365  -0.0010774   8.4553349  39.0127850   0.8736718
  62.8925935  65.6231403  35.2036428  63.5414699  65.1577282  34.6758342
  63.0622832  66.5490627  35.0301576  56.3804003  74.4781136   4.0544873
  56.3764533  75.1367981   4.7490025  56.5207639  73.6489131   4.5116049
  26.8679639  67.7016684  54.4005299  26.2180738  68.1261560  53.8404536
  27.6888919  68.1498644  54.1969884  64.9061171  19.3590057  49.5016193
  64.4266168  18.6372387  49.9082661  64.2732374  19.7623467  48.9074707
  61.9582891   4.2116235  59.5095474  62.3716992   5.0538085  59.6994135
  61.0257953   4.3622087  59.6645054  10.9639549  21.4616036   4.2866954
  10.4688823  22.1656513   4.7055650  11.3532424  21.8698049   3.5133538
  15.0803685  14.8448312  37.6600623  14.9032974  15.4025567  38.4175706
  15.1058614  13.9570439  38.0170155  21.3904357  24.0316629  35.2399135
  21.4451551  24.9809074  35.3502274  20.4515243  23.8461494  35.2237248
   4.0366611  34.0148687  12.4729204   4.1237202  33.7819839  13.3972681
   3.1209537  34.2766500  12.3770964  47.9721632  64.4290005  33.0007625
  47.0399314  64.3885218  33.2141566  48.4137675  64.3962036  33.8493729
   4.1712216   5.3456450  56.4466000   4.7383416   4.5840514  56.3258505
   4.3848827   5.6668818  57.3226070  47.0455173  10.7993317   4.3681297
  46.6942099  11.5360212   4.8682338  46.6567568  10.0256824   4.7762519
   5.8981812  22.1781993   2.1100739   6.7498976  22.4125123   2.4787313
   5.2625084  22.5288868   2.7339092  37.6693201   8.5298884  26.2389374
  37.8869557   9.4570100  26.1424398  38.4717059   8.0687976  25.9943819
  54.6807331  72.1149317  14.8242784  54.1569421  72.6905523  15.3815353
  54.4797754  72.3975088  13.9320910  23.4203458  26.1633968   8.8356209
  22.8959322  25.9256816   9.6002871  24.1513228  25.5454826   8.8450164
   3.1379074  41.5103912  21.3280654   4.0927610  41.5504980  21.2744236
   2.9581508  40.6914616  21.7898798  28.5027528  28.4160018   6.0862058
  29.2873955  28.3503461   6.6305017  28.7653852  28.0488920   5.2421159
  29.8836136  48.4759665  16.4871395  29.3374157  49.2188501  16.7440891
  29.8120713  47.8619719  17.2179794   2.4503204  35.6018400  16.3244772
   2.6210046  36.2436032  15.6351030   3.0701452  34.8933625  16.1509585
  26.7394567  18.9496613  51.3040018  26.7071295  18.7806416  52.2456074
  26.1582279  18.2917559  50.9224701  76.3006854  69.5861881  24.5259571
  77.1719289  69.7794946  24.8720789  75.7071686  70.1077397  25.0662827
  72.5759128  11.7452025  22.2460079  73.0122659  12.0225549  23.0515528
  73.2914583  11.5231323  21.6502619  16.1115789   8.2921308  16.2410033
  16.0462952   8.6875868  15.3717589  16.7792451   8.8103336  16.6903579
  20.5597830  14.3197906  20.8434629  20.2239275  13.4541237  21.0759592
  21.5100431  14.2375720  20.9239531  47.6372953  68.4984633  61.4954120
  48.4919687  68.3594271  61.0874507  47.3960682  67.6404306  61.8444422
  28.8427472  41.8370914   5.9999275  28.0397224  42.0631886   5.5306047
  29.2895174  41.2159634   5.4247540   5.4146063  28.1725836  27.7362323
   5.2362823  28.6072445  28.5702014   6.2246871  27.6858616  27.8882241
  37.4214816   6.0480283  40.9881866  37.3177111   5.1005719  40.8999408
  37.9389095   6.1590407  41.7857945   6.9837904  25.5468965  27.1607184
   7.7759171  25.9093976  26.7640305   6.3911164  25.4023671  26.4231014
  17.7690353  43.3700201  57.9640144  17.4356689  43.5907635  57.0943183
  17.9793485  44.2150172  58.3614820  79.3346436  20.0481343  24.6848702
  78.5499929  19.7833896  24.2048025  79.1552395  20.9472752  24.9598050
   8.9028633  24.0091157   9.8698938   9.4063222  23.3022070  10.2736783
   9.2136556  24.8031735  10.3047645   4.4385603  47.9384995  46.7025137
   5.2133447  48.4103680  47.0079327   4.5937389  47.0301771  46.9615602
  16.9922841  30.6949878  20.1517892  16.5013587  31.3905168  20.5893540
  17.9106975  30.9211755  20.2987170  23.4179187  26.7792511   6.3878113
  24.3148780  27.0942974   6.2762731  23.3598995  26.5446353   7.3139971
  78.4081429  19.0089607  48.1841469  78.8983189  18.3908427  47.6420307
  77.9363804  18.4579754  48.8087130  10.3646370   3.9447711  60.9536347
  10.5806824   3.3176921  61.6438014   9.8300596   4.6075032  61.3909462
  66.0556928  39.7464967  14.7658658  65.7234053  39.7857451  15.6626809
  66.7906371  40.3596735  14.7557032  47.8355503  21.6515446   8.8857031
  47.8775740  20.7422805   9.1818559  47.1456528  21.6556835   8.2221866
  39.3149253  49.3405673  63.6085493  38.6422952  48.9769932  63.0326894
  39.4429203  50.2349660  63.2924782  67.2119681  38.8213992  33.5825396
  67.5826625  38.1749630  32.9817581  67.3811034  38.4631968  34.4539261
  29.0103882  61.7178747  52.6119173  28.0981924  61.7013642  52.3223353
  29.1333579  62.5986168  52.9660392  70.9716542   2.1296598  28.4128356
  70.3256185   1.9970943  29.1065931  70.5465253   2.7310277  27.8013992
  67.7385119  31.4383578   1.0849345  67.4914101  31.1441088   0.2082417
  68.1199077  32.3055291   0.9478885  20.3769376  48.7256643  62.2723902
  19.8523303  48.4669384  61.5147096  21.1973109  49.0461299  61.8975279
  18.8926288  66.5787622  52.7346659  19.4910677  65.9805414  52.2871888
  18.9210202  67.3807212  52.2128546  36.2215257  21.2225747   4.2497042
  36.4694118  21.9865251   3.7289691  36.7440820  21.2972021   5.0482023
  70.2769124  70.4253133  34.1885042  70.6694794  71.2982889  34.1824627
  70.9012389  69.8786394  33.7114334  43.6510452  25.3575667  53.0066121
  43.8612410  25.3952083  53.9396894  44.5019790  25.3736910  52.5685668
  54.4711380  73.5119183  12.3847806  54.9275780  73.3072463  11.5686893
  54.1778785  74.4164311  12.2748375  27.6515269   5.2608798  29.3449462
  27.6462650   5.4119227  30.2901399  28.5315633   5.5146001  29.0667475
  16.3763595  40.8520889  35.8051348  16.1725521  41.2417889  34.9549413
  15.6878376  40.2012682  35.9415293  61.0737709  13.8387644  35.0914669
  61.0550586  13.3802044  34.2514634  60.1866666  14.1826558  35.1964259
  19.6287215  32.7025223   9.8363048  18.7557077  32.3111248   9.8065418
  20.1811385  32.0933533   9.3464273  27.8334904  12.4092937  53.9012909
  27.6294851  11.6737986  54.4789219  27.1976018  13.0840945  54.1390324
  13.7653422  30.2732372  21.0085249  13.3111882  31.0948038  20.8214355
  13.6544847  29.7518516  20.2134776  59.8535081  62.7603075  59.0230793
  59.6753164  63.2125565  59.8476702  59.2662164  62.0045086  59.0326560
   4.3747252   5.9935099  34.6535587   5.1775813   6.1896366  35.1364565
   4.6720541   5.5192858  33.8770676  26.3644180  69.0539762  61.0701683
  26.5713068  69.0277192  62.0043737  26.6733434  68.2131883  60.7327157
  59.6449188  25.1875710  29.3062401  59.7273687  25.1670218  28.3528185
  59.7678796  24.2777181  29.5769453  18.2193184  59.6554518   4.6084374
  18.5539246  58.7587261   4.6208662  17.2874582  59.5661688   4.8081774
  62.3018853  34.3003964  37.8871036  62.3509935  34.1296244  38.8276649
  62.0277540  33.4661341  37.5061965  13.0078614  12.3639762  12.1578634
  13.2089579  11.5957212  11.6234696  13.1116521  12.0619035  13.0601990
  69.5913052  64.3280135  33.2707739  70.0255072  64.3261002  34.1238260
  69.2462790  65.2162032  33.1796288  77.9526681  54.3506956   1.4961950
  78.1853924  53.8013983   0.7476334  77.0851115  54.0429163   1.7585909
   5.5684352  73.1300783   8.7030578   5.0722790  73.4187889   7.9370904
   5.5502433  73.8805008   9.2970014  66.0465292   6.5103728  41.8998432
  66.0217873   5.6167996  41.5575790  66.9787136   6.7219007  41.9500446
  21.7458507   2.7272628  57.4405289  22.2886630   2.2343395  58.0558437
  20.8518811   2.6083611  57.7613235  45.9123945  11.8567920   7.1276754
  45.0539303  12.1318841   6.8058175  45.7238340  11.3821590   7.9372424
   8.3949983  51.7899942  29.3016148   8.8428658  51.4736509  30.0862002
   8.2508695  51.0039473  28.7747478  66.1915676   9.0608335  35.7718849
  67.0187000   8.6595643  35.5053020  66.3883702   9.4819438  36.6086435
  15.2775323  33.2896805  33.5545969  14.6507096  33.7053633  32.9625392
  14.7569203  32.6558256  34.0479755   7.9563838  47.6069832  22.5411034
   7.1034890  47.3866987  22.9156399   8.0774122  46.9747114  21.8327141
   0.5269374  18.7623227  11.2145209   1.1316140  18.3045590  10.6305265
   0.6971805  19.6907604  11.0556102  65.9981648  21.8257141  52.9102278
  66.0866014  21.1154056  53.5457325  66.8250171  21.8200064  52.4280310
  24.5010090  13.2475209  29.3355942  24.1562700  12.6082599  28.7121105
  25.0915790  13.7936819  28.8167810  58.2500239  47.7616736  55.3543347
  57.4867936  48.0479428  55.8560920  58.3925911  46.8564138  55.6307620
  50.1137790  24.1029046  57.6197821  50.9885122  23.8380216  57.3353362
  49.5185918  23.5879396  57.0749945  42.4912949  19.4579872  56.7423254
  41.9019922  20.0111124  57.2551662  43.3030196  19.4383356  57.2492272
  17.2354066   7.5976598  12.3283601  16.4619088   7.5709623  12.8915834
  17.9746985   7.5455999  12.9341400  77.5047183  29.0314649  54.7452128
  77.5663471  29.8073218  55.3024137  76.7438674  29.1963599  54.1883064
  64.1573811  11.5427959  17.2893262  63.2470417  11.7179286  17.0509088
  64.2762899  10.6097972  17.1115422  37.9093810  74.0077182  48.7542320
  38.6805435  74.0846607  49.3160308  37.4983462  73.1860706  49.0228939
  11.3137360  51.9650301  57.7488119  11.6552313  51.0880348  57.5741858
  11.8221112  52.5385841  57.1753824  70.7347057  16.0360289  18.9340341
  69.9743304  16.4474154  19.3449140  71.2949023  16.7690325  18.6788523
  52.0258812  35.2394605   9.8688006  51.2293533  34.7808480   9.6015024
  52.4264864  34.6638680  10.5202913  67.8525773  27.2671056   6.6775179
  68.2954506  27.9116917   6.1256093  67.0537130  27.7079821   6.9667840
   8.0070204  57.0663261   7.1089500   8.1665844  58.0028200   6.9917017
   8.8604331  56.6579151   6.9636232  24.7455931  43.9564228  28.5117412
  25.3160691  43.4160519  29.0583587  24.4870615  43.3801746  27.7924824
  23.2508969  41.1123514   5.1667982  23.3453965  40.2111578   5.4752713
  22.5505948  41.4782524   5.7070959  32.5894237   7.0754790  48.9728832
  31.9242477   7.6102209  49.4062710  33.2067537   6.8505168  49.6689653
  13.9358850  68.3345243  58.7593037  12.9831084  68.2491848  58.7251866
  14.1698059  68.7426302  57.9256594  68.8901877   6.4177630  41.8183792
  69.6395647   6.1325095  41.2956035  68.9675009   5.9261106  42.6360190
  23.3773184  13.5581326  14.5913410  23.2491422  12.7200675  14.1469884
  23.5854030  14.1729021  13.8877845   4.1892105  21.3429165  28.1681585
   3.6907774  22.0611644  28.5579205   4.9316734  21.7705393  27.7414060
  72.5393567  30.9916234   8.3881676  71.6871420  31.0847616   7.9623902
  72.5080071  30.1283693   8.8005292  23.2618447  71.4093992  55.7902235
  22.5343617  70.8421060  55.5349231  22.8418734  72.1813008  56.1697263
  25.5321217   1.0913432  20.2300215  25.4650974   1.1284436  19.2758930
  25.9100914   0.2306020  20.4102850  24.6191883  24.1988111  38.6367583
  23.7255836  24.3974829  38.9164567  24.5206952  23.4786415  38.0139542
   9.9791356  71.7603107  13.9582789  10.7644149  72.3075733  13.9496326
   9.5234796  72.0079298  14.7628236  74.6029804   3.9368409  18.6219728
  75.2357707   4.6461907  18.7343609  73.7510333   4.3526858  18.7542260
  17.4393308  59.4571829   1.8305880  17.7058828  59.4347668   2.7496523
  17.0807314  60.3359652   1.7065756  37.3769093  34.8299742  18.8251126
  36.4246154  34.8109627  18.9200354  37.6902294  35.2342844  19.6341825
  22.0509362  44.8646259  29.4570041  22.4157429  45.3333616  30.2076268
  22.8049588  44.6911335  28.8934565  63.1577897  20.4644511  61.6135964
  62.7604175  19.8218463  61.0259044  62.6594287  21.2675927  61.4624843
  23.8059807  72.7888727  51.8466902  24.2641115  72.6301622  51.0213709
  24.2878890  72.2710466  52.4915600   0.6500479   9.6007989  59.5974809
   0.2499815   9.7610400  58.7427867   0.8565351  10.4733060  59.9326423
   1.9022392  14.1288364   2.9978299   1.9136304  13.4618318   3.6842760
   1.7291269  14.9476635   3.4623563  19.2132974  49.3540335  55.3173494
  19.8069513  48.9030313  55.9176826  18.4896195  49.6469784  55.8711624
  58.9803302   2.3722146  48.9448178  58.8735586   1.4743898  48.6305845
  59.0687555   2.2848700  49.8939145  30.0641298  73.8358974  32.6959682
  30.4806280  74.5537472  32.2190499  30.7827902  73.2400417  32.9074264
  62.1458864  22.2032213   8.6633432  61.2028360  22.3152256   8.7830776
  62.5377798  22.9148865   9.1694957  22.0859348  64.4074294  42.1896065
  21.2848922  64.2848369  42.6990521  22.3966767  63.5191795  42.0144451
  57.5745626  64.5411321  63.3616509  57.7405401  65.2574512  63.9744874
  57.2629138  63.8225528  63.9118780  25.3391075   1.2419343   4.8541787
  25.7816577   0.5411825   4.3752962  25.2899289   0.9223558   5.7551134
  12.9029199  63.6298558  48.8191402  13.1115755  63.5657164  49.7511173
  13.6499198  64.0910288  48.4376431  21.8849516  29.1957664  -0.1772875
  22.1555185  30.1116133  -0.2424535  21.2336159  29.1877675   0.5240905
  14.1928256  48.7217426  24.1288137  14.0101016  49.5924664  24.4819260
  14.1962063  48.8441467  23.1794786  21.4163351  42.9509497  26.0041785
  21.1452603  42.8192663  25.0956583  20.6023645  43.1362486  26.4725280
  49.2537121  66.0256149  13.8957083  48.7041549  65.2608110  14.0668595
  50.0303892  65.6705405  13.4633600  30.4155660  30.7228994   8.0704653
  30.8731771  30.7632852   7.2307080  30.1445770  31.6252995   8.2392013
  14.3353701  16.6839325  20.8493948  14.1462195  16.7015517  21.7875552
  13.9113033  15.8856535  20.5345154  25.9779668  14.4322717  15.3913522
  25.0610280  14.2127228  15.5564284  26.4373493  14.1535127  16.1834967
  61.2598129  65.1986548  63.7499956  60.7458373  65.9760567  63.9684156
  62.1696182  65.4728815  63.8652489  40.8038807  31.7928863  23.2049823
  40.4130077  30.9672427  23.4909153  41.5763569  31.8972492  23.7605214
  26.9989991  20.5073476  17.6986802  27.4556565  19.7784209  17.2787237
  26.2393856  20.6684446  17.1389794  39.3813109  64.0384388  10.5659878
  39.5127773  63.1312752  10.8416772  39.4068170  64.5421076  11.3795614
  42.6717901  41.9049835  14.2461932  43.0712318  42.5501633  13.6627424
  43.0551767  41.0698795  13.9781439  24.0941310  33.4840441   4.2891702
  23.4522963  34.1283560   3.9906076  24.4854116  33.1449413   3.4840977
  36.0678889  32.7424839  57.5528157  35.7254573  31.9548294  57.9753947
  35.4339739  32.9391047  56.8630886  37.2402883  33.4537220  16.4289176
  37.0972586  34.0235829  17.1845853  38.1067371  33.0742955  16.5756595
  60.7075409   7.1663047  25.7375288  60.5084328   7.0553447  26.6671920
  59.8552731   7.1263458  25.3036213   9.0079872  68.1491205  41.0562027
   9.1336863  69.0281579  41.4135850   8.9064066  67.5897524  41.8262828
  15.5353045  40.2662039  12.5143206  15.8822417  40.6964397  13.2958341
  14.5872831  40.2580643  12.6463032  68.4369040  42.2888088   9.8889697
  69.0967989  42.9631901   9.7277761  67.6860571  42.5569630   9.3592936
  76.3971805   4.3415187  55.2124721  77.2170925   4.6871636  54.8596144
  76.4457869   3.3991168  55.0520057  10.8036911  36.1244226  32.3524857
  10.4322493  35.2565289  32.5106740  10.2558160  36.4971590  31.6617393
  38.3208939  69.1137740  62.2871599  37.3801573  68.9371750  62.2948046
  38.5532554  69.2141530  63.2102871  17.5477874  12.6069450  39.8300552
  17.8971565  13.0655909  39.0659761  18.2400894  11.9946361  40.0791073
  25.4826951  19.5602965  39.1753078  25.0082684  20.3579307  39.4096804
  24.8177528  18.9912856  38.7876081  49.7232389  44.2617655   8.1462532
  49.7210693  44.0021229   7.2249430  48.8268471  44.1028500   8.4419894
   4.7934756  35.1391840  33.2461023   5.2818358  34.6925521  33.9376616
   3.8931957  35.1693964  33.5698533  59.6668092  60.8711529  24.0590739
  60.4149202  60.9253645  24.6537352  60.0004248  60.3976679  23.2970071
  46.3872528  72.5176716   9.7531295  46.3583899  72.6811934  10.6958163
  47.2961473  72.6906776   9.5077503  12.3286764  52.3527488  49.3850208
  12.9420654  52.5886199  48.6890674  12.5815765  51.4644071  49.6362639
  47.3802185  70.5928230  15.5266356  46.5046453  70.2084780  15.5700254
  47.8326321  70.0828266  14.8547292  72.2406385  53.2421541  22.5561333
  72.3025993  54.1480446  22.8590369  72.1656892  53.3124113  21.6044617
  26.1441231  27.3565936   9.8542696  25.6221199  27.2319865   9.0616679
  26.6763711  26.5635443   9.9176633  67.4031166  53.4849596  31.2485409
  66.7084483  54.0790987  31.5325546  66.9395141  52.7386284  30.8686852
  56.0165358  12.9329133  31.8886852  55.1757336  12.5840855  31.5927005
  56.3977528  12.2275889  32.4115801  73.5798142  49.1102505   7.7471739
  73.4550760  48.5420513   8.5073221  72.6955626  49.2608166   7.4130166
   5.7555109  57.1348333  22.2882223   6.0389918  56.5062809  22.9521441
   5.2904356  57.8106833  22.7813339  59.8761169  43.9745045  64.2088413
  59.3807188  44.6387720  64.6879625  59.9821249  43.2574844  64.8340416
  30.7061505  49.0781307  31.8605995  31.2855816  48.4529495  31.4251208
  30.5568194  48.7021589  32.7281117  31.8257332  52.5162983   1.7281593
  32.3245645  53.2961798   1.9714329  31.4975023  52.1730328   2.5592235
  22.6054358  71.7417526  23.9725232  22.7137136  70.7927608  23.9098620
  22.9748726  71.9691467  24.8257756  71.1394618  25.1330400   5.5573934
  70.8328567  25.3614402   4.6798643  72.0253435  24.7968650   5.4216284
  61.9397539  20.6011079  54.4579268  61.7498374  19.7963069  54.9400681
  61.2361884  21.2007545  54.7062248  27.1760722   3.3623097  57.0391232
  26.6348859   3.2467578  57.8201485  26.5566035   3.6112617  56.3531816
  41.8597126  12.3370765  46.6184950  41.6034651  13.0493949  47.2042990
  42.0505702  12.7687285  45.7857406  53.8927984  52.9824686  17.0656979
  54.8412895  53.0963182  17.0053816  53.5543156  53.8658857  17.2114146
  19.4085693  11.2571895   9.7895265  20.0753188  11.8227065  10.1792300
  19.0074122  11.7951345   9.1069430  39.8780584  12.0207620  19.5655918
  39.4181395  11.5328598  18.8824677  40.7961273  11.7705548  19.4618022
  38.0299886  71.2826416  43.4717739  37.7171942  71.0644814  44.3497241
  37.8166564  72.2096345  43.3649838  59.1839933  15.4576004   3.2642409
  58.7646818  16.3148594   3.1899586  58.5276651  14.9060237   3.6899489
   0.7416084  40.4559135   2.7400711   1.0904251  41.2248087   3.1910217
   1.1872466  39.7148514   3.1505194  56.7589092  37.0063043   2.3067261
  56.8220663  37.7451587   1.7014657  57.6378822  36.6273952   2.3146799
  59.8928118  26.8481421  18.7360442  60.1976490  26.6266632  17.8561282
  60.1102686  27.7746415  18.8387239  57.4808687  11.2211726  51.3385177
  56.7003143  11.7153142  51.0879338  58.1185365  11.8904422  51.5868938
  42.8909477  64.0871450  53.3760309  42.3962983  64.8104450  53.7612450
  43.3877142  64.4893738  52.6635242  51.1002064  20.2155113   7.5294822
  51.3201380  19.5646095   8.1959558  50.4533195  20.7810593   7.9512972
  21.2898922  45.1863527  11.8375051  21.2487197  46.0235214  11.3752377
  20.8905005  44.5597029  11.2341595  38.8018012  58.4648561   9.4704753
  38.9163923  58.7059355   8.5512465  38.3615851  59.2188883   9.8627555
  35.3362942  32.8535366   5.6135428  35.8402061  32.2514081   5.0660509
  34.7088647  32.2935438   6.0706794  41.4408704   3.9572023  59.6180067
  41.1639663   3.4363912  60.3718710  42.3753854   3.7705253  59.5281899
  33.0667400  20.6061316  25.2181172  33.0112076  21.5558863  25.3235531
  32.5164437  20.2548575  25.9181285  66.5174154  68.0244064   9.7670949
  66.6612259  67.0922709   9.6037686  65.5834059  68.1549501   9.6033394
   4.2393490  12.1145413  63.6540204   3.7099525  11.6054748  63.0401615
   4.0868517  11.6996739  64.5030555  70.0889227  38.3462763  40.5709600
  69.9654243  37.7702570  39.8165178  70.7001124  37.8734088  41.1358261
  45.4459178   5.1513026  61.8344754  44.5305854   4.9210523  61.6751531
  45.6289273   5.8523248  61.2089300  50.9471396  32.2811866   1.8093735
  51.1393503  33.2024002   1.9844523  50.0016240  32.2575808   1.6621436
  27.3526120  29.7220516   7.9100585  27.8197336  29.2269540   7.2370744
  28.0323005  30.2397108   8.3416653  24.1578603  12.2570944  11.4301872
  24.4569731  11.5534723  10.8542717  24.8326778  12.9317260  11.3545203
  76.4311705  34.9444842   9.0281725  77.0820355  34.3930030   9.4623077
  75.7891602  35.1398230   9.7107399  39.7702241  32.5554276  16.0235786
  39.6260595  31.6092706  16.0083354  39.9882960  32.7790833  15.1187825
  28.0683041  34.5722246   5.7748455  28.1015134  35.4409266   6.1754531
  27.2353864  34.2041397   6.0697865  60.6766272  34.1960526   3.4903550
  59.9861813  34.4186044   4.1148436  61.2508345  34.9618793   3.4851733
  25.4602671  20.2591777  26.2080932  24.7034669  19.9872315  25.6889319
  25.1296520  20.9674191  26.7606497   9.4166112   4.2274715  39.6714306
   9.2904401   3.7765647  40.5062962  10.1704574   4.7985364  39.8191810
  42.6392460   0.5583523  59.1005850  43.3130389  -0.1198365  59.1484624
  42.1355235   0.4529212  59.9076662  76.8229840  28.5121512  19.0889120
  77.7209762  28.8198566  18.9657879  76.3639302  28.7895298  18.2960927
  17.2699201  24.9010134  23.7944984  16.3329005  25.0936365  23.7610078
  17.6109910  25.4873824  24.4698310   5.2901804  20.5633974  49.3378878
   5.3311688  20.7674742  50.2721786   4.8084438  19.7374189  49.2940521
  65.6360391  38.7896585  22.7583861  65.6160823  39.5358944  22.1592474
  65.4996613  39.1740465  23.6243415  60.7751421   3.2496787   4.6004555
  61.3501362   2.7299167   4.0387976  61.0405926   3.0216695   5.4913986
  31.6562653  45.7853460  -0.1213322  31.0950208  46.3942575   0.3587349
  31.7900610  45.0554562   0.4833091   4.3039817  33.2323551  15.3959417
   5.1908100  33.3495593  15.7365751   4.3252364  32.3800325  14.9608243
  11.6909977  48.3055423  40.2960408  10.8062430  48.5402606  40.0161302
  12.1243831  48.0083201  39.4959963  27.3201871  46.6874266  20.9332633
  27.6298237  45.8196402  20.6738210  26.3688898  46.5960455  20.9872341
  30.7636118   3.8541847  38.4598923  31.1467314   4.7027776  38.6820197
  31.4763737   3.2284451  38.5889339  14.4827819  48.3725405   0.7109176
  14.1846597  48.2569408  -0.1912971  14.4628763  49.3193293   0.8502930
  27.9126501  42.7886438  31.3102937  27.3707914  42.5127172  32.0495415
  28.8113880  42.6344824  31.6013885  31.7320170  72.0163890  37.3287118
  31.0859897  72.4423143  36.7652667  31.5105381  72.3108670  38.2121480
  59.1024760  10.0198032  28.0293775  59.9926022   9.7146083  27.8539801
  58.6328057   9.8730232  27.2083426  40.9613562  48.4333849   4.7683582
  41.6526175  49.0942669   4.8086527  41.4292240  47.6016808   4.6934915
  23.0960321  26.7747188  31.2553096  22.9411149  27.6590872  30.9234619
  22.8473258  26.8183684  32.1786046  24.9526755  68.6229488  52.6778817
  24.8648926  68.4601828  51.7387164  25.0400948  69.5734855  52.7490831
  38.4654065  30.9365991  60.6585193  39.1759571  31.5273705  60.4088420
  38.8442119  30.0608298  60.5825895   8.8806158  35.9170985  44.1181040
   8.0366939  36.1407351  43.7256575   9.5272923  36.3373041  43.5511255
  23.4110212  34.3811607  40.1203299  24.2082477  33.8777828  39.9551988
  23.2649088  34.8707342  39.3108845  43.3078814  56.4392662   8.3637160
  43.4828949  55.5062866   8.4868085  42.4727535  56.5868950   8.8075703
  66.9521376  72.2626945  46.6187811  66.1086245  71.9431945  46.9391585
  67.0200392  73.1512782  46.9681204  31.8012190  51.2264252  12.5904083
  31.8773389  51.0109043  13.5199177  32.3854995  50.6075478  12.1524167
  66.0177719   3.1814931  54.9579460  66.5208256   3.9365457  55.2630103
  65.5699325   3.4938739  54.1717589   0.7918283  44.0022659  18.5064137
   1.1034866  44.6375656  19.1509986   0.7309902  44.4990730  17.6905024
  41.7332935  33.7750483   4.9733329  41.6636658  32.9722404   5.4899406
  40.8776903  34.1941786   5.0655597  22.7110386  19.7363102  14.5254183
  21.8456936  20.0875044  14.7353554  22.6624990  18.8138759  14.7764003
  24.7484589  40.7579136  21.5878987  25.1739812  40.8373404  20.7341695
  25.3860903  40.2947474  22.1311617  19.4764459  31.0553050   2.4213558
  18.8518929  30.3492808   2.2549418  19.7796321  30.9009409   3.3160526
   5.2369332  19.8578727   6.2300915   5.8728963  20.4828048   6.5782917
   5.5444545  19.6724463   5.3428042  21.4243388  10.1845968  16.5558493
  21.3540268   9.2305022  16.5243375  22.2824979  10.3741741  16.1765671
  61.0341760  66.5308472  58.7212456  60.4012199  65.8670661  58.4473962
  61.2873717  66.2695357  59.6065939  19.7488284  58.6831808  24.1698956
  19.9546456  58.5744715  23.2414269  20.5815649  58.5366488  24.6185708
  16.8357122  45.2275753  29.8923278  16.8855596  45.6750679  29.0476394
  16.7988241  44.2975569  29.6688652  77.5893736  11.7951034  49.2926121
  77.2668910  12.6912377  49.1968131  77.3607302  11.5529225  50.1899994
  31.8207979  51.5766430  22.5043035  31.6665626  52.4860001  22.2483516
  31.0370421  51.3297796  22.9952383  18.2214709   2.9573463  64.3103654
  18.6997434   3.1607650  63.5065556  18.2889958   2.0062945  64.3950789
  63.6478595   1.9591776   5.0526822  64.2849890   1.4359969   4.5662883
  62.9995540   1.3243917   5.3576070  72.5047143  19.2319229  -0.0316656
  72.2214194  19.5638111   0.8202898  73.0657871  19.9230698  -0.3834427
   0.7158800  45.7363796   3.8467994   1.3072832  45.9384775   3.1217965
   1.1241302  46.1451578   4.6099916  36.2762976  29.6257877  21.8535590
  35.5437589  30.2379465  21.7837071  36.5672779  29.7031569  22.7621698
  30.1121187  26.8194008  11.4688122  29.7258329  26.5648389  12.3067939
  30.0761485  27.7759242  11.4692175  74.9772525   1.0774730  51.7193234
  74.2538738   1.5663646  51.3269711  74.7885060   1.0823486  52.6577175
  66.4865013  64.3377253  56.9583291  67.4073406  64.5341608  57.1306676
  66.4729019  63.3992550  56.7703897  63.6096946  58.0943918  28.5978150
  64.0131251  58.3334827  27.7633619  62.6941279  58.3578873  28.5054088
  71.4043796  24.8192618  63.2834988  71.6447782  24.8921893  64.2071447
  70.7958949  24.0810321  63.2519441  12.2613752  44.3505716  54.4969749
  11.7795777  45.1607132  54.3303299  11.6003394  43.6612606  54.4328117
  27.2316027  11.6643775  24.7458291  28.0195212  11.3842237  25.2115846
  26.9706845  10.8985317  24.2343283  74.4213144  31.6479778  32.6368499
  73.8494746  32.1762943  32.0799708  74.3297116  30.7575274  32.2978258
   9.8560661  55.4968977  35.9765387   9.3826103  54.8767281  36.5310287
  10.6006241  54.9978447  35.6406593   0.2481334   1.3829935  11.5142226
   0.8794743   1.6465515  12.1836841   0.5629867   1.7983003  10.7113409
  64.2763042  25.0616598  14.8355865  64.4236660  24.6921396  15.7062030
  63.9272070  25.9370852  15.0029027  75.1808921  22.3765159   1.2135607
  75.9616689  22.7397370   0.7956021  75.4186056  21.4727449   1.4207420
  62.5765896  50.5048704   4.4525790  63.3116341  50.1230335   3.9728478
  62.8613329  51.3953590   4.6579748  78.0709433   3.1399844  57.5256783
  78.0157804   3.2000039  56.5719557  78.8086486   2.5515984  57.6863671
  66.7789066   3.8913749  64.2319209  66.5805209   4.2461703  65.0985203
  66.2684488   4.4320558  63.6291521  17.6015258  21.2032533   6.8243313
  16.8031037  20.6888509   6.9432664  17.5827134  21.8427539   7.5363123
  13.2516575  50.3931379   8.5522848  13.4519660  50.2073765   9.4696730
  13.8114476  49.7937107   8.0587733  30.6161475  44.7790813  18.9307976
  31.5362859  44.6786213  19.1746998  30.4150987  43.9916945  18.4249985
  60.1781702  30.0138807  11.5061045  59.6575308  30.0540400  12.3083222
  60.8728790  29.3854046  11.7026484  75.1287651   9.0309070  57.7412439
  75.7105708   8.4672425  57.2313243  75.6371379   9.8282884  57.8894699
  73.3081078  62.1416710  27.4637651  74.2246652  62.4043630  27.5482941
  72.9850459  62.6380967  26.7118168  47.3286148  57.8115150  56.3882506
  47.1417423  57.8703090  57.3251891  47.7884026  56.9780335  56.2875659
  16.1295199  50.9535027   4.9492201  16.9570422  51.3051081   5.2775699
  15.5087113  51.6761827   5.0417292  59.0311575  24.7943233  55.5705077
  58.4810108  24.1828797  56.0601098  58.6218089  24.8459838  54.7067964
   6.5523672  69.1474771  34.2797351   5.9920371  69.7784042  34.7316098
   6.1081004  68.3074141  34.3944168  16.6694880  19.7797990  17.7515364
  16.6889799  20.0458598  18.6708093  15.9498191  19.1508353  17.6994395
  67.6923406  11.5960382  53.5603214  68.6374164  11.5500091  53.4155965
  67.4959636  12.5328706  53.5641051  24.4538665  31.4498711  32.2441983
  24.6919060  30.8763862  31.5157175  23.8439751  30.9306931  32.7683353
  33.2921195  36.1811638  27.6695013  34.2127323  36.0329533  27.8856897
  33.1305599  35.6191278  26.9117117  19.7683859  14.9010551  17.2963977
  20.2189493  15.6278288  16.8662524  20.4677272  14.4013894  17.7176869
  14.5483756  57.4676895  28.8741326  15.2019477  57.4951649  29.5729303
  14.1428316  58.3345604  28.8912630   8.0397195  40.2205372  17.7472281
   7.5275272  40.0469208  18.5370064   7.5266904  39.8317885  17.0387733
  29.3977404  26.7847705   4.2080909  30.3173375  26.5574193   4.3455124
  28.9158487  25.9978700   4.4626564  38.3190338  59.9490311   1.3781225
  38.9581195  59.3591763   0.9782851  37.5192348  59.8160412   0.8693325
  66.1341953  37.0350742  13.7401807  65.8724403  37.9490447  13.8514185
  65.6605768  36.7434025  12.9611790  29.2086744  15.9649634  51.7540932
  28.7505507  15.2382147  52.1762180  28.5463905  16.3746166  51.1975002
  54.3883404   3.8740037  53.1080890  53.7436489   3.2492278  53.4401345
  55.1054546   3.8373778  53.7410486  71.0345838  34.0231776   6.3563693
  70.6503621  33.2309628   6.7318684  70.5545507  34.1581059   5.5393052
  34.9285674  68.7092733   6.4569658  35.8358264  68.6171150   6.7478621
  34.5181012  69.2601156   7.1235400  37.8299618  29.4716120  17.7784276
  37.2935247  28.6824536  17.8539014  37.4025869  30.1075125  18.3521974
  73.7099576  74.3541421  15.6635094  73.5402417  73.9862259  14.7962916
  73.5184789  75.2872682  15.5694675  61.0906962   6.8290569  22.1996570
  60.8589629   5.9156372  22.0317388  60.2543453   7.2597076  22.3765373
  72.5431919  42.0054102   1.0332461  73.2118082  42.6899099   1.0587095
  71.8577862  42.3610210   0.4675712   4.3555924  68.6064529   6.9156563
   4.5382014  68.1952620   7.7605283   3.8375357  67.9570055   6.4401925
  41.0228777  31.7008233   6.4171267  40.9229279  31.8905830   7.3499900
  40.2071619  31.2635636   6.1729145  39.6783090  29.6920156  24.5382214
  38.9729953  29.8265862  25.1711941  39.4590449  28.8658834  24.1073370
   5.1032650  32.2720981  10.3646207   4.7575119  32.4509788  11.2390852
   4.9825338  33.0927038   9.8868501  51.7191172  52.9168892  25.2552533
  51.6380024  53.6080694  25.9124565  52.4345684  52.3664331  25.5736279
  60.0267076  42.5558186   0.5071010  60.2321529  41.9654083  -0.2177702
  60.4770851  43.3712292   0.2868726   0.9375122  44.5933104  37.4504900
   1.7611974  45.0799274  37.4191761   0.3121535  45.2056503  37.8380442
   5.4619551  73.2218885  17.6182508   4.9064806  73.9638758  17.8572714
   5.2729034  73.0696487  16.6923380  74.3395658  61.8340727  46.4709890
  73.4903904  61.8170663  46.0295785  74.1337534  62.0622608  47.3775220
   9.7641198   4.1320325  13.5974944  10.0889722   3.3819677  14.0955985
  10.1898304   4.0550281  12.7436376   2.9408257  43.7181481  60.1164103
   2.3166601  44.0176239  60.7774425   2.4383871  43.7034896  59.3018115
  73.8954399  31.8576598  10.5810213  73.2470248  32.0197916   9.8958188
  73.5484330  31.1095452  11.0669661  29.8616481  45.2548695  26.1840200
  29.6775651  45.4310083  27.1066904  29.0626121  45.5160809  25.7262611
  58.2853528  14.1914937  26.6380370  58.1991597  15.1305935  26.8020380
  57.6711222  13.7843105  27.2488988  39.7927570  31.5224600  18.6931324
  39.6514988  31.9825697  17.8657413  39.4989610  30.6275439  18.5227215
  54.1157409  65.9393427  42.8075898  55.0447961  66.0319444  42.5966013
  54.0564867  66.1702749  43.7346232  18.0129206  33.2243896   4.9798587
  17.6615107  33.9947200   5.4263246  17.8246391  32.4971056   5.5730188
  29.4647360  51.8528223  11.5511179  29.0305638  51.0480452  11.8340766
  30.3685355  51.7555285  11.8509710  26.5211562  63.6401006  54.5643974
  25.7519508  64.1987535  54.4527591  26.5546002  63.1158635  53.7642181
   8.8972902  18.9105761  16.3761723   8.3955693  19.5495093  15.8699393
   8.9031094  18.1240821  15.8306205  33.8449049  51.8829393  31.4937901
  34.4070482  52.6525450  31.5828609  34.1637230  51.2749720  32.1608448
  31.1761260  51.8042326  27.2532654  31.5103984  50.9270334  27.0661426
  31.6890311  52.3816633  26.6878152  75.8381057  10.5644486  46.1235154
  75.9310746  10.3420280  47.0498622  75.8380675  11.5214847  46.1058212
   3.1219479  11.6676782  57.7119142   3.5298725  11.3553880  58.5195685
   3.5713693  11.1884711  57.0157731  17.0552158  60.1874971  14.7628784
  16.3955164  60.5679369  15.3427863  17.8499448  60.6900740  14.9419069
  13.3978462  26.2257981  14.3376052  13.4217894  26.8856597  15.0305986
  12.8202999  25.5423307  14.6775234   6.9904701  69.8832008  57.1599645
   7.2540037  70.7560321  56.8685109   7.1347611  69.3224546  56.3977462
  67.2643276  55.1355335  49.2486453  67.7792259  54.8126587  49.9881494
  67.8105112  54.9610874  48.4821689  74.9089952  60.9543392  62.1996396
  74.1377827  60.8219787  62.7509444  75.2736851  60.0770136  62.0833150
  41.7712021  18.4741259  21.1067367  41.9413042  18.0537403  20.2637815
  40.8701038  18.7899148  21.0393882  53.8623353  64.6839139  45.5208707
  54.5700618  65.1000735  46.0129750  54.1164657  63.7625429  45.4686857
  32.1693047  66.2434050  45.3807402  31.7077067  65.4284021  45.1834297
  32.5473120  66.5132424  44.5437634  32.7279043  29.9062538  15.1283622
  33.4011412  30.5351806  15.3880405  32.3204422  30.2970481  14.3553889
  25.0264740  34.5253086  16.7232656  24.5079541  34.7110724  15.9404111
  25.7932138  35.0926542  16.6428971  26.1219283   6.4804242  63.2845435
  25.2676984   6.1400865  63.0186559  25.9417792   6.9880364  64.0758150
  57.4509529  14.1515113  19.7575283  56.5407995  14.3800594  19.9462545
  57.3953132  13.5164024  19.0435410  72.3888489  64.8265168  46.8642998
  71.8016001  65.3100201  47.4453271  71.8089529  64.4275090  46.2156511
  18.1713383  57.2593888  46.8823445  18.5371058  57.2235963  45.9985101
  18.4844915  58.0912086  47.2376502  16.8879175  14.4007385  27.7518201
  17.2219348  14.2103350  26.8752289  17.6632082  14.6507239  28.2544756
  19.5485306  43.6711359  27.8914714  19.2441952  43.1164074  28.6097240
  20.2136135  44.2335463  28.2884502  40.6641960  49.6124983  13.7421572
  39.8963690  50.1692724  13.6130333  41.2267590  49.8024225  12.9913676
  22.3902845  41.7992449  17.4280071  21.5724349  41.9455481  17.9033506
  22.3343873  40.8917141  17.1288550  38.2448888  32.7985644   3.1323880
  37.3903179  32.4203157   3.3394328  38.8723922  32.1140242   3.3645031
  23.5894251  35.9756422   7.8009272  23.1652474  35.4959249   8.5123885
  24.4059443  36.2977791   8.1827074  45.9888220  62.4788523  20.1507616
  46.2049675  63.2429695  19.6163058  46.5613127  61.7862225  19.8209858
   3.0712506  23.9515495  15.9341288   2.4773233  23.9763045  16.6843748
   2.5853747  23.4770823  15.2595627  15.0052273  25.5951095  43.3179617
  15.7263505  25.0293970  43.0419445  14.9156976  26.2320948  42.6091146
  70.1575384  54.6765947   6.9223082  69.4854758  54.1256142   7.3235369
  69.6754185  55.2399635   6.3169950  17.3203059  12.1023391  57.7858007
  17.0715734  12.3511050  56.8955869  17.2171327  11.1509393  57.8062999
  60.0031713  46.0365343  17.3157787  60.8432881  45.7419920  17.6674581
  59.4526831  46.1667109  18.0879509   7.2265786  68.2694817  21.5164208
   7.0535821  69.1365099  21.8832493   8.1351042  68.0853939  21.7550087
  72.0180607  41.8944550  10.9105468  71.6167736  42.0025921  11.7728138
  71.8375492  42.7180338  10.4573727  51.8724489  28.0750012  13.5498333
  52.5644016  28.3946347  12.9708111  51.1020708  28.5896659  13.3092582
   0.0331361  38.3041024  31.6400123  -0.6682290  38.9545155  31.6042066
   0.8374922  38.8212943  31.6819286   5.3490210  38.5346818  28.3644199
   5.4172277  37.9232740  27.6310968   4.5148793  38.9831805  28.2255340
  21.2307692  47.8163338   5.4678530  21.3452816  48.4883738   4.7959256
  20.3185940  47.5405598   5.3777760  17.2005439  61.8767786  21.6313338
  17.5190473  60.9741688  21.6226029  17.9903531  62.4103260  21.5432429
  72.5977512  73.0491253  51.8434251  73.3519073  73.6221906  51.7052996
  71.9718548  73.5890767  52.3260606  52.1738461  16.3664867   7.0770174
  52.2671393  17.0481445   6.4115357  51.3305096  16.5497829   7.4910432
  71.5143052  34.3723130  32.5646162  71.2900350  34.5872712  31.6592264
  72.3929832  34.7321916  32.6856232  63.7397528  36.6852925  54.0838063
  62.8669596  36.3743041  53.8434983  63.6235356  37.6209186  54.2491114
  27.9706450   6.9058488  39.2855036  28.1281730   7.3801492  40.1018727
  28.7515231   7.0720218  38.7574470   7.4880453  31.6630815  47.2197151
   6.9356891  32.3513911  46.8490839   6.9359823  31.2416575  47.8783965
  24.7814941  44.8851633   1.9958907  24.8466134  44.1518068   2.6075935
  24.1702080  44.5831299   1.3240747  26.9585538  68.4439945  28.7858248
  26.9245625  68.2400942  29.7204375  26.1243701  68.8770676  28.6046672
   4.6549487   0.8439161  14.0957677   4.8379493   0.0444604  14.5893443
   5.5162501   1.1577608  13.8202786  77.7285022  60.3607845  32.0788193
  76.8245036  60.2710152  32.3804140  77.6569224  60.8150339  31.2393141
  15.4780432   3.7307078  28.6444688  15.6731745   4.6432760  28.8574839
  16.0916086   3.2240871  29.1765428  39.6304989  49.0317345   1.9848372
  38.8997746  49.4481993   1.5278552  39.2147326  48.4545994   2.6253709
   2.4773904  30.8863853  61.8680209   2.7786537  30.3024648  61.1719522
   1.6724249  31.2736629  61.5241093  28.1632853  26.4701509  19.5454168
  28.4548044  26.8968916  20.3511095  28.0937862  25.5438948  19.7766101
  29.1400695  66.3525581  36.3348031  28.8190341  65.4544973  36.4164209
  29.7191906  66.3315773  35.5729556  25.2186346  34.8547339  10.6727314
  25.6627393  35.1032639  11.4834321  25.6759501  35.3445816   9.9892515
  59.5263195  49.3441772  27.5205016  58.7459517  49.8928881  27.5990963
  59.6156883  49.1881180  26.5803480  33.0103636  48.7643385   2.5910431
  33.4313011  48.1815958   1.9590144  33.6551356  48.8638258   3.2914737
  53.5836935  69.4819832  15.4231966  54.0729427  70.2604246  15.1569331
  53.4800911  68.9767647  14.6168149  69.6987486  44.2311001  42.5055265
  69.1722059  44.6599960  41.8309689  70.3945684  44.8586082  42.7012300
  26.8753726  13.9870407  21.3999963  26.8342225  14.9167587  21.1760306
  27.3855440  13.9580108  22.2093868  20.8989263  38.3644319   8.2148778
  20.2786899  39.0872765   8.1198126  20.3660822  37.6302195   8.5202312
  41.8492174  74.7522593  26.8870115  42.7445650  74.8158741  26.5545416
  41.9093513  74.1416264  27.6216841  42.3776817  67.3738718  34.6204376
  42.7714014  66.9068289  35.3573823  41.5877104  66.8740559  34.4146252
  27.8283691  46.8630028  25.1692462  27.2713637  46.7617559  25.9410787
  28.1064034  47.7786255  25.1929665  74.8267854  51.8596220  29.3980742
  75.4536010  52.3069239  29.9666286  74.0031461  51.8820190  29.8852587
  33.6578832  17.9365207  27.3601675  33.2088057  18.7378169  27.6293826
  34.1194276  17.6449157  28.1464100   2.5730368  41.6767190  53.8056183
   3.1749006  41.7907737  54.5411337   2.0124026  40.9458850  54.0660036
  35.8577991  56.8899059   2.0636852  35.3828263  57.2102594   2.8305012
  36.6724348  56.5336037   2.4181539  48.0993986  71.3088369  21.2246871
  48.0221272  71.0093403  22.1305346  47.9979753  72.2592020  21.2771583
  42.6842113  73.4622881  59.8172656  42.6277562  72.9361388  60.6148941
  42.9018649  72.8326723  59.1299212  35.3611636  31.8194366  23.6119699
  35.8781886  31.1291313  24.0271735  34.6114802  31.9405365  24.1946745
  41.2110662  25.1649570  11.6692352  40.2853394  25.3891039  11.7641759
  41.2184811  24.4350457  11.0500371  41.4944744  53.3310843   5.8401018
  41.8678617  53.5340118   4.9824113  40.6912851  52.8488779   5.6436515
  78.5638582  52.4248505  19.6461201  79.3237929  52.2870827  20.2115846
  78.7957011  51.9930601  18.8239050  65.4099262  35.1980947  40.4440224
  66.0712218  35.3657840  39.7726047  65.5850792  34.3029950  40.7344425
  43.6406469  27.6264930   9.5050061  43.7250328  27.8699350   8.5831344
  44.3389320  28.1108308   9.9455154  38.0576825  28.8159013  28.8454723
  38.6970210  28.4734559  29.4701409  38.0343342  28.1639862  28.1449771
  23.1053849  25.1284049  58.9638490  23.5936948  24.3164561  58.8277549
  23.6066600  25.6008218  59.6285132  19.9046385  36.1373329  16.9046521
  19.3691313  35.8586645  16.1618149  19.7834134  35.4491591  17.5588322
  27.0392867  22.9893468  57.6359552  27.6985522  23.6378263  57.8830910
  27.0384904  22.3613236  58.3583272  52.2064024  43.4251903  64.7653915
  52.1188600  44.2572043  64.3002801  52.2474924  42.7664302  64.0721552
  76.1476306   9.4268753   4.3225875  76.1071614   8.5013820   4.0816566
  75.9088496   9.4437648   5.2493733  44.8081589  61.1612892   5.0442320
  44.0979815  61.7661667   4.8297468  44.9900675  61.3240433   5.9697866
  22.1965667  18.0297874  49.2061627  22.1668216  18.9545177  49.4515670
  21.6130610  17.5975869  49.8298276  55.5936053  38.2428334  61.4058793
  55.5041745  38.7840531  60.6214580  55.5786443  37.3432372  61.0791695
   9.6454617  23.8860629  56.1165655   9.4698640  23.1707357  55.5052531
   8.8286515  24.3844102  56.1430758   2.9849263  23.1254504  58.9876634
   2.7763506  22.4801038  58.3121938   2.4486729  22.8688024  59.7378612
  57.5316433   7.5891735  45.9044266  58.3370046   8.0961181  45.8013391
  57.8156189   6.7670776  46.3041115  39.6712995  52.3319817  24.0332413
  39.2372990  53.1774902  23.9192748  38.9550853  51.7112875  24.1674399
  35.1516867  54.7499704  29.5952344  35.3047466  53.9746714  29.0551281
  35.4024959  54.4798040  30.4786015   0.8322725  54.4210625   5.9813887
   1.7154610  54.7876120   6.0243958   0.8987141  53.5820293   6.4372891
  44.9942636  68.3907080  22.3687792  44.3571281  69.0608311  22.6162100
  45.8199739  68.6944199  22.7458620  59.1588014  12.0330499  63.0374661
  60.0878411  11.8065236  63.0799224  59.1416639  12.9876540  63.1058480
  48.4497547  58.4061050  14.0482378  48.0489159  57.6621294  14.4977522
  47.8998470  58.5446119  13.2771003   7.8841587   3.9675782  24.0372122
   6.9926616   3.6550162  24.1913831   8.1739327   3.4908984  23.2593715
  60.6985501   5.8600189   7.5120002  60.5943183   6.6472293   8.0464745
  61.0173301   5.1959754   8.1232756  35.7862926  38.8333607   6.1431837
  35.6777287  39.4582891   5.4263085  35.1267338  39.0908360   6.7873257
  25.1598859  50.6127024  30.1778507  24.7655034  51.2499809  29.5823932
  25.8758068  51.0889626  30.5984068  30.8467170  22.0942710  62.6121570
  31.4522620  21.8891881  61.8997747  31.1605330  21.5727017  63.3508837
  75.0074625  57.2609138  10.1331997  74.5397949  57.0811462  10.9487987
  74.6051168  56.6748381   9.4922167  21.1463428  72.7285576  35.3632140
  20.2710366  72.3486614  35.2873874  21.7020917  72.1573925  34.8329806
  45.8495331  62.3847294  27.0268464  44.9179649  62.1676826  27.0628524
  45.9658670  63.0536366  27.7015781  76.1729407  33.6655353  63.4595616
  76.9822240  34.0450690  63.1171443  75.7975793  34.3554662  64.0066686
  27.1200490  69.9745560  37.7501464  27.0221829  69.1532183  37.2684240
  28.0664015  70.0946283  37.8290844  20.3407025  56.8317509  10.9393823
  20.9340811  56.1082220  10.7377875  19.7112978  56.4602137  11.5574765
  54.4805571  59.8667928  58.1505186  54.5955749  60.3566429  58.9647973
  54.3905064  60.5404112  57.4764562  71.0930622   7.0432780  63.5059113
  70.8321547   6.9974397  64.4257254  70.3668797   6.6396258  63.0305657
  62.5381321  34.1572354  56.7573834  62.8178036  33.6307548  57.5062716
  62.3902959  33.5200809  56.0585243  41.1902142  58.0492878  12.3174834
  41.5162039  57.2437620  12.7188456  41.5429735  58.0333614  11.4277995
  34.8815823  34.3452811   0.1846562  35.6822371  34.7341204  -0.1674641
  34.6051002  34.9491692   0.8739363  26.9359446  63.4439325  23.5024762
  27.2853279  62.8768063  24.1898847  27.6585793  64.0340757  23.2885528
  74.6777371   3.7240459  14.4202101  73.9863996   3.5301448  13.7872124
  74.3882398   4.5275356  14.8524463  15.9320164  28.9447069  22.1264648
  15.0362360  29.2680812  22.0303535  16.4493001  29.4934607  21.5369582
  71.8427777   8.9164517  50.4848182  71.0656786   8.8337348  49.9320901
  72.3677528   9.5948051  50.0600028  23.5483646  34.2128849  32.0818901
  24.0879297  33.4377599  32.2377205  23.8078070  34.5142078  31.2111855
  73.0957457  72.0100853  44.2075455  72.4970623  71.5685031  43.6052025
  72.9529329  72.9427477  44.0463603  61.9199395   2.5380633  29.2825306
  61.0374951   2.8880380  29.4051779  62.4987274   3.2308219  29.6008408
  63.5917592  16.1012528  60.6593836  64.2946708  15.4715369  60.8194107
  63.8557351  16.5568421  59.8600173  60.2891608  34.8117946  61.9494134
  60.4354926  34.8600219  62.8941316  59.5685454  35.4206155  61.7872739
  35.9265635   9.4389965  43.1908894  36.7190782   9.5449401  42.6646519
  35.4092071   8.7882663  42.7164125  34.3899274  50.2179527  29.1265249
  34.3799853  50.1332140  30.0799155  34.9276209  50.9922552  28.9604855
  34.6083307  65.5215263  31.5642977  34.1447973  66.2334585  31.1232519
  34.4771171  64.7622490  30.9963942  24.9990320  47.6639032  18.8736200
  24.0729237  47.9044151  18.8470101  25.0549173  47.0021296  19.5629418
   7.5824257   8.7083886  53.5340595   7.1091434   9.5325540  53.4200859
   6.9029256   8.0699609  53.7506700  27.8530335  51.2310696   2.4706967
  26.9641328  51.5445948   2.3039961  28.4153748  51.8388176   1.9904386
  49.1433477  48.5513496  20.8698654  48.7566423  48.0726051  21.6030049
  49.6502113  47.8929901  20.3945923  16.0188961  56.9253969  19.5471382
  16.4936864  56.6995764  20.3470206  15.1189613  57.0749712  19.8369265
  43.0354670   0.8108808   4.6470782  43.2870797   1.2255575   5.4722840
  42.0809082   0.7535793   4.6891057  15.2315593   5.2421142  13.6971867
  14.8165107   5.8602954  14.2987061  14.5265651   4.6477272  13.4404516
   2.2031041  32.5312112  41.2125337   2.9759570  32.5278543  40.6478060
   1.4677068  32.4056266  40.6128252  44.6204158  68.8671943  63.3795025
  44.8752757  69.7885725  63.4278617  43.9133056  68.7804076  64.0187952
  18.9184535  74.5205927  13.1931424  19.4594860  73.7758446  12.9307234
  19.5303369  75.2549028  13.2443273  76.6620300  68.9186239   0.3631165
  76.7048009  68.9084625   1.3193065  77.2494311  68.2140875   0.0895866
  35.8060799   7.8078319  18.4364569  35.9286628   8.7435581  18.2764041
  36.6904656   7.4718906  18.5821998  65.1299075   5.9772827  17.4454498
  64.6286968   6.2642051  16.6821074  65.6366090   6.7475654  17.7026272
  34.3656659  70.0164890  25.5397940  34.7606373  69.1527367  25.6587887
  33.5699987  69.8485184  25.0348878  42.6614761  69.9916649  34.4588494
  42.4435806  69.0597630  34.4411802  41.9262981  70.4179287  34.0183520
  12.1856534  53.5394573  25.5871439  11.9473481  53.2580757  24.7038174
  11.4091682  53.3539724  26.1152530  15.8248055  59.5582008  32.2713208
  15.0823402  58.9716244  32.1267295  16.1170971  59.7959757  31.3914013
  33.5180879  72.0236969  18.1585789  33.3474374  72.5220299  18.9578128
  32.7047920  72.0880604  17.6579416  49.1828748  72.6687047  64.2144921
  49.3876501  73.0555555  65.0657534  50.0052687  72.2715732  63.9278150
   0.3564191   9.1127254   0.8324215  -0.0124192   8.4000827   1.3542771
   1.2608647   9.1889240   1.1364017   6.0527512   2.1419690  48.8060522
   5.5793210   2.1044682  47.9749751   6.5915152   1.3508032  48.8107014
  64.0775156  53.0124760   8.6328989  63.3370352  52.7942038   9.1988319
  63.9568377  53.9395475   8.4274578  58.1686310   2.9492189   3.5954103
  57.9278735   3.7194730   3.0806476  58.9317540   3.2282545   4.1013888
  44.7678804  65.9418869  48.1790066  44.7368765  65.9569979  49.1355848
  44.9055767  66.8556452  47.9293680  30.4803705  47.9345989   1.5539601
  31.3199139  48.0460596   2.0000261  29.8281860  48.2073212   2.1993355
  72.8086233  31.4427159  54.0308988  73.3311725  32.0209144  53.4751487
  71.9102955  31.7555450  53.9242280  48.9823103  53.0272627   9.4225007
  48.7465143  52.1295357   9.6564293  49.8078537  52.9415560   8.9456767
   1.7596263  49.1323566  15.7771266   1.0245947  49.0465927  15.1699984
   1.3549437  49.3719292  16.6108346  36.4587212  30.6560850   4.3818989
  37.2714829  30.5313730   4.8718986  36.3199592  29.8226428   3.9320633
  56.6280750  69.1223001  23.5574627  56.5841535  68.4620905  24.2491436
  56.1048178  69.8519373  23.8892221  51.3424826  31.5012336  10.7054353
  50.8724594  30.6844640  10.5375111  50.9819984  32.1199608  10.0702500
  46.4315701  21.4575315   5.1868665  45.6618357  21.2319660   5.7092237
  47.0260668  20.7165289   5.3040218  72.0383243  24.7552158  16.0943782
  71.7673329  24.4298698  15.2359223  72.9563979  25.0001766  15.9787893
  29.9935150  45.6063414  32.6607704  29.1418862  46.0395336  32.7182651
  30.4508758  46.0694027  31.9588971  35.2255583  62.6424932  30.2873182
  35.9390664  63.2087517  29.9932265  34.6242189  62.6089478  29.5433450
  25.2071667  35.6320620  25.7464242  25.6869316  35.3083372  26.5088272
  24.5409894  34.9647760  25.5815911  22.8858662  38.1740046  14.9029040
  22.8774071  38.6716175  15.7205474  22.6195741  37.2905278  15.1574385
  18.4466907  37.5162480  55.6229192  18.6569329  36.5956853  55.4660708
  17.5073691  37.5801919  55.4502380  40.5195713  49.3935156  19.2330098
  41.4082909  49.4063330  19.5883238  40.6301117  49.1247559  18.3209896
  52.3454503   1.0236694  31.6643095  52.9458074   0.3925754  32.0612073
  51.5573982   0.9777547  32.2056937  41.3464975  54.3671846  21.0130620
  41.5924025  53.4496975  21.1312962  41.1164522  54.4359970  20.0864673
  13.5966182  61.0658169   3.4399459  13.2108498  61.2441444   4.2976248
  13.3708024  61.8315649   2.9118612  14.8939296  49.1239188  63.7522000
  14.9386283  49.1619418  64.7075993  15.6590291  48.6084388  63.4969609
  22.6566386  53.6130571  18.9947319  22.6889181  52.9013729  18.3554399
  22.7060962  53.1744719  19.8440993  20.7309747  42.3806429   5.8016831
  20.5174518  42.9562807   6.5360433  20.8938169  42.9760647   5.0701159
  61.4703751  52.4473858  13.9099765  61.6061401  52.2046757  14.8258865
  61.0939741  51.6644669  13.5079920  50.0221729  53.7633419  12.9698348
  49.1461039  54.1468954  13.0101013  50.3507710  53.8219690  13.8669515
  55.0045899   2.9774429  10.7767093  55.6647877   3.1380845  11.4509225
  54.9922589   3.7813045  10.2572072  64.5152187  72.3556805  14.0964067
  64.3552971  71.4782333  14.4438934  65.4502964  72.5028372  14.2385817
  38.6595750  32.7502131   0.2744526  39.0381813  31.9066668   0.0268251
  39.0178514  32.9274845   1.1441906   1.2186527  30.8765697  14.0033269
   1.9672802  30.5859232  14.5242047   1.4973456  30.7563043  13.0955279
   7.2458416  67.7616882  25.3735185   8.1713027  67.8062296  25.1331663
   6.8335581  67.2868061  24.6518946  61.2377214  51.7959023  16.6489458
  62.0477629  52.0728016  17.0771861  60.9706259  51.0105801  17.1266079
   4.7761726  50.6999111   8.1181014   5.3233314  49.9146175   8.1054145
   4.9691507  51.1127138   8.9598769  42.3835603   3.7195779  15.2811432
  42.7595023   4.2683889  14.5928800  42.7579657   2.8522111  15.1271224
  53.6685324  64.1107512  22.7502942  53.2710552  64.9814796  22.7593017
  54.5421362  64.2424345  23.1186795  16.1689150  33.7580037   2.0077163
  15.7173622  33.0323052   1.5767932  17.0537162  33.7399530   1.6429785
  72.4392363  52.4495312  58.0268020  72.1645065  53.1979891  57.4971187
  73.0537983  51.9735238  57.4682629  62.1766329  47.4886990  20.4369068
  62.7760077  48.0874252  20.8824444  61.3084555  47.8623676  20.5881333
  53.6679983  33.7791133  11.3226783  53.9874315  32.9022408  11.1098695
  53.0966949  33.6487627  12.0795512  38.7411543  70.2610847  49.0040398
  38.5494502  69.4164893  49.4116390  38.0185779  70.8273431  49.2750836
   0.4288908  15.0616811  38.7379849  -0.4260997  15.2857707  38.3705533
   0.2874967  15.0512956  39.6846259  13.3965123  30.0113726   6.8318117
  13.1348038  29.2531443   6.3094789  14.1713274  30.3534913   6.3858885
   9.1236836  46.9093943  24.8726988   8.8926280  46.8901396  23.9440036
   8.4670419  46.3551378  25.2944255   5.9643789   3.1380151  56.4060384
   6.4271709   2.3573945  56.7104835   5.3852912   2.8185247  55.7140726
  43.8365746  35.0734329   3.7409356  44.0706635  35.8524203   4.2455274
  43.0135441  34.7755003   4.1283536  32.9035234  60.7637882   7.1174520
  33.7971377  60.4232454   7.0760477  33.0095792  61.6878080   7.3436642
  75.5993628   0.5083821  58.2661623  74.9181008   0.1130531  57.7222598
  76.4138055   0.1138352  57.9543209  40.3119850  59.6375751  18.3736324
  39.6853042  59.7297573  19.0912712  39.8156071  59.2102766  17.6755929
  50.0590229  36.9821930   5.7359755  50.5973768  37.0346189   4.9462539
  49.3393469  36.3981223   5.4969049  28.8970419  59.2284962  54.2127192
  28.9521079  60.1019761  53.8251186  27.9791891  58.9776560  54.1085243
  39.3018174  41.1055470  29.0366364  40.0537395  40.8898926  28.4849668
  39.2411661  40.3768921  29.6543837   8.5926855  55.2754831   4.1549969
   8.6822152  54.4375134   4.6088910   7.7164072  55.2473688   3.7708387
  59.1910398   0.6754921  40.5885256  58.9574057   0.8455060  41.5010727
  58.6595660  -0.0815584  40.3422678  72.7460937   5.9768440  48.3560038
  72.7216414   5.9229995  49.3113756  71.8722848   5.7020523  48.0781841
  71.0101882  37.6439214  10.4616427  70.4365841  37.1220160   9.9005508
  70.5480508  38.4752083  10.5694520  10.0476968  38.5862899  16.7336178
   9.7225308  37.7711868  17.1158540   9.4428939  39.2572808  17.0501876
  50.7124186  52.4522734   4.4482276  50.4926825  53.2447720   4.9380147
  49.8753595  52.0027924   4.3319014  37.8370579  39.8432779  60.6570781
  37.3331626  39.0563977  60.4493743  38.2845648  40.0636986  59.8401422
  70.1951102   5.8916332  22.6203656  70.8994416   6.5344097  22.5367999
  69.7050218   5.9655143  21.8014741   4.5758393  40.1709843   8.6987174
   4.0664664  39.5863628   9.2599565   5.4713041  40.1004601   9.0294760
  39.0525746  52.8684425  11.8625069  39.7640634  53.1273222  12.4481642
  38.3137059  53.4168386  12.1262538  60.4183006  71.6741133  28.7676740
  60.0723362  72.5325632  28.5235405  59.6576691  71.1933184  29.0940309
  65.6564093  59.7325325   5.4202658  66.3405561  59.7601700   6.0891575
  64.8376226  59.7142458   5.9157300  69.6145201  59.4353437  15.1683164
  69.3992710  60.3441811  14.9587619  70.1750612  59.1495275  14.4469750
  63.0207972   3.5140182  -0.0946510  62.2586564   2.9543020   0.0539848
  63.1129292   4.0136053   0.7166184  22.9953289  38.3108640  10.2288496
  22.4041939  38.2268667   9.4806951  22.4521160  38.0997825  10.9881890
  38.3457446  49.4718552   9.4118893  38.7200928  50.3475523   9.3156964
  38.7089491  49.1452122  10.2350652   7.5337869  39.8995304   9.3355691
   8.2425779  39.2910314   9.5443231   7.8756791  40.7590103   9.5818019
  49.6977282  49.8042774  18.3394277  49.3310785  49.6027517  19.2003477
  49.4496536  49.0586042  17.7929294  74.5134687   9.8693297  43.9087594
  74.9756145  10.0779555  44.7206259  73.7830257  10.4874251  43.8833392
  12.7395371  -0.1752280   4.6120963  13.0133704   0.7288696   4.7665545
  13.2945208  -0.4738139   3.8916308  27.6973983  68.9775584  63.5322307
  27.7067014  68.9917586  64.4892804  28.3380767  69.6412013  63.2766097
  20.6144643  47.6994468  10.8425188  19.8855472  47.3153068  10.3553414
  21.0774875  48.2348491  10.1981652  12.6885959  21.5288804  60.3456274
  11.7503663  21.4762900  60.5278135  12.9886027  22.2847817  60.8504483
  43.2423401  61.5735197  26.8521380  42.9165030  62.2989607  26.3194084
  42.6184130  60.8641386  26.6981077  37.3637509  50.8852053  25.1449633
  37.5351000  50.1893091  25.7794714  36.6288590  50.5597210  24.6251273
  59.9380112  68.9808655  19.4787061  59.1554737  69.3246889  19.0478373
  60.5095768  68.7131310  18.7590790  77.1423586  20.5931452   6.8469155
  77.4688299  20.5260352   5.9496176  77.1249397  19.6900252   7.1636212
   2.2788024   2.1029855  13.1133235   3.1929469   1.8199064  13.0924249
   2.3179937   3.0191661  13.3877492  16.3001418  18.8172676   9.9130642
  16.4167523  18.9093734  10.8586597  15.5042195  18.2937862   9.8197550
  15.5048287  57.2525454  59.9749947  15.0884581  57.7119446  59.2457390
  15.2760971  57.7708960  60.7465029   1.3590857  60.5970764   8.9399219
   0.9252020  61.1345100   9.6026027   2.2137400  60.3925848   9.3193728
  47.7811030  11.5237094  13.5783851  48.2108954  11.4289047  14.4283986
  47.9690937  12.4242736  13.3140540  60.9950117  10.3302719  30.6724596
  60.2769093  10.7416965  30.1915288  61.7861775  10.7238914  30.3045583
  18.4203649  14.9332000   4.3020684  17.5178361  14.8727943   4.6151626
  18.7680745  15.7190277   4.7237307  37.2232985  50.1515627   1.9622000
  36.5721679  50.0529718   2.6568520  37.3825741  51.0942507   1.9152586
  42.7150345  50.6928921   4.7880676  42.5636435  51.2370014   5.5608952
  43.6225080  50.4009724   4.8747075  33.8864819   9.6436931   2.8876033
  34.3779693  10.1204635   3.5564557  34.1809783  10.0217010   2.0589823
  10.0426841  24.7560359  44.7971010  10.9865117  24.6359302  44.6922493
   9.9116349  25.7011844  44.7212696  26.3952184  65.2014256  25.7975411
  26.9420314  65.6315851  26.4549494  25.7239389  64.7456598  26.3053751
  69.2332792  55.1616859  27.9462910  69.8414373  55.2017975  28.6843729
  69.7962046  55.0831127  27.1761131  51.8296079  20.1230194  14.4968903
  51.9943122  21.0645534  14.5480323  51.9536308  19.8091747  15.3926301
  71.1485318   6.9521667  29.5031476  71.4451531   7.6312496  28.8972640
  70.4843167   6.4674808  29.0131164  70.6389952  61.7648172  41.9195795
  71.0167265  61.8216896  41.0419035  70.8245945  60.8694696  42.2026587
  66.6774157   0.9727479   7.5860202  67.2935990   0.3277971   7.2387642
  67.1732835   1.7912485   7.6059359  13.8416835  61.1313174  60.4236824
  13.0031749  60.8222411  60.7666230  13.9916726  61.9636176  60.8720216
  56.8108082  54.4928217  39.2775154  56.9068813  53.6194992  38.8976383
  57.6187849  54.6289778  39.7723603  62.9750204  56.0138226  44.5919228
  62.6885462  55.5117655  43.8289642  63.5951471  55.4376078  45.0387383
  56.9646863  17.1791698  31.1559844  57.3577527  18.0458309  31.2590361
  57.5579027  16.5901424  31.6222262  40.5815172  68.5914183  27.7240586
  40.7721472  67.6537657  27.6975536  39.9716997  68.6912775  28.4550738
  61.0097170  60.2821541  43.4605598  60.6796741  60.8017874  42.7275610
  60.2607536  60.1975441  44.0505791  27.5870776  22.2235729  48.1481743
  28.3381724  22.7346946  48.4495926  27.9707790  21.4255001  47.7847385
  30.7495713  57.1399593  26.6333866  30.5135345  56.9377565  25.7280493
  30.6556249  56.3077927  27.0969701  11.9807994  50.5078411  36.9156957
  12.8747702  50.3356647  37.2113347  12.0602036  50.6264830  35.9692025
  63.7251568  63.0815697  14.5016229  63.6002254  62.3930693  13.8484859
  64.6537399  63.0309772  14.7283542  70.9979943  11.8948890  39.3251467
  70.7999639  10.9967281  39.5903301  70.3756837  12.4321128  39.8154092
  15.7896730  50.4112742  56.3445086  16.4212676  50.6036876  57.0375455
  15.4470607  51.2675307  56.0882187  73.9210729   6.0330917  15.4567409
  73.4450273   6.7388393  15.0190890  74.4187430   6.4718200  16.1467266
  68.2767487  61.1232519  18.1165576  68.5089350  60.5188465  17.4115646
  68.6761570  60.7432699  18.8990641   8.4977079  40.6216766  31.6058517
   8.7851834  40.5127956  32.5123453   7.6948667  40.1039745  31.5453625
  24.2436719  48.5154819   7.7085018  24.1453862  48.6368179   8.6528802
  24.7958279  47.7382708   7.6230586  64.1184954   9.5468379  30.6451297
  64.2404775  10.4742195  30.4418778  64.3881086   9.4646503  31.5598893
  47.7199697  57.8945112  18.8177586  46.9588089  57.5508595  19.2854798
  48.1409597  57.1203947  18.4439349  47.1309396  70.9788629  62.9264541
  47.6211520  70.2294013  62.5884700  47.7881547  71.6665670  63.0330470
  63.2446671  55.0474644  27.0405698  62.4291325  55.0968409  27.5392675
  63.9213610  55.3193998  27.6605463  33.6611247   1.7786027  36.1550784
  33.8605666   2.0931531  35.2733111  32.9629016   1.1362840  36.0280204
  35.5152512  64.0605974  35.4836798  35.4425359  63.5301256  34.6902418
  34.6288514  64.0742826  35.8447123  63.1592274  60.5705261   0.8959795
  62.5968790  61.0507202   0.2881908  63.1651354  61.1050367   1.6900180
  42.8488493  52.7995968   9.7696900  43.4936285  52.1577501  10.0672221
  43.1754398  53.0901146   8.9181197  55.6521082  68.1618881   1.6566189
  56.4464664  67.7589226   1.3061257  55.2362299  68.5710478   0.8977618
  68.8066749   4.2186786  19.4941306  69.3848590   4.1841127  18.7320673
  68.8912801   5.1152612  19.8184955  43.7133884  63.3215427  13.3652544
  44.6149302  63.5916424  13.5398984  43.4077740  63.9286327  12.6912546
   5.7877708  17.2740890  18.6154890   6.2822890  18.0916263  18.6730504
   6.3798785  16.6105701  18.9695799  50.4327063  10.4757835  42.8939295
  50.6775145  10.4066421  43.8167048  50.4070071  11.4172222  42.7228355
  58.8152456  59.5010757  45.2275467  58.2568979  60.1244164  45.6922245
  59.2022181  58.9643097  45.9191847  69.1030455  69.2226505  22.4675083
  68.7995148  69.8183632  23.1525135  69.6235895  68.5679054  22.9328799
  54.3249559  66.4261913  34.8538232  53.4958744  66.4761639  35.3295946
  54.8011351  65.7116413  35.2767992  30.5792212  74.0161943  26.5952897
  31.1355662  73.2816458  26.8544221  30.3992128  74.4803762  27.4128246
  51.6938897  73.8637088  53.0893553  52.4536916  73.2819007  53.0685485
  50.9778234  73.3114074  53.4031093  61.4106750  69.4293261  13.6993361
  61.1708069  68.7546635  14.3345678  61.5610552  70.2131796  14.2277253
  39.1710321   4.9328424  21.4710879  39.9231700   4.7472812  20.9088707
  38.4096173   4.7521259  20.9198880  49.9687461   8.4155227  37.6111245
  50.1785592   7.8421260  36.8739510  50.6827740   8.2767154  38.2333183
  63.3663300   4.5804883  30.4209042  63.0644659   5.4554893  30.6647873
  63.9987711   4.3472434  31.1004972  79.2790556  70.7575703  -0.0838746
  79.2530012  69.9100304   0.3602330  78.8598776  71.3619471   0.5287007
  42.3759723  21.2231494  11.3357258  42.4734569  21.1809112  12.2870111
  41.4376330  21.3510944  11.1965573  76.3749961  16.1001064  22.8055954
  76.2211923  15.2471782  22.3992801  77.0283154  16.5182544  22.2447491
  50.4602575  60.2925301  14.9230182  49.6833706  59.7448635  14.8101699
  50.1460981  61.0574579  15.4051185  40.9131404  20.2409862  50.2737594
  41.0271379  20.7464574  49.4689381  41.8046256  20.0417874  50.5597854
  61.4641476  54.2057753  21.1459947  60.5755186  54.2532969  21.4985704
  61.6778469  55.1091480  20.9125876  57.4833488  68.9909649  36.1454535
  57.6155424  69.5139170  36.9361973  57.8271294  69.5359612  35.4376197
  68.3820037  19.2837287  19.5586157  68.0931787  20.1484825  19.2670631
  68.4083489  18.7578918  18.7592173  37.3792553  43.4492445  13.9152646
  37.8669047  43.4259415  13.0919266  37.8432178  44.0932322  14.4502902
  53.5265354  23.6701633  54.1422510  54.4289116  23.3508827  54.1389084
  53.5183529  24.3719055  53.4913063  53.9381286  29.9434732  54.4851566
  54.6025535  29.7776244  55.1539362  53.3805772  29.1656325  54.5033860
  54.4994216  46.0664104  59.4716782  54.6639605  46.5957091  58.6912930
  53.5773254  45.8188747  59.4031471  47.6469394  19.5307754  63.9647358
  48.2853051  19.0502332  63.4376717  48.1777593  20.0683806  64.5524776
  67.5597095  34.9458504  32.0021319  66.8972015  35.6177020  31.8410897
  68.2997084  35.4240084  32.3762965  11.4619470   6.9313575  35.1062894
  11.8065477   7.6844169  34.6263146  10.6555486   6.7016365  34.6445680
  52.3270750  74.5282602  39.4547701  53.1752539  74.0851545  39.4768047
  52.1898651  74.8276997  40.3535128  25.6156898  24.7284175  11.8345058
  26.0278964  25.1778652  12.5722802  24.7073531  25.0300456  11.8475080
  33.7592793  18.5405266  23.3359146  33.6674786  19.2466998  23.9755440
  34.2599130  18.9301860  22.6191401   7.8549858  53.0886863  64.6177844
   7.6371070  52.1576045  64.6607909   7.0414897  53.5126613  64.3444573
  48.5445690  72.6928759  40.3164148  48.9791679  73.4078979  40.7812786
  48.6927080  71.9241381  40.8671713  76.0399703   8.5102703  14.7990346
  76.4221791   9.2448856  15.2791309  75.1710633   8.3982612  15.1846361
  19.2878028   4.7469733  55.2336663  18.7205859   5.3406404  54.7416795
  20.1737662   5.0679753  55.0655633  33.3303547  70.4333115  35.8611584
  32.5351977  70.9030247  36.1128092  33.1413507  70.0939751  34.9863100
  31.1670113  64.8338270  19.3005645  31.3974047  64.7398520  20.2248573
  30.2145028  64.7413111  19.2805457  43.5662270  59.3215752   3.2177901
  44.0640402  58.5354042   3.4421763  43.7010813  59.9104881   3.9602360
   4.6641179  71.8015597  47.4892390   4.2770334  72.6758407  47.4442280
   4.2261358  71.3096545  46.7946613  16.2259030   8.4437610  37.6372838
  16.5609908   8.7989093  36.8139863  15.3645873   8.0914165  37.4131942
  31.6944695  53.9108849  25.2055359  31.3457870  54.5404720  25.8366251
  31.2290072  54.1045666  24.3918633  12.5117683  34.7014213  14.5889795
  12.6264513  35.6014585  14.8939550  12.8315949  34.7116280  13.6868501
  35.0163269  57.6624441  38.0682731  34.0965104  57.8934193  37.9385781
  35.4394722  58.4878063  38.3048296   9.6296736  43.7773059  56.4321107
   9.7709151  42.8595279  56.6643989  10.1304647  44.2689345  57.0830691
   0.9475084  38.4315372  26.9265532   0.7655855  37.5823736  27.3291159
   0.8011910  38.2895041  25.9913254   9.2730910  62.8142357  25.0426245
   8.4352338  63.2309294  24.8411489   9.0466708  62.0922327  25.6288648
   2.6718160   8.6845801  52.6171267   1.9234153   9.2627547  52.7649248
   3.2541843   9.1874431  52.0477331  74.4848847  17.2090552  48.7966180
  75.4257369  17.0982240  48.9335418  74.3500447  16.9930289  47.8739143
  54.8221520   6.5816928  23.6056185  55.5974797   6.0815765  23.8605285
  54.1239623   6.2435008  24.1663218  19.1915059   6.8994857  29.8568368
  20.0561357   6.6370536  29.5409632  19.2959619   6.9756557  30.8052683
   1.5109178   4.2098115  59.0100366   1.6283246   4.9501918  59.6052516
   1.5733262   4.5934747  58.1353152  65.5823831   3.7875701  31.6578722
  66.4657191   3.9421083  31.3231063  65.7119540   3.2383968  32.4310827
  40.6409550  63.6491394  34.7637081  40.3232145  64.4516516  35.1775265
  41.4638519  63.4573507  35.2134728  25.6455251  44.1466353  56.4269614
  25.8802959  43.2186912  56.4216835  26.3443872  44.5733378  55.9312231
  40.3438775   9.8432495   0.5073987  39.4345669  10.0242950   0.7453290
  40.8051876   9.7935916   1.3446316  70.7415501  71.3091946  43.0106497
  70.9499416  71.4706230  42.0904589  70.2839366  70.4684687  43.0086708
   4.2195773  28.9432861  34.8227358   3.4669519  29.2565967  34.3211198
   3.8775659  28.2109500  35.3355217  13.2873976  52.3069000  29.0364861
  14.0641499  52.5622225  29.5341778  12.7315176  53.0861139  29.0436578
   5.0185037   4.7497465  32.2004294   5.6455684   4.7674943  31.4774466
   4.1798282   4.5486690  31.7851877  69.0268973  40.8812763  47.9035997
  68.1602458  40.8101322  48.3037090  68.8509158  41.0970737  46.9877958
  63.7862138  29.6117641  34.6559072  64.1077641  29.5082618  33.7602925
  62.9293517  29.1851284  34.6535563  72.5516156  14.7473384  24.4763374
  72.9654387  15.4453231  23.9686012  72.5797252  15.0600006  25.3805971
  57.5143222   4.7231342  23.3058047  56.9963888   4.4278480  22.5569510
  58.3662347   4.3027593  23.1885028   4.9115586   3.2789709  10.2889252
   4.6214271   4.1898014  10.2395105   5.7586217   3.3211566  10.7326949
   9.3630290  17.3466064  24.2458558   8.5323548  17.7841712  24.4322610
  10.0263000  17.9151584  24.6370745  45.3928395  52.7662299  62.5756300
  45.4734489  52.8581832  63.5249876  46.2278100  53.0844520  62.2324251
  13.9694329  46.5716956  61.3737813  13.8221236  46.6286777  60.4297021
  13.2763573  47.1091579  61.7572055  70.0336409  73.0920076  40.2629519
  70.1612139  73.4990501  39.4060540  70.2893114  72.1785498  40.1346540
  72.6257801  55.4650307   5.7668239  71.7017651  55.2284288   5.8471423
  72.6179266  56.4070082   5.5969816  68.9665651  63.5766792  30.6980991
  69.1411638  64.3338299  30.1391077  69.4123983  63.7784290  31.5207553
  18.9965193  67.8654811  46.3917506  18.6448757  68.6032483  45.8934748
  18.9241783  67.1187541  45.7972777  15.2606320  14.2656471  29.9538851
  15.8965325  14.8998977  30.2849150  15.4797053  14.1681911  29.0272021
  34.6415520  69.3653584  15.1617229  34.8861718  69.0962076  14.2763138
  35.4760337  69.5238400  15.6030309  66.7921162  64.0824223  37.5028825
  66.7742300  64.6306276  36.7184210  67.1108961  64.6632195  38.1937432
  30.5741453  69.5371056  18.3052373  31.1715531  68.8144970  18.4980464
  29.7225738  69.1175985  18.1824887  74.0061188  36.8737531  21.6799617
  74.8885536  37.1234155  21.4057183  73.9546680  37.1443057  22.5966883
  71.8527555  61.1737490  45.5187511  71.2995672  61.9548655  45.5271435
  71.2469769  60.4495382  45.6761694  31.2580252  53.9860678  14.5566583
  31.2319016  53.3329821  15.2559662  31.2913966  54.8260117  15.0144887
  64.2858315  53.2234001  15.6326437  64.8538351  53.1675482  14.8642123
  64.5603800  52.4929762  16.1870205  52.2007874   3.9300920  15.4188883
  51.5416364   4.6240999  15.4291558  51.6937736   3.1181957  15.4190147
  49.4268397  12.0708133  16.2876976  49.7682289  11.8541576  17.1553063
  50.0578479  12.6961662  15.9313226  48.9845276  63.8969421   4.0017432
  48.9801359  64.7975731   4.3258962  48.3099365  63.8834620   3.3227885
  15.4924460   8.0046819  61.1210332  15.7816573   7.7052997  61.9829846
  14.9772903   8.7910913  61.3010469  28.8199111  25.1504396  34.5881093
  28.1494733  25.7955049  34.3630851  28.5754176  24.8457645  35.4619682
  31.3092443  25.6034062  53.8232649  30.5416986  26.0867856  54.1289616
  31.9339486  25.6640266  54.5459664  54.5183822  17.9325364  47.7082277
  55.0854178  17.8202270  48.4711719  55.1223632  18.0820869  46.9808531
  19.3186927   8.8754131  51.0887241  19.5340848   8.2053043  51.7374182
  20.0006032   8.7915470  50.4222441  12.4216533  36.9279624  16.5553427
  11.6229797  37.4480773  16.6438806  13.0956006  37.4474575  16.9936883
   9.9668622  12.6612522  12.3362541  10.2233482  13.2014514  11.5888369
  10.6659532  12.0120098  12.4136567  23.8443156  44.3740485  61.5990478
  23.9771625  44.9720119  62.3345956  22.9227754  44.1221641  61.6585693
  26.8918324  52.3210859  14.9977112  27.5035691  52.9181337  14.5669580
  26.2120175  52.8919554  15.3557503  64.1652469  11.9627239  29.4402003
  64.9929027  12.3394538  29.7390246  63.9194230  12.4946262  28.6833048
  23.0736375   7.1019603  45.0964689  22.8456712   6.6312362  45.8981466
  24.0303111   7.1334030  45.1010036  62.3858404  73.9156961  29.2464638
  61.8813896  73.2257080  29.6773648  61.7477179  74.6087933  29.0772033
  72.5138044  58.1011343   5.8202457  71.8974352  58.7221861   5.4321527
  73.1285000  58.6478519   6.3096136  63.7696171  68.5702038   9.8573780
  63.8606119  68.5052156  10.8080232  63.3193398  69.4030094   9.7162515
  67.0403528  41.4190388  34.8932242  67.0911217  40.7383251  34.2221904
  66.1308384  41.3948536  35.1906013  12.5190091  35.9018661   5.9225857
  12.6535153  36.4683010   5.1627958  11.9143748  35.2269508   5.6141227
  26.9954896  11.5175106  29.9355435  26.1731887  12.0063259  29.9688363
  27.1136928  11.1867000  30.8259487  25.1384926  68.9711332  13.0197215
  25.8071375  68.3142328  12.8257382  24.4222856  68.4743214  13.4152699
  61.6855864   9.5813419  26.9568419  62.3691277   8.9833499  27.2591662
  61.3278107   9.1605426  26.1750793   7.4330783  10.2544071  38.5584188
   6.9765115  11.0477783  38.8383198   7.9538226   9.9967433  39.3191195
  70.1788119   9.8517848   3.4790701  70.8383874  10.2271892   4.0623835
  70.3035859   8.9057018   3.5538256  47.9577275  27.1311591  63.2417231
  48.3749839  26.2938808  63.0390074  47.9767772  27.6144574  62.4157138
  10.2732015  25.5308391  29.0043592   9.9710918  26.1938621  29.6251369
  10.9910274  25.9535552  28.5329032  40.3603367   3.7371017  42.1153355
  41.1049417   3.6994745  42.7156544  39.5958415   3.5911132  42.6725340
  17.4099708  15.0400783  32.3129988  16.8470550  15.8115817  32.3774362
  17.0863319  14.4499351  32.9935956  70.3369045  74.4917250  20.9396982
  70.8527327  74.0807867  20.2459502  69.6486092  73.8558626  21.1350417
  47.9038882  35.4854061   4.9976543  47.8667331  35.2500106   4.0705949
  47.9095149  34.6461059   5.4578412  78.5941104   5.6489994  17.5179720
  78.2302026   5.6736137  18.4029579  78.9673976   4.7713329  17.4368179
  60.6289101  40.7299376  64.5550203  59.8570871  40.7462788  63.9891100
  61.1292791  39.9707818  64.2557812  71.7764473  55.2252245  34.9990749
  71.3005877  55.9576750  35.3906226  72.3577261  55.6330156  34.3571568
  74.8004198  60.1538372  32.3361897  74.1569519  60.4921579  31.7135191
  74.3318939  60.1200628  33.1702018   3.0558801  39.9045040  28.1827879
   2.3455310  39.4406177  27.7395725   2.8689170  40.8307888  28.0302215
   9.2517972   6.1471130   7.0654809   9.5446754   7.0277358   7.2999007
   8.4141898   6.0450508   7.5173932  60.7097399   8.0375789  59.4817525
  60.5951172   7.5074075  58.6930734  60.3121591   8.8805268  59.2635763
  46.1862230   7.1605206  13.9594901  45.7401609   7.0146888  14.7937536
  46.5268898   8.0528027  14.0228045  52.2215386  53.4512719  63.4740629
  52.4303265  53.6025771  64.3958799  52.7884289  52.7243516  63.2162744
  36.6406322  26.3244081  11.5404630  36.8773222  26.5546465  12.4389064
  36.4522910  27.1633911  11.1199045  52.7100897  31.3484883   3.6624932
  53.5032272  31.2163401   3.1431699  52.0713282  31.6959167   3.0399916
  72.4950691  28.6231223  40.2208054  72.5844952  28.7423935  39.2752850
  71.5608402  28.7445327  40.3902328   3.5176143  36.7972445  14.0817642
   3.7035069  37.0365930  13.1738067   4.2012495  36.1666107  14.3079877
  11.9512117  25.9568572  39.0194058  12.4986994  25.6508303  38.2963347
  11.1209714  26.1952233  38.6069560  55.1496361  12.7092527  55.0448102
  54.6507326  12.8669522  54.2432750  54.9094181  11.8200896  55.3054196
  15.4562275  49.5325204  59.6823511  16.2956135  49.7841093  59.2971623
  15.5446045  49.7479066  60.6108070  22.4282189   2.4269198  54.9762762
  22.4957439   3.2891868  54.5661915  22.2972604   2.6134370  55.9059501
  74.5089245  25.5856752   7.5534016  74.3147802  24.7161341   7.2034937
  75.4410887  25.7123446   7.3766124  45.4105854  32.7951860   2.3942852
  44.6550941  32.3598099   2.7891383  45.5330420  33.5858321   2.9197526
   7.6948839  27.4404454  23.2746649   7.5054932  27.0162487  24.1115761
   7.8166014  26.7159462  22.6610541  76.4289661  51.8634483  61.4545420
  76.9215675  52.6797816  61.3698575  75.9129139  51.8105587  60.6501001
   3.3251850  41.7776587  63.6739181   3.1924622  41.8490401  64.6191811
   4.2298500  42.0589277  63.5371612  51.2594748  16.9274449  25.1326823
  51.8271446  16.6195035  24.4261765  51.6386223  16.5499187  25.9263778
  68.9749380  64.9397608  57.7476073  69.3586584  65.6281945  58.2907915
  68.7828251  64.2301532  58.3606154  49.5207310  44.4021606   2.8676569
  49.9706364  45.2427435   2.7825674  49.7161341  43.9421988   2.0512730
  71.8170468  33.4603524   2.4181831  71.9725958  32.6253963   2.8596404
  72.5601641  34.0076375   2.6721296  58.1594440  44.2014049  53.3907449
  58.7596198  43.6873458  53.9308894  57.2932502  43.8468383  53.5913134
  76.9179145  41.8144274  19.1178012  76.4885128  40.9786749  19.3004656
  76.2681109  42.3147106  18.6241388  72.6094448  21.2592624  62.5007069
  71.8112636  21.6900895  62.1948910  72.3210621  20.7106088  63.2301238
   0.5096380  31.4072147  47.2105611   1.4410965  31.5203568  47.0213282
   0.3140680  32.0806458  47.8620780  14.9965354   5.8692430  53.9357913
  14.2059632   6.3027976  54.2571342  15.2688046   5.3021691  54.6572680
   7.0146601  73.9488408  60.9553313   6.4907019  74.2023059  60.1954249
   6.9688313  72.9928490  60.9697566  43.9500761  28.3606887  13.5177362
  44.3789291  27.5179672  13.3689427  43.3094215  28.1850338  14.2068923
  27.0999356  71.5077755  30.8011711  27.4633052  70.8809206  30.1756728
  26.1558970  71.3516447  30.7757461  79.1142984  46.8046972  38.9209068
  78.5798260  46.3290611  39.5567811  78.6849161  47.6559838  38.8362134
  38.9577361  72.3379299  54.3740213  38.4713241  71.5173384  54.2948711
  39.6761890  72.1337077  54.9726451  62.8211447  73.0733916  46.6871870
  63.4314795  72.4543330  47.0877969  63.1205531  73.1528207  45.7814956
  15.4831624  36.6802263   7.9896474  14.6673799  37.0407367   7.6421380
  16.1451697  37.3384380   7.7781409  75.8318230  71.2626788  43.5987771
  74.9423881  71.5822765  43.7504232  76.0319277  71.5281340  42.7011550
  34.2308307  45.3557110  10.7334256  33.4424710  44.9344635  10.3909719
  34.2286658  45.1449442  11.6671312  11.0511911  44.3577862  18.0460787
  10.6978869  43.6991835  17.4480402  10.4137015  45.0713491  18.0202174
  17.5167084   5.6836116   4.9977344  18.2930410   5.4806298   5.5195934
  17.7398765   5.3930718   4.1134188  56.0138062  27.3856163  15.2754271
  56.8876294  27.0555711  15.0663006  55.8096818  26.9999814  16.1273968
  25.3082057   8.9553950  51.1803317  24.3735000   8.8106463  51.3273287
  25.5507871   9.6236823  51.8212545   5.4374810  15.2493928  51.3789940
   6.0089537  14.5651172  51.0305405   6.0280295  15.9755443  51.5794695
  31.6007042  67.0060635  12.7441871  30.6703806  67.1927404  12.6181674
  31.9850039  67.8509760  12.9779971  51.7539068  73.3705351  32.7009642
  52.5801321  72.9432341  32.9267872  51.7916318  74.2161795  33.1478346
  76.4093157  71.9915840  51.4106298  77.2548862  71.7973014  51.0062862
  76.0203453  72.6578685  50.8440614  17.3506757  21.0178302  51.0932195
  17.5913259  21.8943236  51.3933492  17.0045205  20.5842183  51.8732131
  45.1779985  23.9894414   2.4026513  45.9768391  23.8317704   2.9058704
  45.0499535  23.1858754   1.8985513  10.2774946  64.9776217  47.1040118
  10.0343935  64.3385479  47.7738762  10.9673540  65.5012199  47.5116503
   8.4502880  57.5034877  59.0170139   9.1852562  57.6070353  58.4125901
   7.9036228  58.2741090  58.8636035  24.7137558   2.4175359  23.7992239
  24.0162758   1.9521858  23.3374858  24.6798999   3.3079292  23.4495234
  64.6901341  66.2324735  63.0024612  65.3856989  66.8797323  62.8863767
  64.1583916  66.5782663  63.7193351  51.8911388   8.3184646  52.6693666
  52.1689940   7.4073766  52.5748015  51.4421058   8.3454631  53.5142756
  29.2949271   2.8402370  19.4167256  29.3331814   3.5951141  18.8294196
  28.4841657   2.9619908  19.9107671  14.6764839  19.4403446   7.2361541
  13.9895892  20.0907850   7.0900911  14.7620928  18.9896297   6.3960594
  73.1716084  18.2484601  43.0222214  72.8689027  17.8415940  42.2103966
  72.4318564  18.7816785  43.3132184  13.3818829   2.6570392  23.7677741
  13.8827550   2.8565598  24.5586920  12.9534185   3.4824109  23.5410333
  52.5853058  68.4963390  53.6958230  53.1028505  68.3058497  52.9134572
  51.6763493  68.4431383  53.4005273  15.3962489  68.1663220  25.4984498
  15.5584355  69.0494089  25.1666594  15.9040996  67.5964438  24.9209046
  30.8277297  18.0365753  20.2204800  31.4804792  17.3509490  20.0788283
  29.9899173  17.6109159  20.0385070  73.7056199  39.7251773   1.9394553
  74.5909444  39.5042539   1.6502741  73.5479454  40.5990028   1.5819618
   7.4035446  17.2134563  52.1713817   8.2860128  17.4054166  51.8541551
   7.3371450  17.6909539  52.9983151  58.3717724  65.5785820  56.2235850
  57.6052662  65.0063488  56.1882544  58.1266304  66.3400480  55.6979364
  20.9404822  10.6009076  53.6475742  20.8521005   9.6605609  53.8030315
  21.1417695  10.9680961  54.5083237   1.8876852  34.5179844  20.0080752
   2.5895396  35.0983930  19.7135293   1.6164087  34.0502024  19.2182505
  51.8344927  44.8653078  10.2099288  51.1184025  44.7412872   9.5869774
  52.0731783  45.7878876  10.1199079  16.1197448  53.8643837   0.2977045
  16.7928243  53.5441828  -0.3028525  16.0982502  54.8100567   0.1511561
  15.7051536  73.8911329  22.1469522  15.6916638  73.7118211  23.0871105
  16.6319724  73.8578553  21.9100475   3.2557333  22.6836872  20.3037167
   3.0032218  23.6021233  20.3982830   2.4451846  22.2362328  20.0607586
  68.4611368  18.6949837   8.4421337  68.8026905  19.3702996   7.8560269
  69.1935492  18.4892559   9.0230638  63.2899248  23.6298869  48.2306838
  63.8442755  23.0447553  48.7469650  62.9475307  24.2582486  48.8664222
  19.3965121  25.5965303  46.2637794  19.4540711  24.7174428  45.8894384
  20.2908250  25.7988809  46.5385354  70.6109138  62.6541564  63.4662216
  69.7402426  62.6245281  63.0696301  71.2125011  62.5225040  62.7334222
   8.6009686  58.5565445  43.9138878   8.4330027  59.1655037  43.1947315
   9.2688458  57.9616305  43.5729397  57.0051050  19.5596564  15.6377089
  57.4138308  20.4251003  15.6512594  56.1566687  19.7020149  15.2180398
  66.2699195  54.3630275  40.0558174  66.7684170  54.0554449  39.2987669
  65.4585238  54.7087809  39.6838963  19.3294855  70.7352230  31.7120517
  18.3750560  70.7467887  31.7839062  19.5776179  71.6586849  31.6686976
  71.9837403  17.2882960  49.7045136  71.5948224  16.5145133  49.2967904
  72.9248524  17.1135877  49.7006679  31.6894337  66.0527894  51.7423511
  31.7397358  65.7179758  50.8470297  31.3512947  66.9431278  51.6464687
  50.4919141   2.6023577  49.6381390  49.8172930   2.4177359  50.2916169
  50.9558348   1.7718981  49.5316160  21.5426703  69.7809933  20.5058050
  22.4088212  69.6248196  20.8821321  21.1363383  70.4161947  21.0954165
  32.3708042  47.5312719  61.1829686  31.8164375  48.1142887  61.7016220
  32.0513602  46.6524157  61.3874158  25.2034092  20.5128646  15.6771719
  24.3049979  20.2992153  15.4252923  25.4905200  21.1498928  15.0229597
  56.2706753  74.5923993  57.1033162  56.2598725  73.7695214  56.6144544
  56.8167325  75.1764676  56.5770853  23.8807603   5.9447930  49.2054689
  24.1541406   5.2830337  48.5701990  24.0665790   6.7799781  48.7763131
  52.5754595  44.0477324   6.3767976  51.7797375  44.1224480   5.8500427
  53.2520008  44.4737577   5.8504659  25.9957572   7.3761485  43.3857692
  25.5838510   6.8106769  42.7324641  26.2170573   8.1744359  42.9061973
  43.5427209   0.2104853  54.8479563  43.1869861   0.5972908  54.0479148
  43.3936044   0.8739613  55.5215997  73.4880539  70.2022049  63.3904212
  74.0481230  69.4464203  63.5674649  74.0963312  70.9363529  63.3052339
  70.0710807  29.4241023  21.8503642  69.8390976  29.5852780  22.7649331
  69.5989994  30.0979567  21.3611889  14.1546655  25.3265262  33.9366031
  14.9043870  25.9200740  33.9796329  13.4598935  25.8470798  33.5334325
  63.7148428  24.5982265  34.5109582  64.5689821  25.0076604  34.3729758
  63.2289648  24.7808576  33.7067175  35.2033186  44.0407038   8.2634914
  34.9361205  44.6014023   8.9918149  35.6590104  43.3088207   8.6793303
  43.0316444  62.9768011  32.1759331  43.1859823  62.4046799  32.9276574
  43.7690493  63.5870477  32.1840012  34.9174261  39.9848008   0.3061102
  34.2672777  40.4285622   0.8507354  34.4001508  39.4945145  -0.3328556
  31.4424491  28.9140987  21.0317707  31.0488915  28.0629802  20.8395720
  31.3560104  29.4076109  20.2161694  44.6329689   3.4382898   3.0532184
  45.5562210   3.4385917   3.3058721  44.2387915   2.7484497   3.5870495
  29.0616846  66.3124180   9.2601955  29.2728424  65.5847788   8.6752272
  28.3123016  66.7417860   8.8475215  15.6674159  73.5306263  12.6988482
  15.6295598  72.5798082  12.5952077  16.3143778  73.8162994  12.0538175
  27.8292179  56.6129541  23.1588411  27.4250579  56.0511875  23.8201308
  27.7832770  56.1024809  22.3504257  57.4196764  67.8186413  58.0864382
  56.7841931  67.2169897  58.4742636  58.2325455  67.3148438  58.0456794
  55.7698441   1.8804540  34.2874384  54.9656153   1.6018969  34.7254491
  56.1105776   2.5854480  34.8379970  36.8397379  38.0489922  13.2759559
  36.0807610  37.4902534  13.1086397  36.5907598  38.5686350  14.0402937
  45.2671441  43.7303474  15.8394087  46.1513849  43.9120438  15.5210769
  45.1363750  42.7984062  15.6644333  25.2749991  38.1020713  13.3015239
  24.4515061  37.6628542  13.5140777  25.9268141  37.4010968  13.2997644
  17.2670500  36.2562495  59.6007353  17.5025932  37.1832236  59.5624072
  18.1041662  35.7996747  59.6844158  22.2567435  14.4182036  44.1887677
  21.5074321  13.8440774  44.3473208  22.3571416  14.9113582  45.0029862
   8.8393613   3.6338828  49.9178720   9.4529720   3.9782117  50.5668342
   7.9969545   3.6135028  50.3719270  49.1380072  12.5889146   9.7958326
  49.8645687  12.8113627   9.2137164  49.4919205  11.9120491  10.3727484
  37.8557277  52.4547768   6.9935727  37.9675627  51.5428877   6.7249066
  38.5498619  52.6020432   7.6360065  77.3787800  48.8523388  26.3227010
  76.5553612  49.1514015  25.9369898  77.4011732  49.2624855  27.1872878
  15.6645060  17.0543981  12.2187161  15.8438063  17.6574278  12.9401314
  14.9139357  16.5406370  12.5169206  69.6794689  12.3297999  57.0599985
  70.0554943  12.4712728  57.9288036  68.7889707  12.6747249  57.1253664
  38.9851642  59.2093801   6.7125094  39.8518920  58.8537836   6.5161127
  38.4118080  58.8218403   6.0512173  70.1177212  56.8187734  51.1088181
  70.2410694  56.8475052  50.1600337  70.7999655  57.3931166  51.4565397
  46.3655766  54.3391356  54.5785797  46.0240193  53.6386475  55.1343554
  45.5896147  54.8296174  54.3073929  42.3451825  27.4690602  58.6641711
  42.4936935  27.5401233  59.6071053  42.4116870  26.5318702  58.4811932
   5.8898918  61.2819263  47.8035021   6.6383593  60.9624907  47.2995258
   6.1107103  62.1899411  48.0108214  78.2571550  51.0556969  23.7699735
  78.1211325  51.9853994  23.5872686  77.7968212  50.9039578  24.5953787
  23.9992428  66.1386296  57.3463583  23.9987444  66.5415951  56.4781124
  23.6692729  66.8232223  57.9283256   9.5080893  65.1501819  30.6208098
   8.7898390  65.0108477  31.2380135   9.0967171  65.5702898  29.8654855
  11.7136522   9.7244618  50.9473562  12.0867988  10.3312181  51.5867615
  10.9404346  10.1771138  50.6105006  57.1861866  47.6603339  37.2570527
  56.4178720  48.2071422  37.0929420  57.2919601  47.1489261  36.4548671
  19.9755498   2.6210878  50.6046546  20.8132716   2.3400853  50.2365577
  19.3350287   2.4219773  49.9217773  38.5221871  70.8485791  46.2878835
  37.8892060  70.1671311  46.0616231  38.6414691  70.7602378  47.2335041
  57.7221251  26.2351251   8.3634168  57.6998997  25.6334734   7.6192725
  57.6766300  27.1059895   7.9687548  34.2462969  22.9016280  20.0805378
  33.5568190  22.2380996  20.0564003  33.8825631  23.6427283  19.5960796
  33.5920334  37.0151711   8.9418429  33.7770414  37.8278327   8.4711117
  32.7997184  37.2045636   9.4444352   4.7613995  69.5561453  52.0804203
   5.0135367  70.3677842  52.5207639   5.4130547  69.4469926  51.3878405
  73.4988260  14.7926877  44.5873511  72.8652239  15.1072620  43.9425075
  74.0272927  14.1522048  44.1111768  31.1545277  65.3230143  15.1197374
  31.6365147  65.6463337  15.8809102  31.2441325  66.0172844  14.4669020
  47.6460248   3.9036487  62.7899875  47.6507431   4.0775846  63.7312395
  46.7893511   4.2113040  62.4938594  60.4633566  26.6790232  63.6484137
  60.5452462  27.6163557  63.4725330  61.3625260  26.3515982  63.6255943
  31.1446162  64.8609708  38.3939528  31.5569230  65.1547979  39.2062950
  31.1807319  65.6241612  37.8173518  13.4299012  14.3590758  49.4885123
  13.8074609  14.6141790  48.6467266  12.5559422  14.7494958  49.4871867
  20.1006051  65.0544135   1.5622871  19.6193572  65.4215865   0.8207917
  20.3576823  65.8161424   2.0818175  52.1580025  54.1669199  56.4864421
  51.8608161  53.4781870  55.8918339  52.4952360  54.8522982  55.9095872
  61.1446905  46.7125654   5.9677237  60.4429293  47.1767759   6.4240867
  61.6582012  47.4046087   5.5510545  50.3517171   0.8656977  52.0412362
  50.3897973  -0.0775959  51.8831909  49.7190925   0.9639762  52.7528286
  65.0893283   8.7577746  53.7078429  65.8347511   8.1583999  53.6714041
  64.9848103   9.0650294  52.8073430   8.1911367  42.1045113  24.8323655
   8.7601149  42.0450115  25.5997992   7.7006680  41.2825203  24.8335338
  14.0725231  43.8292599   0.9197941  14.9575377  44.1311884   1.1242910
  13.5286975  44.1895676   1.6202685  21.5190387  41.2558079  10.9749579
  21.9969201  41.3814402  11.7947626  22.0190048  40.5875301  10.5062735
  29.9422145  40.9885693  14.3263018  29.9559784  41.6459513  13.6306787
  30.6310391  41.2649965  14.9307370  22.7716343  63.3925625  45.4737532
  23.6236565  63.4006545  45.0376070  22.9029457  63.9140746  46.2655950
  53.8450595  67.2903916  58.3575392  53.3073779  67.9275080  58.8278717
  53.3193417  66.4904997  58.3526415  77.9561806  57.2842312  36.2080288
  77.9139519  58.1841373  36.5314841  77.0481062  57.0599222  36.0047626
  39.8786497  30.5590701  13.2467043  40.1563263  29.6435761  13.2150316
  40.5593491  31.0324979  12.7684247  70.6529808  14.1776669  11.8189454
  70.2998781  14.9101412  11.3139367  70.7283211  13.4641504  11.1853445
   1.6261741   5.0596402  55.3918946   1.8468519   4.3518565  54.7864396
   2.4614020   5.3018354  55.7918519  13.5449064  24.9151683  17.2307754
  13.1489658  25.4620814  17.9092658  14.2909825  25.4259229  16.9165540
   7.4444270  66.5244532  14.4376266   6.6086531  66.2426281  14.8094988
   8.0915171  66.3022661  15.1070595  15.2102681  23.7142299  31.4146912
  14.4594308  23.4290813  30.8939588  14.8260995  24.0534423  32.2231353
  54.8094730  69.8334368   3.6449185  55.0840071  69.3094771   2.8923702
  55.6211424  70.2134760   3.9810652  38.8879466  13.9032018  11.0118961
  39.1072416  13.4934103  11.8486834  39.6416497  14.4584858  10.8123326
  19.5009828   4.9363471   9.8567015  19.5782447   5.1279546   8.9220637
  19.2563844   4.0116073   9.8921949  38.9520884  52.3419762  19.9545038
  38.4787154  53.0794573  20.3395629  39.2978287  51.8605852  20.7061386
  14.2140782  48.1542206  27.1747565  13.6195147  48.0907679  26.4272928
  14.0121067  47.3850012  27.7074313  29.0919304   2.8677452   5.4069996
  29.9915481   3.0274603   5.6923246  29.1757941   2.2362623   4.6925569
  75.7243180   3.0592177  58.9131475  75.5716967   2.1147774  58.8819230
  76.2634897   3.2402871  58.1432528  41.7830610  19.6866465  18.2452798
  42.0038843  20.1907372  17.4621058  40.8349466  19.7842693  18.3335185
  36.9972666  62.6524016  60.9100563  36.4970311  62.0083949  60.4088059
  36.3779440  62.9830238  61.5607181  19.7475028  25.2312660  -0.0167803
  19.2985427  26.0667515   0.1121905  19.1385043  24.5767999   0.3253102
  71.9332790  16.7145169   1.2372664  72.8468370  16.4539373   1.3544938
  71.9771671  17.6399362   0.9966315  42.5213595  68.3923527  51.7422521
  41.9703086  68.2494828  52.5117731  42.3316892  69.2918560  51.4755059
  17.1617913  53.2163811  12.0602822  16.5286136  53.9187574  12.2085500
  17.7187693  53.2277632  12.8386629  56.4670058  47.9176053  61.1774171
  55.6962391  47.4531922  61.5037167  56.7331525  47.4243602  60.4014611
  53.0797720  59.0798903   5.1199555  53.8980627  58.6655188   5.3936946
  53.1213570  59.0835476   4.1636658  30.8739968   5.5258439  64.0316684
  31.7662879   5.3526424  64.3317531  30.3181287   5.2456639  64.7588161
  55.6774426  67.0233059   7.1030903  56.3390303  66.8419552   6.4355236
  54.9116850  67.3150253   6.6083699   4.9061298  65.6410837  15.2914679
   4.3545660  66.2974405  14.8657894   4.3156984  65.1841021  15.8904600
  24.3076345  26.1123679  61.2613148  23.8379832  25.3393386  61.5745068
  25.2019712  25.9954331  61.5818072  46.2953854  59.2051649  22.6414609
  46.8114758  59.9830961  22.8529048  46.3020706  58.6872387  23.4464073
  10.4032127  73.3501765  63.2066405  10.1542847  73.8205763  62.4110329
   9.6699326  73.4886643  63.8061037  42.3033524  48.6870480  10.1235390
  42.4193382  49.4989681  10.6170666  41.4604616  48.3444023  10.4207885
  73.3273411  69.1190386   5.7625049  72.7848291  68.4305096   6.1469984
  73.5247087  68.8039446   4.8804653  68.0952644  41.6158724  19.3349791
  67.4390364  42.2655153  19.5870805  68.9233780  42.0958376  19.3443441
  68.4212967  72.7546260  61.4890078  69.1217180  72.3561379  60.9724394
  68.5303350  73.6960289  61.3544601  28.8804742  23.0972026  38.4333480
  29.7712537  23.2211803  38.7610281  28.7333604  23.8428805  37.8514970
  40.9937525  39.9049401  11.9642699  40.5501556  39.7234273  12.7928257
  40.9848213  40.8593559  11.8918717  21.3230916  63.1518255   8.4976804
  21.0897943  62.3452698   8.0380356  22.0028325  62.8864275   9.1171521
  13.4410950  23.1645749  62.8319407  13.4947392  22.3117278  63.2632222
  13.5797139  23.7981246  63.5359503  47.3980065  27.9621194  49.7817111
  47.9977246  28.3713267  49.1579139  47.1187278  27.1543048  49.3508196
  60.0449419  69.1499472  33.1378412  60.0374794  70.0457287  33.4751034
  60.9532499  69.0003490  32.8754926  26.7572069  36.1371756   2.6383853
  27.6642728  36.4400291   2.5966591  26.7971683  35.2221608   2.3602068
  43.1779385  74.2211056   1.9240591  42.2726583  73.9188480   1.9971268
  43.3602285  74.6372986   2.7665469  57.4782324  62.3672342  29.1072941
  56.6379976  62.7790499  29.3089199  57.9060030  62.2669554  29.9576998
  16.0012047  69.2136475  32.0725978  16.4793007  68.4233710  32.3238361
  15.2783243  68.8946602  31.5323031  49.3171926  70.9778687  57.9154736
  49.7408338  70.2302906  58.3372391  49.3224164  70.7614609  56.9830722
  34.5796728  61.3226318  22.1991706  35.1746416  61.8554926  21.6716242
  34.2648673  61.9176245  22.8796959  77.4956763  33.0486465  11.3541687
  78.0943616  33.1529593  12.0937133  76.8979277  33.7930799  11.4230585
  32.3165941  29.5123672   9.6973330  32.5485563  30.2005315  10.3209162
  31.5447474  29.8506927   9.2434341  22.8985643  56.6231251   0.6026950
  22.4859619  56.9411039  -0.2003498  22.2351313  56.0646629   1.0079223
   1.0207602  64.4998980   9.9368715   1.7837664  64.9037504   9.5234025
   1.3494345  64.1656828  10.7714379  78.3309984  29.7030471  61.8021465
  78.4592080  30.6029056  61.5020666  77.6393366  29.3584464  61.2372676
  54.5161601  28.9490340  60.5797366  53.6703273  28.5018704  60.6088844
  54.2939540  29.8783372  60.5226925   3.7494846   7.4952910  45.6733406
   2.8469130   7.8118108  45.6357455   3.7017890   6.6975425  46.2001729
  40.0215769  22.9208899   5.8966887  39.8864961  22.5601315   6.7729521
  40.7410431  22.4045467   5.5333835  26.5547347  62.1196890  35.1181078
  26.2503695  61.2682772  35.4322505  26.2369990  62.1699142  34.2165804
   4.6703168   4.1852115  63.7857370   5.1724573   3.4181569  63.5105811
   4.8433085   4.2607234  64.7241426  43.8921829  58.1014201  63.6310174
  43.4014567  58.0802223  64.4525834  43.9812573  59.0328547  63.4292031
  52.8027316   7.9631923  48.0082810  51.9093581   7.6634000  48.1763268
  53.1827088   8.0834220  48.8785637  35.0894618  47.6319981   9.6047240
  34.8636198  46.8419600  10.0957072  35.5073667  48.2032204  10.2491581
  15.2250596  15.1421855  44.5754230  14.5271178  14.6798108  44.1113961
  15.3316518  15.9617398  44.0925181  20.3522897  53.9388895  31.3012099
  21.2019086  53.5051918  31.3805079  19.7131062  53.2446671  31.4616156
  72.4916676  10.5717517  52.9687691  71.8317584  10.1324703  52.4323225
  72.9253367  11.1768867  52.3671293   3.5939475   5.6698535  61.7223111
   4.0984818   5.2192472  62.3995358   2.7319666   5.2545474  61.7496306
  48.8566800  64.8037478  45.8085633  49.6986957  65.2583620  45.7847309
  48.7604710  64.4316861  44.9318969  67.3134804  33.5156202   6.6750282
  67.5416803  33.0036521   7.4509454  67.7994299  33.1002784   5.9625864
  20.5698059   0.2429582   6.2090361  21.0658721  -0.5699919   6.3052893
  21.1280505   0.9124376   6.6045016  68.1288671  36.2325597  25.0471878
  68.6801624  35.4751682  24.8505759  67.8851318  36.1193609  25.9658885
  53.2375642   6.9097398  60.4412717  53.8690444   7.2102092  59.7876781
  53.7215968   6.9254754  61.2669248  14.1245024  61.2398144  18.9361656
  15.0594322  61.0707995  19.0526903  13.7221901  60.3712675  18.9368093
  38.5071039  57.6322889  23.7849212  38.9527369  58.0792999  23.0653191
  39.0347648  57.8363419  24.5570397   4.8902722  46.1146472  31.1448634
   4.1086789  45.9755252  30.6100881   4.5612117  46.5119956  31.9511283
  57.3374081  50.3052425   2.4250032  58.2417250  50.4193926   2.7172434
  56.8300247  50.8986378   2.9787874  32.9542599   8.0782463  38.9353466
  33.0188099   7.1379615  38.7682176  33.7134180   8.4534980  38.4891415
  64.9720645   4.8300860  57.9891414  64.8718429   5.7017110  57.6064354
  65.4316211   4.9824546  58.8148672  29.7488070  51.4108372   6.8597019
  30.3103423  51.0212898   7.5298977  30.3507805  51.6616058   6.1590046
  42.2322655  68.8229656   0.4497989  42.2895670  68.6434221   1.3882616
  41.6442013  69.5754719   0.3853799  54.7844362  54.6333408   9.2062110
  54.7847891  53.7787580   9.6373945  54.7724962  55.2646017   9.9256516
  28.6381245  29.4609022  16.2741804  28.2657003  29.6955132  15.4241872
  29.3265462  30.1094890  16.4212883  43.5060024  37.2623777   5.3388035
  43.4658527  37.9710126   5.9810323  43.5916519  37.7076840   4.4958329
  63.9393187  62.8704119  19.1915846  63.0327272  62.5882816  19.0702379
  63.8697338  63.7736082  19.5008230   7.0240728  48.4746918  34.8713458
   7.8308384  48.3931169  35.3799761   7.0679848  47.7598390  34.2362964
   5.3774202  35.3594708  42.2071838   4.7929698  36.1076427  42.0851707
   6.2558460  35.7190847  42.0835829  53.1138257   3.8647626  36.0028613
  52.6336645   3.6430190  35.2050483  52.6395220   4.6116803  36.3680804
  73.9682797  16.3521339  18.7540567  73.2851962  16.7932464  19.2590773
  74.4774322  15.8726551  19.4075775  72.4020827  37.5420878  31.0593450
  72.5461793  37.9481433  31.9140876  71.6904497  38.0500625  30.6697715
   4.2372652  40.8211040  24.6099377   4.9013086  41.2789536  24.0945268
   4.7004648  40.5347157  25.3971219  37.0242977  55.5394077  13.6136651
  37.4942279  56.2440872  13.1677663  36.6366577  55.0246811  12.9058361
  29.6258088  15.3270648  59.6800617  30.2346726  16.0235379  59.4342178
  29.4412967  15.4859517  60.6057734  30.5549407  61.8832731  11.2252641
  29.5983624  61.8947411  11.1927009  30.7727671  62.3508883  12.0315647
  62.0023557  60.8475610  54.8777569  62.1844836  61.7462989  55.1522231
  62.8663655  60.4602644  54.7373307  48.3411026  46.8745756  17.5601137
  47.4250698  46.6700840  17.7479959  48.8100767  46.6270638  18.3570051
  67.4307823  69.8460770   8.0468249  66.9262457  69.0766573   8.3107769
  68.2449865  69.7813654   8.5459393  38.9122939  24.1827891  64.1433230
  38.6171901  25.0603650  63.9004042  38.1418550  23.7706779  64.5342436
  57.5389338  11.0494626  15.3968608  57.8740549  10.1529825  15.4126751
  57.5244713  11.2834191  14.4688058  69.4923588  65.0926801  55.0157833
  69.3788048  65.1706740  55.9630180  70.2035042  64.4605919  54.9110514
  38.9325404  25.3404593   5.3829408  39.4158125  26.0383010   5.8253157
  39.3658257  24.5342445   5.6631434   0.2702879  31.6546822   6.6151637
  -0.2428743  31.4021254   7.3826993   0.4050433  32.5969052   6.7166001
  45.4036208  30.8584664  54.3155015  45.8834811  31.5560458  53.8690138
  44.9456283  31.3018869  55.0295401   2.3357817  41.5879917  10.9299290
   2.2246691  40.6618404  10.7151508   2.2128340  42.0434332  10.0970483
  10.8234310  10.2434397  14.7927511  11.3626456  11.0149634  14.6188819
  10.3857541  10.4388940  15.6212842  24.1198894  65.8728080   0.4632540
  23.8461896  64.9593304   0.3803053  24.9956533  65.8964025   0.0776264
  60.0784540  42.0172882  16.8206203  59.7388887  42.8359079  16.4589739
  61.0210466  42.1634865  16.9004524  14.2942759  16.3353968  23.7078881
  14.6394201  17.2236657  23.7978029  14.2585322  16.0004938  24.6038771
  62.6814777   4.2151664  56.4372331  63.4816551   4.5519946  56.8403399
  62.3581004   3.5611747  57.0568723  59.5092821  64.9615669  24.9080992
  59.3039656  65.2653742  25.7922792  59.0623331  64.1183043  24.8347712
  73.9853183  59.9134445  25.0041246  74.1930891  59.7793579  25.9288311
  73.2023398  59.3833399  24.8552537  73.7607574  14.2154573  36.2784136
  72.9112935  14.5781444  36.5296161  73.6967015  13.2847903  36.4928472
  59.7689680  11.3347961   4.5462376  59.1581444  11.7141487   5.1780754
  60.5934719  11.2582828   5.0264126  20.1844665   6.5063642  57.3133338
  20.6609555   6.2702678  56.5174389  20.5303927   7.3659490  57.5535023
   0.0656792   6.3196967  57.0901162   0.6783649   7.0239518  57.3019463
   0.3884240   5.9621881  56.2629199  31.1907999  73.3654353  52.7348590
  31.0808127  73.4706327  53.6798823  30.3012316  73.2468578  52.4019313
  47.7191114  38.3815050  12.1380711  48.6660004  38.4388328  12.2659111
  47.3465586  38.7250161  12.9501283  70.4978085  55.5272007  30.3896904
  70.2418613  54.6050358  30.3714085  70.4525471  55.7700396  31.3144684
  28.2260676   0.9503148  50.6231678  27.8367826   0.0795792  50.5425215
  28.6795445   1.0878966  49.7915054  15.0103760  23.8938808   1.2520319
  14.7163594  23.5572720   2.0984837  14.6004808  24.7560072   1.1816479
  39.8637267  10.0608132  50.2334929  39.5898553  10.7572482  49.6366585
  39.0565129   9.7878812  50.6695497  40.6795835  27.4039531   6.2599397
  40.9343147  26.7158008   6.8745852  41.4694881  27.5699401   5.7454175
  71.2686726  50.7432779  62.4291705  70.8425995  49.9718651  62.0555192
  70.5531403  51.2490925  62.8143934   9.9210882  36.9798660   2.4721903
   9.3647391  36.8068790   1.7127278   9.3074054  37.0907164   3.1983706
  37.2068139  73.4166003  13.8354242  36.8684121  73.3732458  14.7297597
  36.5808793  72.9102583  13.3176851  69.3868256  47.8564835  16.5454626
  68.9789391  48.4746218  17.1519017  69.6648073  48.3955383  15.8049357
  28.9374658   5.7073997  60.1804927  28.9259263   4.8541616  59.7468090
  28.7075063   6.3298438  59.4906307  39.4928475   6.3121007  54.4905222
  40.3690692   6.0969327  54.1708875  39.0707751   6.7536090  53.7535310
  78.4658217  13.3708308  41.2083209  78.0514717  12.9687713  41.9717968
  78.9174342  12.6480887  40.7725203  40.8688927  40.1879787  16.8754923
  40.4471684  39.3287396  16.8847036  40.8405161  40.4784966  17.7870977
  63.3038636  66.7618605  18.0707157  62.4081989  66.4437911  18.1840647
  63.5071155  67.2040388  18.8949716   8.5456725  35.6960080  46.9002652
   8.6713286  36.0358451  46.0142899   7.8301497  35.0658296  46.8158293
  23.7311625  56.9176626  28.8937688  24.3312263  57.6367664  29.0913582
  23.2268023  56.7985821  29.6985507  58.1134701  37.4159408   9.1994774
  57.3668480  36.8289280   9.3186426  58.0881310  37.9935789   9.9623162
  10.0690055   3.9637710   8.4474820   9.3230128   4.3462278   7.9854769
  10.8262658   4.1881181   7.9066896  29.9351512  59.8866197  59.2726928
  29.9940055  60.6104490  58.6491221  29.8205145  59.1088268  58.7266833
  39.4765711  55.8196735   6.6030002  38.5535407  55.9396315   6.8262863
  39.7837162  55.1448917   7.2084457  51.0282660  50.3689384   7.1883893
  51.3694668  49.5261812   7.4876809  50.0815964  50.2382946   7.1337438
  65.7805824  63.0116653  17.2097814  65.0478411  63.0207014  17.8256059
  66.3527727  62.3136663  17.5285685  47.3904705  17.2626483   5.9174687
  46.5714502  17.6689422   5.6339836  47.3949909  16.4074719   5.4874849
  53.2195377  25.0332522   2.1723160  53.4630203  24.2190409   1.7318489
  52.8430176  24.7512579   3.0059481  75.2069807  61.5266418   1.1200897
  75.1342201  61.4514494   0.1686258  76.1428499  61.4313507   1.2970069
  25.1639533  46.8404293  12.1360087  25.8627319  46.4745331  11.5937352
  24.7390294  47.4883842  11.5740228  68.3843418  54.7821805  54.7446323
  68.0927607  54.1117617  55.3624922  68.0523153  55.6032273  55.1077765
  66.6188908  47.2957659  14.6132493  67.4009657  47.0797300  15.1211071
  66.5767574  46.6181755  13.9384723  57.5021267  54.5042944   4.3638325
  57.3244905  55.1226234   3.6550686  57.0547485  54.8762465   5.1239204
  66.2418795  61.1084604  14.6014142  66.2564230  60.3388643  15.1703978
  65.5911016  60.8987904  13.9315212  41.4535761  21.9584417   2.0880769
  41.8635321  22.7950931   1.8685651  41.2145329  22.0437026   3.0110174
  36.6439342  14.7400880  27.4052262  36.6207528  13.7979376  27.2377539
  37.4421573  14.8728991  27.9165316  41.6110659   9.2182702  20.9825563
  40.6820917   9.4352460  21.0610271  41.6994810   8.3777076  21.4318562
  13.4565087  62.2041427   9.2382789  14.0656348  62.7596627   8.7518662
  12.6174995  62.3212241   8.7926507  70.9756422  62.4661922  16.6792345
  70.2456045  62.3521757  16.0707307  71.1313009  61.5906143  17.0333076
  51.1889887  62.5640678  11.2712622  51.3807344  62.4270773  10.3435230
  50.9842205  61.6906309  11.6050339  78.4560990   5.6210683  53.8642264
  79.2925119   5.5740665  54.3273008  78.4188032   6.5162633  53.5273755
  41.8681546   7.8738139  53.2432842  41.9683190   8.2651828  52.3755121
  41.7776938   8.6213897  53.8341975  55.4642626  50.5844506  54.7029692
  54.8942085  50.8529481  55.4235113  55.2097102  49.6799490  54.5204497
  62.7236601  39.7495994  43.1507552  62.2346278  39.1433131  42.5944317
  62.1880384  40.5426904  43.1693733  10.0705648   1.3717081   8.7541002
  10.9370494   0.9878351   8.8885325  10.2373147   2.3083354   8.6484665
  43.2369089  66.3889408  22.1430969  43.3367205  66.0764980  23.0423427
  43.6500549  67.2523928  22.1423006  69.9487257  51.5010118   0.6713384
  70.8368921  51.1493349   0.7322686  69.3822813  50.7590389   0.8831253
  74.1951609  33.1514931  18.4086967  74.2512274  32.3306990  18.8979697
  74.6937799  33.7777209  18.9335299  16.1313415   7.5480987  27.2008109
  15.1827407   7.6498748  27.1231556  16.4296365   7.3920490  26.3047647
  41.9694471  73.9741230  19.3747807  42.8241968  74.0614891  18.9528739
  41.9301319  74.7062778  19.9901175   0.5580708  65.5362654  30.1333833
   0.8798643  64.9260235  30.7969284  -0.3721336  65.6396437  30.3340554
  29.6182843   3.7896655  53.2339895  30.2785798   3.1004880  53.3065963
  29.4604512   4.0662072  54.1366780  17.5199835  74.3614098  49.3862903
  17.1482508  75.2094337  49.1435921  16.8772881  73.7216469  49.0798891
  60.9699059  29.0199018  19.5800745  60.3286743  29.4678807  20.1317739
  61.3612223  29.7168517  19.0534186  18.6990380  46.1087370  16.7306077
  18.7872338  47.0593357  16.6612089  19.2455423  45.7652569  16.0237932
  28.3671284  48.2678938   9.3559813  27.7200103  48.1381226   8.6627078
  27.9305553  48.8400269   9.9870890  77.1771860  15.7115481  62.2302972
  77.5603866  15.4937957  61.3806069  77.8854084  15.5644630  62.8572086
  65.1322885  52.7568635  50.6002081  65.1539775  53.6693129  50.8886481
  65.9090992  52.3619482  50.9962416  22.4463558  48.4550524  18.7283230
  21.7680454  48.9714384  19.1636050  22.1899199  48.4515953  17.8061187
  72.5444075  72.4921176  55.6824547  72.7474399  72.0310923  56.4963734
  73.2970758  73.0655333  55.5378211  75.4928493  46.3401985   7.3363572
  74.5413303  46.2523174   7.2804523  75.8146667  45.4395676   7.3755580
  54.0397406  53.3665609   4.4667763  53.4488916  53.3403778   5.2193987
  54.4108391  52.4853182   4.4228324  18.8072610  26.7383529  25.4298759
  19.4261098  26.8971778  26.1426401  18.4483886  27.6022960  25.2273011
  75.2625207   2.0253946  29.3805361  75.6724767   2.3339321  28.5724688
  74.5242242   1.4920713  29.0860558   2.1777988   7.5517703  14.4279468
   2.9122663   8.1346084  14.6205473   1.3997150   8.0814220  14.6019673
   8.9841147  49.5626185  55.4334760   8.5774609  50.2938960  55.8983457
   9.2164846  49.9224876  54.5774782  25.1034188  47.5226355   2.7803841
  25.0088644  46.5945578   2.5659946  25.5462885  47.9001045   2.0203754
  48.0900669  53.9040565   3.0799961  47.5580359  54.3912745   2.4508756
  47.9600048  54.3630314   3.9098501   8.0952120  53.6345005   7.4484366
   8.3788478  53.3034611   6.5962648   8.8906431  53.9914227   7.8435677
   3.2204620  70.6441852  45.2045334   3.5158150  70.5925032  44.2955077
   2.3470203  70.2527210  45.1952029  67.1589545  28.9798118  20.7658219
  66.8719033  29.0765048  21.6738319  67.6854590  29.7610809  20.5965781
  47.5624438  23.4790967  50.3213227  48.2368871  23.9733193  49.8553837
  47.7821752  22.5618051  50.1584482  28.3276916  55.8647633  30.0112772
  29.0540099  55.3805447  29.6185660  28.0060005  56.4271450  29.3066669
  50.2443218  16.4111042  10.9596896  49.8135614  16.9088376  11.6546285
  49.5245028  16.0430610  10.4472089  50.9821796  64.5174789  -0.0441859
  50.3298426  63.9341545   0.3436560  51.7505836  63.9625072  -0.1775739
  75.1212005  10.9811737  20.8226657  75.5643872  11.4420368  20.1103330
  75.0508622  10.0771953  20.5158901  14.6851230  29.8923732  38.8836265
  14.6676612  30.7805683  39.2400336  14.9643159  29.3451835  39.6177030
  78.4732962  46.7966557  15.2845633  78.5011148  45.8636093  15.0727046
  79.1102982  46.9008636  15.9913898  42.5110551  15.3777574  55.8393234
  41.8832561  14.6567414  55.7920254  42.1516248  16.0468982  55.2568323
  38.6034346  27.0888066   3.2053930  38.6960149  26.3729644   3.8340682
  39.5010853  27.2992826   2.9481885  14.1100093   2.0086620  54.8413658
  14.7643872   2.6254795  54.5134104  14.1221734   1.2887333  54.2106629
  77.4218607  39.5877934   3.7975466  78.2164240  40.0863743   3.6069873
  76.8312025  40.2236176   4.2013851  47.4638577   1.7456458  13.6594808
  47.9935905   2.3263286  13.1132019  47.1801730   2.2962115  14.3892992
  16.3973447  70.1534982  17.7197707  16.1333962  70.4854526  18.5778904
  15.5756827  70.0507312  17.2396255   3.0641858  34.4627307  57.5591034
   2.6162641  33.7235187  57.1478081   2.3573892  35.0352071  57.8573436
  33.3297273   7.8604911  29.0918267  33.3358832   8.4476302  29.8477781
  32.8135654   8.3243011  28.4325183  57.1939059   5.0730393  42.3175442
  57.3737784   5.7976745  41.7185605  56.2800857   5.1959298  42.5745571
  62.5161409  23.6048031   5.0634247  62.2293568  22.9728651   4.4041520
  61.8446589  23.5620499   5.7442474  21.1958981  23.9811444  26.1435080
  21.0279107  24.1666722  25.2196074  21.5836263  23.1059909  26.1454153
  68.8481331  46.2365437   2.9595280  69.0800476  46.7677307   3.7212932
  68.1659174  46.7399502   2.5152352  78.7291761  73.7476131  50.5895281
  78.9828249  72.8458377  50.3928209  78.8967462  73.8444945  51.5269542
  63.7260151  19.9727798  17.0870519  63.4139776  20.5322719  17.7982724
  63.3143997  20.3323627  16.3012397  40.6228515  73.2058799  10.1337373
  40.7697888  73.9601700  10.7044280  39.7335549  72.9185788  10.3407133
   8.2315628  72.8253957  40.3542507   7.3447315  73.1815430  40.4082835
   8.5217611  73.0388281  39.4674242  10.9914534  45.2429482  61.6855461
  11.0231487  44.9742511  62.6037121  10.8462565  46.1885294  61.7175845
  36.7324372   3.3341525  41.2443578  37.4361678   2.7755282  41.5744150
  36.2470599   2.7747939  40.6379259  17.7619311  16.7754710  17.8597856
  18.4590098  16.1295307  17.7454126  17.9378267  17.4384356  17.1921253
  35.6882167  31.2779927   8.9752024  36.2528181  32.0490360   8.9208770
  35.6007481  31.1108232   9.9136239  29.3831035   8.1829284  49.9046540
  28.5684653   8.6813949  49.8403847  29.9489280   8.7193177  50.4599583
  57.4445673  52.3547205  51.3686157  57.0265790  51.6896829  50.8215857
  58.1925126  51.9055030  51.7623353  24.8870441   9.5998166  61.9448909
  25.8163091   9.3983768  61.8347997  24.4350310   8.8006280  61.6743094
  61.0316372   4.0255120   9.5355880  61.8739939   4.2625505   9.9235070
  60.6209230   3.4548652  10.1851332  36.8877697  72.2553968   7.1265650
  37.2116709  72.5412178   7.9807454  35.9410834  72.3892641   7.1723521
  23.7618820  56.0523459  60.7959980  24.1535275  56.5865800  60.1050309
  24.4962399  55.8197126  61.3641763  69.3375015  16.3804219  50.3961909
  69.5418966  17.2864936  50.1649106  69.6528530  15.8664964  49.6527767
  59.5142814  59.9746868  27.7375472  60.2741357  60.5170056  27.5260246
  58.7605568  60.5238673  27.5218356  62.0586439  62.8942010  51.7306209
  62.9306956  62.7781126  52.1078193  62.2163793  63.3260438  50.8910585
  74.0250587  62.0858860  12.4237704  74.4627571  62.8676510  12.0868683
  74.7156382  61.4244509  12.4666202  55.7328602  62.0966169  52.1381152
  56.2262984  62.4876353  52.8591264  54.8850199  61.8726608  52.5218344
  37.0113015  52.9332781   2.1106716  37.0127082  53.7811756   1.6664854
  36.9863844  53.1510544   3.0424359  45.2561760  43.1756926   0.1101461
  44.4662094  42.7322340   0.4192193  45.6360102  43.5650063   0.8977959
  45.4023504  21.7370749   0.9586106  44.8107529  20.9870839   1.0198999
  46.2176895  21.4321470   1.3567014  73.6327930  58.4803530  44.9588943
  73.3755966  59.3044349  44.5454085  74.5641466  58.3913681  44.7566915
  26.6264796  69.5725775  22.8866196  26.8840837  68.6952353  22.6035357
  27.0940948  70.1620913  22.2949791  58.6890057  43.2713318  41.5885592
  59.5415918  42.9257011  41.3242340  58.8946918  44.0681839  42.0773840
  59.0726093  10.5066062  34.3129444  60.0206427  10.3851463  34.3650126
  58.8821534  11.1852027  34.9606037  33.1731335  12.8414680  29.1978216
  32.7958826  13.6196662  28.7875390  32.4704633  12.1920349  29.1709137
   7.6785656   0.0123094  47.6224041   8.3454486  -0.5517675  47.2308445
   7.5709911   0.7271193  46.9949460   4.1905329  45.8773375  57.0990944
   4.1386569  46.1542702  58.0138922   4.9364656  46.3610458  56.7443514
   1.8201078  53.8163948  32.7241468   1.7294700  53.8930035  33.6739612
   2.6040345  54.3249226  32.5165629   8.9786702  45.1419830  28.4007072
   8.7508553  44.3115234  28.8186359   8.4419715  45.1666021  27.6085091
  26.2066531  55.8687782   4.2630783  25.4418802  56.4322901   4.1455758
  26.1339307  55.5508900   5.1630181  59.7273783  69.1250563   4.2658541
  60.5053882  69.6780157   4.1939861  59.2859463  69.2218685   3.4220558
   7.3962134  52.0669651  49.9131060   6.5916139  51.5484524  49.9131250
   7.7529067  51.9556475  50.7943583   4.2255685  47.6241398  33.3692312
   3.5805878  47.5320911  34.0704870   5.0083590  47.9594755  33.8062930
   7.5823921  43.4866190  19.5866132   7.6558512  43.6001444  18.6390114
   8.4436142  43.1683111  19.8571813  61.8346526  70.6531647   9.5178473
  61.2180157  71.0048607   8.8757384  61.2831362  70.3544453  10.2409136
  31.1821149   7.5248100   6.4318347  31.8082193   7.5443031   5.7080632
  30.3700761   7.8639556   6.0552645  15.1301992  64.6556950  41.7058659
  16.0414600  64.8577452  41.4937067  14.6371949  65.4129934  41.3901424
  21.1242414  54.4276047  58.2824707  21.7137527  55.1797724  58.2281017
  21.1225700  54.0602255  57.3985815  11.3705897  65.8582878  42.5449181
  11.4873540  65.5065727  41.6623688  10.4249871  65.8301687  42.6907921
  27.8740924  27.6412441  22.1664500  26.9236662  27.7127983  22.0781207
  28.0135364  27.4285270  23.0892372   4.9891248  66.9565582  56.8120527
   5.7365209  66.3586378  56.8230629   5.0490010  67.3992443  55.9654856
   5.0573981  63.7769508   9.6319252   5.0421113  64.5086956  10.2488112
   5.9134382  63.3697176   9.7645515  63.3451597  64.5831347  49.0479040
  63.8762239  65.2496433  49.4837570  63.9186493  63.8187981  48.9919615
  69.8271606  43.5219097  62.2455072  69.7038076  42.8647900  62.9304934
  70.6832508  43.9064407  62.4338675  56.4645630   7.4367545  49.5221162
  55.6180024   7.7374099  49.8525298  56.3584763   6.4913056  49.4167471
  78.9353569  70.0838280  25.2064562  78.9268855  70.9983730  25.4888844
  79.4951908  69.6413136  25.8444214  53.2125095  31.6404010   7.4286056
  53.2295398  31.2409164   6.5589225  52.2865871  31.6466476   7.6712209
  28.5735559  33.8203263  19.1260672  28.6446118  34.6265554  18.6150146
  28.7758756  33.1228638  18.5024929  61.4598230  71.5688992  15.9943771
  61.1388604  71.9710588  16.8015218  61.5151111  72.2934484  15.3713155
  76.2667874  18.8278316  37.8100837  76.4649180  18.3978866  38.6420214
  76.8550185  19.5825217  37.7844393  23.1988382  22.9945707  18.8155031
  23.6777949  23.7315083  19.1946542  22.2769094  23.2106209  18.9555180
  65.6577209  38.5550690  38.4694767  66.5970532  38.6080003  38.6457849
  65.2751140  39.2560959  38.9971161  49.3273654  24.7881768  62.7639154
  50.2726921  24.8139070  62.9119945  49.2157686  24.1791461  62.0339397
   5.7889742  42.3981810  34.2639709   5.3092480  41.6436577  33.9222264
   6.5905011  42.4290037  33.7416315  76.0541377  20.3367496  28.0995584
  76.4388058  20.7510066  27.3271251  76.0046006  21.0388780  28.7482452
  71.2435231  16.6209793  31.3938403  71.3321987  17.4971318  31.0187054
  70.7590411  16.1255956  30.7334590  38.4547460  22.6131986  49.4836128
  38.9089739  22.3492597  50.2837658  38.6516011  23.5455344  49.3928814
  70.4783521  39.0775132  29.8332238  69.8135374  38.8529944  29.1821885
  70.4475597  40.0326824  29.8874116  76.2897340  39.5335841  61.7861795
  77.0877624  39.8125577  61.3372278  75.6518386  39.4064188  61.0839319
  66.1722672  72.7012675  37.7002811  66.5167737  72.8414662  38.5822630
  65.6261074  73.4690555  37.5316286  71.1818395  34.1033554  27.6632357
  70.4139695  33.9284587  28.2073116  71.4165143  33.2499504  27.2987342
  12.2638035  41.7215872  15.8611751  11.4131916  42.1248055  16.0346842
  12.8038883  41.9694424  16.6115808  10.0620830  50.5376577  30.9198761
  10.6373823  50.1920986  30.2373409  10.1205826  49.8975515  31.6291547
  22.2763724   9.2678501  43.8966513  22.2885386   8.3447982  44.1497374
  21.9091380   9.7196914  44.6563959  71.2151466  45.6705570  44.8492479
  70.4564277  45.1166201  45.0329018  70.8674631  46.5623665  44.8544407
  17.3522615  41.0094690  55.0390959  16.5646935  40.4894686  54.8792076
  17.0616317  41.9173145  54.9519825  39.4827461  11.8350003  59.0025854
  39.9784326  11.6330455  59.7961483  38.7299871  11.2445567  59.0336228
  59.8392001  72.4112129  18.3597207  59.3065075  73.1607246  18.0938208
  59.3626169  71.6495228  18.0296695  52.2805909  33.2865000  50.7291174
  52.3651389  34.0233779  51.3341761  52.8597573  32.6142097  51.0880327
  74.5395238  64.8319817  50.1937342  73.8061873  65.3666782  49.8895121
  74.4755328  64.0249062  49.6830845  75.6365732  71.4741373  33.2826090
  75.6556300  70.6973505  32.7236176  76.4072416  71.3847399  33.8432431
   2.3228385  58.1912899  42.0940495   2.5305140  59.1176081  41.9714260
   2.3204997  57.8271341  41.2088251  15.6079948  17.2549760  39.3168116
  15.3512728  17.3554969  40.2334499  15.0976050  17.9174376  38.8511086
  69.2539699  15.5041579  13.9811909  68.6052115  15.7838372  13.3353388
  69.7411235  14.8055581  13.5442984  38.7254477  54.6603298   9.0082890
  38.0913949  55.2775049   8.6431825  38.1898808  53.9719152   9.4026047
  14.0117311  61.0958672  11.5788400  13.1965673  61.2021208  12.0691967
  13.8595319  61.5626431  10.7571435   9.9222064  48.2691050  32.5933194
   9.0801191  47.8147554  32.6194882  10.5406404  47.6094151  32.2793460
  55.3028011  69.3050289  29.8423266  55.7164288  68.6683750  29.2593908
  54.3662310  69.2200184  29.6639085  14.4128466  38.0664015  17.7591538
  14.3659449  38.9962459  17.9814637  14.8924327  38.0420017  16.9311237
  16.5714896  23.8024235  19.0027952  15.9094787  24.3862963  18.6325717
  16.8269682  24.2207575  19.8249614  20.7748628  25.4083180  23.7788796
  20.0007582  25.7529402  24.2241120  21.4731145  26.0240984  24.0013456
   3.4048945  66.3692188   5.4749846   2.8664735  65.6968784   5.0575042
   4.1770381  66.4403439   4.9137655  11.1528301  59.2918968  32.9499531
  11.1693347  60.0000143  32.3061156  11.5917730  59.6566105  33.7184215
  41.7687368  65.4250383  15.0015211  42.2967005  65.5596495  15.7885218
  41.2605143  64.6352196  15.1862454  17.3366032   8.9716770  40.4215860
  16.6319523   8.5260631  39.9513388  18.0735568   8.3620788  40.3824663
   3.1803983  62.3593521  38.4665394   4.0292200  62.7884340  38.3587432
   2.8551391  62.2441816  37.5736928   7.4686813   9.5643157  30.1956654
   8.2100642  10.0333560  30.5785275   7.3034543   8.8420326  30.8016682
  27.5079656  72.6055431  46.8443155  27.0201516  72.0337725  46.2515688
  27.9878640  72.0054007  47.4150610   2.9244804  41.8196678  49.4473886
   3.7504131  41.3400126  49.3841696   2.4852568  41.4409637  50.2088976
   4.6581545  52.0539284  46.2500238   4.6015742  52.7767706  46.8749475
   4.8817226  52.4728155  45.4188871  49.2125507  73.1286975  50.8843184
  48.9739271  74.0437504  51.0325277  49.0017935  72.6897189  51.7084003
   9.8187387  42.4639273  16.7224538   9.5501590  41.6594315  17.1661663
   9.0073550  42.9600859  16.6142225   9.9686486  64.5663166  22.1589923
   9.1423732  64.1460943  22.3975635  10.6354165  64.0707874  22.6344919
  37.0229101  56.5253162   8.1903505  36.3053894  56.1895847   7.6530606
  36.5934825  56.8804169   8.9686352  51.3342606  11.6077593  -0.1131284
  51.0799727  12.5108603  -0.3028143  51.0395610  11.4596537   0.7854521
  37.3939303   6.6734363  28.3069110  37.8432600   6.4561893  27.4901271
  36.9778542   7.5179721  28.1340766  49.9972633  22.7929592   0.3477742
  49.3769792  22.1574783   0.7050467  50.2086572  23.3630276   1.0870752
  15.6920350  72.7473211  54.7157049  15.4756355  72.7939939  55.6469584
  16.4930069  73.2643175  54.6297359  71.6445617   5.5038120  43.2874298
  72.2006921   5.6082012  44.0594721  71.8359546   6.2715866  42.7487946
   8.5450286  49.5021105  27.7499151   7.9781592  49.0212393  28.3529544
   9.4073445  49.1017580  27.8610873  66.2073100  73.8866112  21.5148354
  67.0212924  74.1076088  21.9674110  65.5565476  74.4808222  21.8885374
  17.7350354  72.7501392  15.5200469  17.8713131  73.2962275  14.7458053
  16.8407309  72.9478407  15.7981920  70.1253483  48.0590820   4.5671168
  69.5024041  47.8553724   5.2647388  70.8345548  48.5266399   5.0083017
  17.5459061   2.5165988  22.1050501  17.1531240   3.0772878  21.4360356
  18.0148915   1.8451358  21.6096497  18.4618433  63.1939694  53.9980853
  18.6596133  62.8814479  53.1152201  19.3118491  63.2252070  54.4371140
   6.5623987  54.1786003  27.4212360   6.6000050  54.9750900  27.9507852
   7.2992879  54.2586422  26.8155789  72.3006383  54.1344738  11.5312028
  72.9783872  53.6003494  11.9454515  72.2050861  53.7624645  10.6544399
  23.2164693  39.4315100  26.1092472  22.2931480  39.2094040  25.9893227
  23.4153962  39.1539407  27.0034599  15.9740353  13.4924746  15.3560448
  16.5034187  13.2332671  16.1102319  16.2799132  12.9304075  14.6441805
  19.0578923  17.1215488  24.0762687  18.5377381  16.4591648  23.6213756
  18.4130970  17.6545860  24.5413923  69.3349943  31.4786077  15.8032203
  68.7438349  32.0449042  16.2992728  69.5632008  30.7773972  16.4135158
  25.6295991  29.7559357  16.9887865  26.4466453  30.1045656  17.3453307
  25.3558850  30.4038191  16.3395095  77.9106633  69.7789955  14.2947316
  77.9652990  69.6056843  15.2345240  77.6399625  70.6952047  14.2354822
  61.1621920  66.5462732  55.1819944  60.9272579  65.9241343  55.8704567
  61.1553267  66.0273314  54.3776989   6.4819181  47.2072792  18.8639987
   6.8428314  48.0595160  18.6197424   5.9292102  47.3900986  19.6238148
  29.8067749  22.8952075  33.2977104  30.2690581  22.5537826  34.0631866
  29.5421747  23.7791873  33.5522842  57.3085073  17.1959829  10.6499565
  57.4560312  16.2508035  10.6831789  57.1210865  17.4411368  11.5560508
  74.1463349  48.8310909  16.9017577  73.3031467  48.3804560  16.8549037
  74.6872280  48.2699871  17.4574828  27.5692964  21.9643426  53.2681799
  28.1401181  22.6488185  52.9190540  27.8375220  21.1700726  52.8062010
  37.2937536  33.1216216  13.5284579  37.2369504  33.3367848  14.4594300
  38.2327890  33.1029129  13.3438170  20.5252624  63.2978535  12.5521338
  20.0122738  62.5362158  12.2819912  21.3658190  63.1906271  12.1069360
  68.1924085  47.5128269   6.2582397  67.4822477  46.8786907   6.3571131
  68.6282781  47.5191021   7.1104193  74.8100877  33.4478591  49.2318166
  73.9759803  32.9844306  49.1560936  74.5719290  34.3747113  49.2104638
  65.1227224   5.5601333  62.2945772  64.1742694   5.4436181  62.2389642
  65.2383375   6.4872048  62.5029032  12.5479106   0.8999111  12.3890197
  13.0469851   0.8849527  13.2056785  12.0695416   0.0708248  12.3854434
  75.3565192   1.5246318  54.4306255  76.2389994   1.2260936  54.6504808
  74.7774506   0.9472726  54.9281889  11.9979111   7.6971675  11.9474137
  12.2052888   8.6199619  11.8001521  12.6142482   7.2213699  11.3906598
  28.9639258  39.0039921  31.4347625  29.7107220  39.2549777  30.8911324
  29.0005469  39.6007252  32.1822929  28.7310100  17.4319172  49.3535852
  28.4306455  18.1962013  48.8617706  29.6107221  17.2611821  49.0171480
  69.1641466  59.4335604  61.7229700  68.2128600  59.3336201  61.6869450
  69.3572859  60.1194954  61.0838890   5.0519812  38.9644051  18.1538570
   5.6669146  39.1297793  18.8685191   5.1492238  38.0309963  17.9653788
   4.4552028  49.9241161  27.0114827   3.6778963  50.4805422  26.9623446
   5.1898021  50.5377579  27.0053864  47.6657680   3.4252597   1.3060546
  48.4256391   3.2554676   0.7492788  47.1601848   4.0822078   0.8274727
  12.9387856  66.6657829   8.5152555  13.5068548  66.2659883   9.1738093
  12.1371567  66.8835926   8.9908415  36.9405460  49.0308428  15.8892608
  36.9539809  49.9879265  15.8956802  37.2564912  48.7810421  16.7575991
  12.3652792  46.2833738  23.1627011  12.7200484  46.9798374  22.6101542
  11.9488478  46.7441607  23.8910484   5.1055461  71.5925026  31.3413501
   5.0075978  72.4296570  31.7950106   6.0457456  71.5169477  31.1784172
  64.2477524   0.7562802  64.0571628  65.2013779   0.8248685  64.1032751
  63.9302134   1.4094995  64.6806252  69.1097963  15.9543059  54.4686771
  68.7807512  16.8409608  54.3210018  68.5393417  15.3960393  53.9403284
  73.5747448  27.5747395  34.3160439  73.3074132  28.1414890  35.0396204
  73.6034159  26.6971564  34.6971703  58.3838705  23.2564926   0.1327805
  58.4856466  22.3058987   0.0853583  57.4376396  23.3941722   0.1766359
  68.7989215  54.2270041  47.2567892  68.3226410  53.4561300  46.9483376
  69.7206513  53.9726973  47.2123671  47.7567764  62.4126526  60.0356466
  48.3352967  63.1491109  59.8377216  47.5315567  62.5264212  60.9589908
  60.8866449  73.2308694  60.2726603  61.7479630  73.2012221  59.8561445
  60.3518768  72.6243683  59.7604007  12.8805184  61.1835909  38.8341713
  13.6170769  61.7229223  38.5463595  13.1134379  60.2956676  38.5629320
  21.6050506  17.7118766  17.2126842  22.2701955  17.3577130  16.6224444
  22.0405364  18.4408760  17.6544333  49.7194910  33.9615488   9.5162469
  48.9993811  34.5684528   9.3449563  49.7069407  33.8367319  10.4651904
  68.1412271  64.0354633  52.7167034  67.2199909  64.1701078  52.9390287
  68.6161438  64.2616892  53.5163975  52.3568388  65.1489588  58.4954971
  52.6137396  64.2593762  58.2528556  51.5418549  65.3017542  58.0172837
  18.3563173  55.7839441   3.2780313  18.8912010  56.4140368   3.7608537
  17.5067747  56.2144995   3.1824642  59.3799311  21.3589833  59.7937879
  59.8109239  20.9620212  59.0368849  58.5074949  21.5930913  59.4771219
  27.7583075  32.4047995  32.9157519  27.4240589  31.8481302  33.6190486
  27.1635628  32.2473168  32.1824646  26.3144612  40.7810259   8.6115640
  26.2802601  41.7183161   8.4203875  26.7265606  40.3939247   7.8391927
  14.1010320  71.3784361  27.7439642  13.9540553  70.4333258  27.7812505
  15.0341070  71.4832497  27.9300237  72.6546744  23.3341908  34.0837860
  73.0262432  22.7557826  33.4177423  71.7608521  23.0145764  34.2069173
  55.0242600  42.9915927  59.1249079  55.4774284  43.5074828  59.7917870
  54.1221349  43.3108161  59.1472042  78.3945036  27.1272061  56.7495686
  79.1811705  27.6592849  56.8690843  77.7484918  27.7330230  56.3864023
  51.6274912  48.7053421  16.6123831  51.2664403  49.4484833  17.0957243
  52.5032761  48.5838345  16.9790804  17.0233130  60.2464867  29.9678540
  17.4560857  61.0462046  29.6688676  17.3095691  59.5738649  29.3498945
  28.7256074  19.9838183  34.2222369  28.9678645  20.9071849  34.1519678
  28.0844760  19.8506091  33.5240734   4.6969983  72.0568895  14.8968065
   4.6967205  71.1109734  14.7502685   3.7743026  72.3069859  14.8486757
  62.5972608  67.3044825  31.3476682  62.1838144  68.0667686  30.9424400
  61.8698601  66.7149401  31.5465689  32.9426765  34.6507931  25.2113962
  33.1552362  33.7239552  25.3210402  31.9894528  34.6694684  25.1262593
  31.8681911   1.6761114  40.1106310  32.5132332   1.4040138  40.7634020
  31.0238827   1.4423610  40.4962921  78.9677429  24.6325706  56.3745511
  79.3089652  24.1752217  57.1430779  78.8336921  25.5326531  56.6713912
  13.6681608  45.0885631  40.7595301  13.9522413  44.1767456  40.8237982
  14.1469590  45.4361297  40.0070810  29.8978639  51.7610979  19.4739819
  29.9783015  51.7266512  18.5207891  28.9636159  51.8983889  19.6307015
  35.0615978  43.4217501  35.3123164  34.6061039  44.1161776  34.8363686
  34.8061132  42.6160908  34.8630214   1.9751956  46.4631510  16.3297355
   1.7318697  47.2560978  15.8519685   2.4162847  46.7834520  17.1165514
  29.3425345  51.2163925  23.4382844  29.2305851  50.4575777  22.8656626
  28.5067415  51.6801834  23.3874607  31.7327595  65.2154398  41.4442158
  31.2792873  66.0303879  41.2286854  32.3215723  65.4513502  42.1610689
  12.0757866  22.9926229   2.2036718  13.0060291  23.1450105   2.3699738
  11.8348217  23.6601162   1.5613180  43.7683038  16.9587375  44.0340519
  43.8083176  17.8623630  44.3472385  42.9403953  16.9072296  43.5564089
   0.3073467  60.9438610  19.0246904  -0.0785142  61.4857054  18.3363986
  -0.1011009  60.0856590  18.9111507  64.2057828  49.1828823  21.5530872
  64.7059635  49.8541355  21.0889030  64.2935470  49.4152021  22.4775100
  22.6146483  63.6025953   1.2627931  22.6267505  63.0086660   2.0133497
  21.7610455  64.0329504   1.3116534  33.8280082  50.0900316  36.2078333
  33.5444736  50.9980440  36.1012769  33.4197187  49.8060274  37.0256782
  26.8478155  63.5172796  19.5904207  26.1503077  62.8905058  19.3984020
  27.6570177  63.0278730  19.4424331  75.7568771  51.7685032  19.8476398
  75.5511276  51.9750261  18.9359128  76.6982723  51.5952778  19.8474133
  34.7360754  31.5466523  16.3449860  35.4485631  31.9823599  15.8772802
  35.0906420  31.3776803  17.2178912  74.8705856  53.9365864  43.9328432
  75.5212981  53.7775421  43.2490969  75.3280429  53.7376356  44.7497797
  79.1412749  64.2476463  53.7109852  78.4377845  63.9331961  53.1431389
  79.7851720  63.5393953  53.7092209  25.5498004  68.4810444  56.9881284
  24.8224439  68.5459324  56.3692791  25.1376190  68.2402250  57.8177935
  30.0003672  67.8121042   3.1423932  30.2501893  67.7851915   2.2187616
  29.1821122  68.3086348   3.1548187  36.0636067  33.4916997  21.5523648
  35.9576750  32.7330852  22.1263957  36.9315505  33.3793640  21.1646914
  73.0567423  61.3008547  22.6966286  73.2764927  60.9552431  23.5617876
  73.9017508  61.4087677  22.2601128  11.4586806  56.2279081  19.0836084
  10.8471715  56.6981459  19.6503258  10.9004796  55.6829834  18.5288990
  28.8741255  58.7488937  28.7302947  29.7523308  58.5141277  28.4305024
  28.2900929  58.1775570  28.2315850  44.8264885  18.5855506  49.2226827
  44.4886792  19.4692634  49.0771950  45.5949211  18.5264085  48.6550164
  46.9591475  66.8583488  17.2558439  47.8908825  67.0672083  17.1889102
  46.5153551  67.6939631  17.1108067  20.2087990   7.6359893  35.1785660
  21.1079148   7.8387882  34.9203110  20.2887920   6.8636276  35.7382798
  37.9143381  73.7421560  18.5883915  38.6397433  73.1243944  18.6799824
  38.3270025  74.5542526  18.2943797  17.2167561  13.3456661  17.9891431
  17.6196001  12.5775386  18.3940303  17.7867106  14.0736629  18.2369375
  49.7455887   6.0997249  30.6345105  49.1799454   5.6914379  29.9790812
  49.9332861   6.9691230  30.2807426  15.3624030  40.1415704  63.4433259
  14.4851943  39.9258063  63.7598512  15.8772489  39.3514512  63.6072514
   3.4625942  45.5810022  37.4865460   3.6202073  45.6113148  38.4301949
   3.9394283  44.8062563  37.1888375   6.5062070  69.8390388  10.2753186
   5.7254785  70.2561998  10.6395602   7.1877521  69.9939489  10.9293294
  19.3143225  40.3044033  22.1984410  19.5260203  39.5100951  22.6888394
  19.2494595  40.0140524  21.2886500  39.8409390  24.6974729  60.8170825
  39.2084861  25.2728675  60.3867805  39.3942082  23.8530610  60.8773396
  10.8846855  71.2937164   2.9510790  10.4492056  70.9450865   2.1732321
  11.3453567  70.5424118   3.3246446  37.7353978  61.0587215  28.1263328
  37.3038721  60.2654552  27.8089166  37.8612232  60.9046268  29.0626335
  52.8848437   3.3129169  23.9097524  53.0575923   2.4586584  23.5139799
  53.1724838   3.2187463  24.8178411  31.5872765  68.7821293  46.2488794
  30.6760311  68.9970446  46.0496902  31.7305398  67.9338503  45.8292007
  33.8773284  29.0137817  17.7909899  33.1108800  29.5801689  17.8803968
  33.7423078  28.3237602  18.4405088  56.5171051  49.8234224  16.1285996
  56.2548399  49.2420149  15.4148674  56.2634230  50.6971884  15.8312583
  30.7358980  40.6645536  30.3916478  30.9199977  41.1317587  29.5767498
  30.5580401  41.3559961  31.0292268  65.3696028  61.5988398   3.4431794
  65.6288329  61.0678434   4.1962236  65.4722432  61.0149431   2.6916751
  67.6688544  69.5266771  40.4755783  67.9172078  68.6044073  40.5385780
  67.5232140  69.6721888  39.5407796   7.7405170   0.1794149   9.3855029
   8.6162213   0.3042509   9.0197289   7.1541003   0.5846168   8.7466294
  74.5974071  57.0753527  17.8112710  74.6340726  56.6846943  16.9381881
  75.0407845  57.9182339  17.7153361   1.4161944  69.9825811  33.1187534
   2.2843298  70.3748083  33.2121730   0.9970758  70.1235199  33.9676976
  39.8361397  68.5764217  34.5309401  39.3423772  69.3410683  34.2347193
  39.9390435  68.7081623  35.4734302  49.8960525  10.2753995  57.9019112
  49.1878936  10.4995082  57.2981578  50.1229727   9.3722890  57.6802492
  44.3130068  65.8855963  29.0482664  43.5842446  65.2846861  29.2033243
  43.9106540  66.6474771  28.6312723  21.5384984  54.1059971  28.8755703
  21.1312985  54.4675064  29.6627998  20.8025312  53.8892317  28.3032084
   2.2643130  18.3462822  41.9541836   3.0509639  18.8262892  42.2130394
   1.7983231  18.1894517  42.7754593  25.9910989  48.3692265  29.0723062
  25.8182216  49.0047073  29.7669363  26.8964052  48.5392475  28.8120270
  67.6557855  42.3217678  22.9174495  67.4960140  42.8438377  23.7036753
  67.7048568  42.9639959  22.2093749  24.9477029  52.7311325   5.5989325
  24.6156240  51.8338060   5.5712545  25.8127308  52.6790380   5.1924294
  60.9666741  44.8202727  61.4160320  60.7679790  44.6506808  62.3368961
  60.5935138  44.0727733  60.9488884  49.6032337  65.1315832   8.3603185
  50.1132587  65.0474930   7.5546908  49.4996003  64.2328787   8.6730874
  25.8253455  58.7299585   2.5349745  25.6481361  58.0318260   1.9045502
  26.4688587  59.2886305   2.0990717  14.5348426  11.9070314  47.2007191
  14.9893924  11.0701154  47.1048784  13.6773797  11.6744636  47.5569487
  65.8414725  21.6395736  43.7313032  66.5639750  21.6844106  43.1050348
  65.4308728  22.5030231  43.6855030   0.1982519  52.1450043  12.1806359
   1.1240055  52.2698164  12.3895252   0.0673914  52.6362085  11.3695705
  55.9801153   5.1435281  38.9352942  56.4384083   5.9812786  39.0014720
  55.1676325   5.2757503  39.4237804   0.8745115  60.8668232  33.1757665
   0.0469946  60.5756378  32.7928042   0.9865429  60.3164148  33.9508343
  27.8909942  18.7549184  63.2854073  28.0330249  19.1527532  64.1443520
  28.5420199  19.1691325  62.7189942  35.5607963  68.9249372  10.8365703
  35.9805965  69.3558788  11.5810788  35.5563021  67.9963160  11.0686767
  20.7416153  20.9034252  23.5989881  20.4155874  20.1223588  23.1519175
  19.9564826  21.4187288  23.7840843   0.1906815   6.2544262   7.9987067
   0.8776343   6.4917082   8.6216229  -0.3096761   5.5700660   8.4431452
  60.9472036  51.5341282  29.6362758  60.1498938  51.4104605  29.1212654
  60.6376028  51.8519354  30.4844356  28.6613584   6.7668201   9.7916257
  27.8456605   6.6553832   9.3033111  29.3187551   6.3094284   9.2673606
  53.3117115  38.0510972  59.3642497  54.0047991  37.4509452  59.6393475
  53.5880091  38.3560393  58.5000146  30.9004899   7.2545264  54.2369533
  31.7615100   7.4435876  53.8639462  30.8344432   7.8364537  54.9940735
  28.9148307  34.7092581  34.0512371  27.9792404  34.8816466  34.1569877
  28.9532185  33.9087749  33.5278010  76.4241648  63.1074381  32.2982121
  76.6003773  62.9850674  31.3653636  75.8025084  62.4134254  32.5175858
  35.6433558  57.1032953  24.2683625  36.5484190  57.3816013  24.1282272
  35.7107568  56.1770105  24.5000672  28.4045482  68.3417082  17.3590040
  28.8615680  68.7237167  16.6097128  28.0571604  67.5125265  17.0303524
  71.7857716  53.4901094  27.1635509  72.0644394  54.1125822  26.4919066
  71.8326250  53.9840603  27.9821181   7.8024846  49.1723776  14.1204619
   8.0937397  49.8293018  13.4881258   7.4368560  48.4690428  13.5839283
   4.1841179  30.7087588  25.6394315   3.7659699  29.9643731  26.0721827
   4.8406348  31.0124111  26.2663388  39.6598458  59.2632198  31.2539721
  40.3669643  59.3646431  31.8910980  39.5534515  60.1350594  30.8734322
  31.5103865  49.6846581  20.2272630  30.9330058  50.3955841  19.9489653
  32.0276189  50.0610018  20.9393501  24.4435978  58.3359718  16.9817793
  23.6419988  58.6050797  17.4303901  24.1717434  57.6097298  16.4206183
  17.4356556  65.9802055   4.1247120  17.3816490  66.3370085   3.2381424
  17.2730935  66.7312384   4.6954638  24.8264599  43.1045437   4.0807253
  24.8221612  43.8879871   4.6306586  24.1946721  42.5172186   4.4956085
  46.4420176  67.8029299  29.5561767  46.5819836  68.5886049  29.0276361
  45.5029297  67.6313353  29.4861865  25.7542058  18.4699414  60.1797155
  25.6489106  18.2131885  61.0958058  26.6628762  18.2515548  59.9726898
  66.5064764  46.2917159  43.0893815  67.2237539  46.3626311  43.7192357
  66.2129760  45.3835128  43.1618870   3.1466183  43.9979982   3.7152082
   2.5017011  44.2235136   4.3856239   3.7500986  44.7409105   3.7038699
  26.0062766   6.6490795   8.8835323  25.5418897   5.9894992   9.3988222
  25.3426719   7.3103000   8.6869490  29.8573228   4.4483016  56.1626429
  30.0291987   3.6342357  56.6359145  28.9080306   4.5596145  56.2144345
  57.9183960  70.8218622  34.1602087  57.4026346  71.5822601  34.4285750
  57.6264763  70.6374407  33.2674575  49.4829178  71.1944294  11.4072943
  49.8090029  71.8993044  10.8477879  48.8790751  70.7050610  10.8486104
  64.2285470   4.5005609   8.8800633  65.1221899   4.4901611   9.2228794
  64.1463713   3.6762382   8.4005111  21.3102313  64.5429729  64.0681632
  20.7990714  64.0495799  64.7096535  21.0427924  64.1844295  63.2219038
  59.6036291  67.8829336   9.6556687  58.8128090  67.3476267   9.5902467
  59.3982601  68.5324240  10.3281379   9.2800637  47.8919337  52.4002457
   8.3728977  48.1225513  52.6004768   9.7033330  48.7288688  52.2089291
  73.6191491   4.7818281   5.8274776  72.7345780   4.4501306   5.9815735
  74.0118484   4.1472579   5.2280247  22.5630397  20.2424289  19.3276083
  22.8690071  21.1267902  19.1263187  21.7242555  20.3739978  19.7696078
  66.4252595  19.0488006  10.5068648  66.5361766  19.9638511  10.2487671
  67.1103505  18.5806228  10.0296962  49.3091679  24.7033477  14.4000840
  49.8556232  25.3615189  14.8295367  49.0688419  24.0972733  15.1009023
  59.3205968  42.8186035  11.0135567  59.3306021  43.7418842  10.7612026
  59.2194561  42.8315258  11.9653106  20.7723141  43.1807756  19.5197487
  21.1438680  43.2999182  20.3938103  20.9102964  44.0218735  19.0841496
  66.0732392  42.7595711  17.4872899  65.5480889  41.9820166  17.6766694
  66.7731789  42.4426508  16.9164324  31.3750291  10.0199783  14.5522368
  31.8136835   9.1916317  14.7462833  30.7283330   9.7974080  13.8825512
  40.9843564  14.2595838  44.3496311  41.5546405  14.7288631  43.7407100
  40.2334332  14.8406909  44.4707048  44.8398527  72.5477335  63.1758601
  45.5065092  72.9077431  62.5908859  45.3332075  72.0265791  63.8092876
  33.9425663  65.6962158  12.3550713  33.0843500  66.1011292  12.4805367
  34.0793160  65.7133557  11.4078486  69.3790519   5.1724361  58.9383632
  68.5062182   5.0802682  59.3203300  69.8625541   4.4112275  59.2593324
  72.4531058  39.3470407  33.3646846  72.9001150  40.1483345  33.0920291
  71.7870293  39.6435428  33.9848971  27.1113491  24.7704220  28.5897160
  27.5219822  23.9950895  28.9724302  26.4985681  25.0725079  29.2601466
  32.6333185  74.5529148  62.8840406  33.1315424  73.7603828  62.6842948
  31.9143458  74.5494720  62.2521398  77.3610830  11.4652894  57.4886334
  77.3435068  11.4632438  58.4456700  78.2919335  11.4495824  57.2661418
  71.1312099  74.2156717  64.1339695  71.0777183  74.4832441  63.2164859
  71.9202705  74.6459409  64.4633313  24.2498728  63.5703727  62.7790350
  25.1166538  63.2634613  62.5130877  23.6408188  62.9708954  62.3478614
  33.0001235   7.6489804  59.2006797  32.5576901   7.1779225  58.4945739
  32.3060799   8.1559203  59.6220443  53.5536083  65.5048375   4.6969044
  53.0845515  66.2779312   5.0108206  52.9804950  65.1327472   4.0265897
  64.7965816  41.1552286  46.7671537  64.5569006  40.8970594  47.6571703
  65.1152364  42.0534563  46.8559265  78.4759236  67.8158188  58.8644218
  77.6275859  67.4237061  59.0713120  78.9241374  67.1533537  58.3386087
  17.8636587  34.4960213  32.9450965  18.3131969  33.7436509  32.5602746
  17.0584023  34.1316509  33.3125567  29.7395015  29.4224453  11.7765200
  28.8491702  29.6214199  11.4867723  29.8924208  30.0201750  12.5083447
   9.9783188  39.8345399  29.1615486   9.4780296  40.3542423  29.7907138
   9.5769942  38.9661908  29.1953158  26.1110091  21.1071920  11.2292194
  25.2648377  21.4436746  10.9342504  26.7543888  21.6889739  10.8244705
  49.5235749  68.4964463  45.9075368  49.2691751  69.0249321  46.6639865
  50.3034731  68.9314076  45.5628658  77.0878219   7.7879737  55.6808722
  76.2356067   7.3522637  55.6917972  77.6530433   7.2218011  56.2064237
  58.9331798   1.9014980  14.4796264  59.8861650   1.8872978  14.3910253
  58.7711672   1.5987636  15.3731215  61.7141068  25.8194278  56.0878122
  60.9186751  25.4763101  55.6806404  61.8155861  26.6950677  55.7147283
  69.7446070  55.7588577  17.7762330  70.4476068  55.1796007  18.0703139
  70.1772455  56.5970373  17.6134062  79.0454912  71.4792156   8.1369352
  79.1081333  72.2752523   7.6090747  78.2085276  71.0895109   7.8842378
  66.0290114  21.6413260   9.5313543  66.9279913  21.7624640   9.2257524
  65.4964117  22.1417570   8.9131808   6.8576914  29.9106145  21.7613697
   7.3746747  29.1616201  22.0579600   7.0541805  30.6024528  22.3930216
  14.9843240   6.2854439   5.7433337  15.0464797   6.5258455   6.6677666
  15.8630860   5.9822714   5.5150884  47.4296661  72.9955145  58.0628693
  48.0920835  72.3081872  58.1336898  47.3265024  73.3217546  58.9568252
  39.3009639  13.5228847  64.2675207  38.4167373  13.3299182  63.9558506
  39.4920683  14.3945525  63.9212509  21.6102123  31.8926334  24.4470859
  20.9285378  32.4513745  24.0737748  21.1673856  31.0638285  24.6293402
  34.8369765  22.3756003   0.5984220  34.2743802  21.6163826   0.4457559
  35.6979227  22.0018172   0.7862753   9.5426881  44.0238523   1.8859668
   9.1629076  44.6470785   2.5053111   9.9076223  43.3311510   2.4366204
  52.4959414  34.7631000  57.4240202  52.2677594  33.8357995  57.4894661
  53.2760771  34.7792361  56.8696201  36.6576290  29.5730042  24.6436954
  36.1833692  29.8453569  25.4292727  37.0337844  28.7233448  24.8735166
  34.1220188  71.1559677   5.3411961  34.3201041  70.2195358   5.3314549
  34.3286324  71.4352179   6.2331378   4.6999288  10.2484739  30.1772499
   4.6448550   9.4264740  30.6646061   5.6363839  10.4434156  30.1414561
   0.2727202  29.3260622  18.9190614   0.7456452  29.9589109  18.3786213
   0.1527848  29.7702336  19.7584414  73.0810330  41.7103338  24.9081349
  73.0837671  41.7690277  23.9527416  72.5507370  40.9366608  25.0990510
  67.6884190  52.1178198  51.7065287  68.3258823  51.5900183  51.2255955
  68.0545560  53.0021858  51.6979837  74.0313248  38.9076591  44.7578096
  73.5936169  39.3213868  44.0138531  73.9424679  37.9684401  44.5959377
  76.5346024  58.5888147  -0.0045924  76.7960393  59.3750286   0.4747329
  76.7054439  57.8696442   0.6035485  20.3450622  74.3762228  63.7967982
  21.2976821  74.4683835  63.8127143  20.1972403  73.4424254  63.6471193
  54.1666985  51.2712145  12.6428449  53.3368111  50.8028126  12.5527704
  53.9880514  51.9525433  13.2910013  20.8351078  58.8860723  55.0738776
  20.5260404  58.9100095  55.9794909  20.1972278  58.3373591  54.6175295
   4.9565652  41.5647840  17.4156106   4.4348791  41.9868374  18.0982113
   5.0675935  40.6645107  17.7212465  37.2078252  12.1949780  13.6588752
  37.2922516  13.1341255  13.8235128  36.3759303  11.9541788  14.0665472
  49.7030548  29.0079929  12.1788704  48.8831405  29.4861556  12.3027003
  49.4657353  28.0891658  12.3040617  26.3120103  72.5253582  26.8139267
  25.4066682  72.6753712  27.0861077  26.5628242  73.3309507  26.3618827
  12.6562846  40.0336742  13.5934055  12.4019659  40.6110287  12.8735352
  12.5911915  40.5824232  14.3749881  62.5950090  43.0805397  20.4934144
  63.2081798  43.7425232  20.1739860  61.9904069  43.5653400  21.0552502
  23.1782647   3.0796693  42.0999348  23.9770480   2.5718401  42.2423446
  22.8427955   3.2502626  42.9800427  16.4344525  27.3700857  11.0932028
  16.5163887  26.4857960  10.7360613  17.1566832  27.8567076  10.6959450
   8.4894484  27.7053952  33.3703351   8.8046622  27.0431232  32.7552986
   8.4053302  27.2391343  34.2020535  74.6488372   2.7248198  33.7072039
  74.1201398   3.4357709  34.0695024  74.8189370   2.1489672  34.4526529
  65.8004264  51.5174770  20.1160288  65.8014206  52.4487782  20.3371787
  66.6458920  51.1960268  20.4292250  26.4527988  39.9835539   5.8321631
  26.5536451  40.2961111   4.9330688  25.5215049  39.7768259   5.9108293
  72.1015648  65.1117039  42.4975348  72.2731564  64.1740084  42.5841951
  71.6925571  65.2018070  41.6368198  39.7866869  38.7815809   9.8729146
  40.4590559  38.4725165   9.2657661  40.2768183  39.1030812  10.6296444
  48.3665708  11.9152186  21.9035423  48.3332080  11.9137881  20.9469259
  48.6881220  11.0434077  22.1332872  32.2871733  17.6218641  11.1196852
  31.9283986  17.5830030  12.0062518  32.5614882  18.5325742  11.0120213
  60.2739207  73.3148718  11.6077662  60.4305700  73.7438536  10.7665372
  59.3301085  73.1561232  11.6235912  47.8256723  50.4237769  63.0275011
  46.9044417  50.2185176  62.8680176  47.8871673  51.3694404  62.8927103
  18.0226765   8.0897094   6.5545231  17.3929814   7.3885776   6.3868141
  17.6347099   8.5940887   7.2695845  32.8820944  13.9948165  52.9046822
  32.8951645  13.7845516  51.9709492  31.9773269  13.8354397  53.1734371
  57.5393657  28.0738544   0.8435946  58.4096102  28.3872557   0.5972517
  57.4134234  27.2815895   0.3214024   5.0589228  25.4471684   9.1996807
   5.6548095  26.0130119   9.6905708   4.9090502  25.9133506   8.3772182
  59.5872926  60.7976815  49.4342709  60.2374077  61.0716840  48.7873531
  60.0853061  60.2877018  50.0731290  77.2698689  67.4540997   7.5604326
  78.2135209  67.4756193   7.7194601  76.8989394  68.0116272   8.2443947
  57.8006714   4.0199254  58.2864946  58.6061716   3.7662433  57.8358865
  57.8183061   4.9769614  58.2880122  77.9453325  73.2221618  11.1675024
  77.5417256  73.6231336  11.9372797  78.8691139  73.1315041  11.4012504
  23.6869359  35.6813645  20.9976602  23.6809206  34.9213028  20.4158521
  22.9320598  35.5498457  21.5713286  20.4890251  41.0049534  14.2766035
  21.3733554  40.9718609  13.9117813  20.2515483  40.0877047  14.4125807
   6.6592997  54.9698830  12.9988170   6.9146770  55.8351040  12.6788092
   5.7916790  55.1022863  13.3808327  15.0147780  62.4430224  57.2514123
  15.3550704  62.1843669  56.3949490  15.2738472  61.7314765  57.8369189
  23.9994117  22.5256322  58.0491877  23.8718339  22.4516604  57.1034158
  24.6440383  21.8494008  58.2575244   2.6228257  32.0248864  56.3568896
   2.1830936  32.2268699  55.5310136   3.5530849  32.1511434  56.1700535
  75.0497092  67.6663494  33.0166435  75.9173537  67.9559231  32.7345610
  74.7853387  67.0246220  32.3574567  34.0075064  31.0358357   7.0247728
  33.9492059  30.1238966   6.7398208  34.6720982  31.0295057   7.7136201
  61.5329933  62.6308727   6.4850974  61.0345936  62.7091217   7.2985506
  62.0684004  63.4237528   6.4550352   3.8281178  61.9330168  26.8377495
   3.2612765  62.6157236  27.1966791   3.5195753  61.1252213  27.2482324
  58.2655982  26.5680599  34.7946644  57.8829650  26.3480926  33.9452887
  58.1846098  27.5199437  34.8545527  10.7562061   7.4133180  49.9221957
  11.1116167   6.6797803  50.4240299  11.0552593   8.1919883  50.3917456
   4.5229908  14.9402068  63.1485719   4.3611380  14.0750430  63.5247749
   5.3761455  15.1975558  63.4980459  15.6568253  24.3939900   8.0737823
  15.6385672  23.4836578   8.3690679  16.3262868  24.8088622   8.6177802
  42.4162531  50.7868481  11.8752313  41.7707682  51.4795351  12.0158422
  43.1817675  51.0674191  12.3767269  54.4855781  70.6249596  19.9127018
  53.6570415  71.0488661  20.1364470  54.7916397  71.0925256  19.1355658
  13.0075550  40.4331112  22.9164648  13.8653314  40.8139944  22.7283692
  12.5240469  41.1351299  23.3519197  22.5505233   7.1748412   1.6117397
  22.0194483   7.0200443   0.8305690  22.0742202   7.8497815   2.0952906
  32.4617839  35.5963516   6.7062885  32.9946256  35.6710553   7.4979520
  31.5643644  35.7387233   7.0072842  41.3649130  59.0786028  14.7821248
  42.0235062  59.7710514  14.7273731  41.3405895  58.7011242  13.9028370
  66.1702438  65.4922220  60.2513889  65.5997582  65.9055921  60.8993876
  66.2090345  66.1209413  59.5306683  15.9700767   8.5655929   3.4052682
  15.4952196   8.5936595   2.5746334  16.6498796   7.9053737   3.2703409
  22.8133655  50.9871864  10.2779722  22.3987532  51.3729763  11.0496557
  23.2646418  51.7191172   9.8574275  27.0516086  28.8457036  14.0267062
  26.6080928  27.9978347  14.0013516  27.9784369  28.6346483  13.9141095
  64.9079183  32.9851031  37.7008557  64.2902926  33.5544682  37.2419500
  64.3620113  32.2972274  38.0817056   9.4068879  33.5365319   0.9719385
   9.6195102  34.4540715   0.8012177   9.0961939  33.2021189   0.1305887
  19.0055680  38.4736133  14.7120833  18.9612734  37.5174809  14.7211754
  18.4977102  38.7295985  13.9421582  77.2895002   2.7356074  51.0433686
  76.8613744   3.5260175  51.3722968  76.6613293   2.0339916  51.2147367
  76.3985634   9.4866298  53.3274091  75.4521561   9.3488048  53.2880581
  76.5703583   9.7091268  54.2424023   7.9286834  23.8434814  51.1814022
   8.2699843  22.9515288  51.2459886   7.3551818  23.8255857  50.4152394
   9.0832774   1.2775899  11.5961206   8.4588329   1.1723997  10.8783209
   9.8127488   0.7024576  11.3651979  55.8467511  35.4933524  13.3239245
  56.6537384  35.0510120  13.0606115  56.1426357  36.2977839  13.7500405
  20.4280090  72.2481012  13.1349552  20.9888411  71.4951229  12.9486287
  19.5437264  71.9448471  12.9292524  34.3858385  66.8851423   1.5026082
  33.7339520  67.1236849   2.1616796  35.1532698  67.4132013   1.7226985
  65.5514431  35.6043577   7.7233475  66.2453747  35.0257182   7.4073309
  64.9865150  35.0367379   8.2476497   0.9615021  61.0229301  16.3225794
   0.4073075  60.5702639  15.6868184   1.7302845  60.4600143  16.4138412
  47.8585958  61.2819195  10.9157991  47.4842548  60.4010201  10.9048200
  48.8048458  61.1404228  10.8871543  11.4726961  19.9389029  49.3099165
  12.3298025  19.5127690  49.3070173  11.5206051  20.5781007  48.5990286
  79.2229484  33.1646299  35.2458549  78.4455282  32.9571700  34.7273850
  78.9396295  33.0611157  36.1542845  26.6199732  54.0367413   8.4891856
  26.4368939  54.9725199   8.4053338  26.9404650  53.7770510   7.6254278
  65.6054509  59.0581153  44.2644823  66.1750770  58.9550136  45.0267995
  65.8664882  58.3520911  43.6731947  15.8373559  27.8858566   0.3110766
  15.1184702  27.5545955   0.8493157  15.4054368  28.3480358  -0.4073022
  11.7404004  32.8064130  50.4110706  10.9100743  32.3364995  50.3338039
  12.1583196  32.6962731  49.5569957  79.0161061  30.6310342  21.3017500
  79.8558950  30.9558461  21.6265333  78.4153485  31.3680003  21.4122045
  23.3138156  63.1173897  11.8880332  24.0006948  62.6570892  12.3702693
  23.6089087  63.1019735  10.9775865  28.0033040  71.2477398  17.3089731
  28.5322118  70.6264544  17.8094649  27.0995855  70.9746647  17.4669504
  78.0966326  51.1834952  58.1811399  78.5373636  52.0242616  58.0582619
  77.1827551  51.4142439  58.3479184  77.6500491   1.6648628  31.5516281
  76.8274716   1.3497831  31.1770344  77.4736575   1.7378475  32.4896002
  45.6338644  46.8611622   3.1396070  46.0487938  47.0889568   3.9715797
  44.9962807  47.5594378   2.9908374  30.1357198  59.2231560  22.5013971
  31.0389829  59.5397425  22.4903345  30.2162600  58.2693577  22.5057030
  49.6388790  18.4771083  61.9101024  50.4928118  18.8227628  62.1700134
  49.2133981  19.2053388  61.4574677  75.4705275  45.2837181  15.5045140
  75.4273609  45.6859827  16.3720107  76.2827537  44.7773600  15.5154550
  43.7050811   0.6257392  18.3199561  44.1846374  -0.1247166  18.6707747
  43.1851510   0.2635910  17.6024926  15.0813317  64.2174625   3.6828709
  15.8519065  64.7823477   3.7407786  14.9012852  63.9644003   4.5882842
  12.2913635  69.2334175   4.0148255  11.5192080  68.7714863   4.3413672
  13.0322635  68.7411642   4.3683553  43.4046861  19.7344468  51.8777597
  43.3384772  20.4178069  52.5447440  44.0987559  20.0375293  51.2924063
  48.1760788   6.9375251  64.6296753  48.0329543   7.5186513  63.8826569
  48.9288965   7.3141692  65.0853453   9.8642761  64.6024370   8.4826934
   9.4284838  65.1203871   7.8059047  10.0207102  65.2223015   9.1951013
  36.0788822  60.3413057  24.7034097  35.4146600  59.7110128  24.9822903
  35.7560015  60.6749392  23.8663483  23.6170936  51.2305403  17.6704109
  23.4003091  50.4953480  17.0970571  24.5142031  51.0559607  17.9549277
  17.3082530  67.1790028   1.4276175  17.9309762  67.1617031   0.7008801
  16.9896472  68.0813789   1.4485976  49.7761508  69.8774764  55.2346397
  49.5044275  69.1001245  54.7466630  50.5697533  69.6056077  55.6956375
  36.9222879  53.7923145   4.7662225  37.4205899  53.2508039   5.3783435
  36.1456418  54.0577698   5.2587533  64.4675124  12.2080682  20.2573145
  63.6313271  12.3779796  20.6910837  64.2257118  11.8641494  19.3973816
  78.0697284  50.8570671  34.1659307  79.0171577  50.8907461  34.2981243
  77.7290087  50.4697990  34.9722600  15.5443859  46.4124966  24.6204829
  15.5267143  46.2868929  25.5692410  15.2796304  47.3236942  24.4945431
  67.4026644   5.4169391  55.4942483  67.2159970   5.9200404  56.2868870
  67.1845829   6.0113452  54.7763705  25.2151680  54.3869066  30.6706810
  24.8688793  55.2733183  30.7735896  24.5050097  53.8166475  30.9651423
  47.5538415   5.4612992  42.6202238  46.7946446   5.0437902  43.0270922
  48.1883398   5.5497335  43.3314359  14.8075330  55.6248760   5.6242549
  14.3765438  55.0593758   4.9834016  15.5367434  55.1001406   5.9546173
  78.4937835  31.0661650  16.3078880  77.7043500  30.6771803  15.9314322
  79.1561671  30.9740257  15.6230593  34.3722415   7.7566743  41.7579651
  33.7019420   8.1190789  41.1786652  34.0216112   6.9081110  42.0285749
  11.1508008  29.4785569  62.4351366  11.5509244  30.2306006  62.8716696
  10.3346582  29.8200439  62.0697189  18.7921878  14.7766994  58.3931101
  18.7312051  15.2889560  57.5868184  18.5129949  13.8969110  58.1396163
  11.0868450  17.3333572  59.9246887  10.9148499  16.6560481  59.2705471
  10.5687138  17.0691703  60.6849385  41.8734900   4.6675397  38.2959700
  41.7302922   3.7291528  38.1728482  41.0524026   4.9881937  38.6691022
  34.0151906  37.4096179  18.1734645  34.0009475  37.8081012  17.3032689
  33.6227465  38.0692410  18.7454045  52.5704575  59.5191288  13.2457113
  52.0488882  59.6352482  12.4515355  52.0906639  60.0003433  13.9198494
   5.7838893   3.3954336   1.8340982   5.1689172   3.8803722   2.3844358
   5.3115869   2.5989868   1.5915394  14.1357410  64.5991802   6.9189829
  13.4196746  64.4490957   6.3017684  13.8070953  65.2799368   7.5061715
  63.6504936  55.9182024  11.8276572  64.0173912  55.6639719  12.6744056
  63.0637503  56.6469336  12.0299387  25.2766347  52.1011066   2.0433147
  24.5936108  51.6935158   1.5107915  24.8762512  52.2070551   2.9062757
   8.7404367  28.5389016  53.1788576   9.6344372  28.2708667  53.3913529
   8.6967393  29.4578956  53.4429944   5.5099388  22.7099727  57.0471972
   4.8563024  22.0967267  57.3832327   6.1280604  22.8208373  57.7696014
  28.7335563  65.5325937   3.9584363  29.1914034  66.3106728   3.6403114
  28.0320954  65.8767796   4.5113587  45.2788782  31.5048194   8.8908941
  45.1081324  32.2654057   9.4464022  44.8974419  31.7362785   8.0440396
  22.2930594   7.7590726  64.0412102  22.4545404   6.9243739  64.4810177
  23.1589862   8.1590484  63.9610976   6.9829029  26.6718102  11.0619605
   7.0406234  26.0704875  11.8044615   7.8264832  26.5857244  10.6178963
  75.6721187  25.9055684  62.5471768  75.6754565  26.7352460  62.0698303
  74.7767496  25.5798839  62.4551186  66.9811419   5.5853416  26.3402057
  66.9998912   4.6987249  25.9799361  67.2081403   6.1491920  25.6007600
  55.7923970  64.7561572  56.0212547  55.6829250  64.2140506  56.8025178
  54.9732797  65.2467464  55.9534413  13.9588845  70.1276684  16.6108894
  13.1850147  70.2370977  17.1635032  13.6636817  70.3730488  15.7340348
  52.5709386  25.7252381  51.9029343  51.7223028  26.0577701  51.6105807
  52.6249497  24.8454736  51.5296638  68.9885882  28.1938767   4.1940972
  69.8180047  28.3384204   4.6495160  69.0596906  28.7164998   3.3953229
  29.2614222  30.2542710  22.3942614  29.9974632  29.6837234  22.1730089
  28.5326910  29.6543431  22.5532269  58.9825086  50.9527779  24.7245526
  59.4552664  50.1277113  24.6150041  58.1400517  50.8049774  24.2948389
  12.2725403  51.2518597   5.7417262  12.1072578  50.3240013   5.5744225
  12.7089310  51.2676191   6.5935165  24.6444293  17.3361180  50.3791118
  23.8970634  17.5295184  49.8131800  25.2796002  16.9135354  49.8010016
  11.8172932  38.3525848  55.5036068  12.3292446  37.7653408  56.0597372
  11.2999475  37.7676940  54.9499941  15.6281110  50.0782703  48.1245947
  14.9168082  50.1788161  48.7571812  15.6050130  50.8838580  47.6081467
  16.4949119  59.7602129  11.9649792  16.4917135  59.6484661  12.9156280
  15.8361948  60.4350519  11.8009257  64.9436796  18.2880281  63.1385006
  64.6301854  19.1301225  62.8086139  65.0409448  17.7454351  62.3559642
  39.6330905  52.0288801  17.1599925  39.9509120  51.1474657  17.3557830
  39.5121622  52.4359369  18.0178440  52.8058290  73.3826876  16.2085545
  52.2337294  74.0936804  15.9197116  52.3084259  72.9391336  16.8956375
  56.5931034  43.3427477  14.8298430  56.1583471  44.1954708  14.8209155
  57.5205183  43.5479641  14.9482536   6.7154759  57.7979279  19.6206796
   7.0175546  56.9698477  19.2474937   6.4122713  57.5683165  20.4990745
   1.0851236   8.5336850  24.2262876   0.5805679   9.2423270  23.8269413
   0.8819433   7.7650760  23.6931932   5.6098187  26.6360736  21.1705494
   5.7101381  25.8487701  21.7056394   5.1100254  27.2382259  21.7217755
  21.5297723  34.8458433   9.3849164  20.8434534  35.5046701   9.2793512
  21.0566235  34.0346575   9.5702320  33.9354205  57.3293114   3.9345816
  33.9581847  58.2459879   4.2092040  33.2058716  56.9504261   4.4249254
  23.9929533  45.9334421  31.0366726  23.6772728  46.8243694  31.1877322
  24.8505664  46.0493374  30.6276464  17.2369802  66.6262388  23.5319543
  17.3265684  66.5260649  22.5842357  17.1461201  65.7315493  23.8598418
   3.3393741   0.9143259  40.7336044   2.9223514   1.6478397  40.2816248
   2.9823136   0.1356317  40.3065491  69.8447875  26.4666320   0.7396089
  69.5356444  27.3490573   0.9445243  69.3664149  26.2232830  -0.0529630
  52.8913287  29.6692632  48.0074716  52.9773851  29.2478488  47.1523488
  52.3094059  29.0918181  48.5015869  15.9865876  54.7939513  61.3922480
  15.6967517  55.3942130  60.7052887  16.3814231  55.3608726  62.0547718
  10.4888153  35.9606576  50.6968021   9.8441464  36.2325239  50.0435638
  10.7010889  35.0572348  50.4622841  30.0143266  55.2545547  33.5074711
  30.3980756  56.1202955  33.3679366  29.0830564  55.3723478  33.3201432
  15.2404094  44.6235561   5.7056940  14.7448158  43.8047647   5.6916857
  16.1029279  44.3873358   5.3643847   8.4253299  28.4960604  27.4968982
   8.7916917  27.6593518  27.2106624   8.1240869  28.9141202  26.6902328
  57.2501806  15.6002857  52.3076677  57.6369528  14.8061706  51.9388533
  56.7623857  15.9886886  51.5814257  40.3347921  25.2035689   8.1743670
  41.2019920  24.9202228   8.4640408  39.9900556  25.7097030   8.9100409
  43.4552431  65.6658173  24.8609281  44.0363026  64.9933338  25.2164102
  42.5755644  65.3049564  24.9712396  35.7557106  54.7429132  25.4625106
  36.3837242  54.2962122  26.0302186  35.0885344  54.0821409  25.2767992
  47.2861528  59.7220993  16.8681943  46.9828224  58.9631271  17.3663771
  47.9715776  60.1081705  17.4135089  61.5485579  10.1782916  51.1910022
  61.7990529  10.9651492  50.7069147  61.1511558  10.5090354  51.9965554
  21.3035369  44.4772148   4.2605391  20.5517459  45.0651073   4.1869229
  22.0642829  45.0579023   4.2431980  63.9800215  32.0340228   2.5476262
  63.0500603  32.2425842   2.4586971  64.4249773  32.8753757   2.4457711
  21.2168284  22.4151633  61.5905968  20.9577580  21.8164561  62.2910714
  20.9521981  21.9704650  60.7853368  55.3046474  16.2544702  60.7758254
  55.2828050  15.3040908  60.8877981  54.7463047  16.5911029  61.4766550
  24.5565319  13.3758485  18.5309863  24.5833087  12.4283850  18.6645091
  25.4390121  13.6012805  18.2366407  71.6888904   6.9149135  53.5986579
  71.4176512   7.4875711  54.3161011  70.9294176   6.8837092  53.0168844
   9.6604081  20.0184415  56.5434379  10.2112933  19.7731088  57.2867888
  10.2109858  20.5997298  56.0188461  11.2413665  28.9574836  50.5277455
  10.4333802  29.4598268  50.6328309  11.0308810  28.0901740  50.8737207
  76.1144189  17.3970558  35.4313970  76.2239245  17.9943134  36.1713529
  76.6728667  17.7615501  34.7447276  18.1094333  10.9967731  54.0770769
  18.9270898  10.9751390  53.5798800  17.7198812  11.8439220  53.8606954
  55.7692150   0.9565307  23.6639595  56.2035016   0.6192924  22.8804421
  56.4615063   1.4096452  24.1452599  26.0435534  68.0715656  19.7653055
  26.8773580  68.0128288  20.2317333  26.1313391  68.8497162  19.2148423
  28.0446315  19.6263935  25.2799034  28.3006454  20.2012493  24.5586348
  27.2246909  19.9992038  25.6038523  43.1238079  61.3431644  15.1843691
  43.4452820  62.0811081  14.6663630  43.1984520  61.6372442  16.0922122
   9.6018263  60.4250908  14.0879083  10.2498671  60.3159904  14.7838783
   8.8417097  59.9267912  14.3881559  63.0542568   9.9149181  12.0861471
  63.0627398  10.4982711  11.3272953  62.6874618  10.4463817  12.7927160
  25.0026961  15.2577354  39.0976572  25.7695476  15.8089401  39.2536855
  24.7731870  14.9164440  39.9619913  40.4887962  65.3132582   2.1117988
  41.0506868  64.8214531   2.7106655  39.5987988  65.1260567   2.4102829
  58.1573284  10.5050824  42.4746907  57.7406281  10.3108905  43.3142627
  58.8832098   9.8836873  42.4181640  52.8069830  47.3855305   9.4521207
  53.5034609  48.0263472   9.3089324  52.3330927  47.7135801  10.2163494
   8.1659373  62.3627397  43.8343418   8.0757137  63.3051440  43.9756501
   8.9642199  62.2739669  43.3136714  19.2924758  20.9714578  28.4094227
  18.9265224  21.8172286  28.6682308  18.7154456  20.3258632  28.8174403
  52.6145363  34.6138930   0.8153921  52.8601885  33.8236070   0.3344210
  53.2932568  34.7082138   1.4837289  10.5735012  10.4628442  34.4828618
  11.1254092  11.1371730  34.8789776   9.7075316  10.6076549  34.8641193
  10.1992794   8.0877421  54.0987897   9.7724553   7.5295184  54.7487438
   9.4814225   8.5710500  53.6897362  51.2306782  22.8547214  51.5824676
  50.6851464  23.4470676  52.0999158  51.6351737  22.2757934  52.2285795
  34.9579620  57.2186708  15.7804072  35.3152561  56.7615223  15.0191021
  35.2427745  58.1258774  15.6704569  29.7267266   7.2376750  62.3283990
  30.1714250   6.6560004  62.9449485  29.4969340   6.6735194  61.5900523
  52.6152563  58.5495424  16.8470716  51.9428968  59.1973686  16.6361535
  52.9401112  58.2557058  15.9959769  11.5019365  -0.2982928  40.0958860
  12.4076220  -0.2199461  40.3955972  11.2286135   0.6023191  39.9214590
  48.9990187  31.7715597  14.2336667  48.8242865  31.2767744  15.0342202
  49.9038982  31.5537000  14.0101421  31.1975837  21.3586617  15.7660306
  31.3293576  22.2906303  15.5919635  30.4788136  21.3322568  16.3976192
  51.7531367  70.3099033  45.1425135  51.5222712  70.6091639  44.2630971
  52.3786040  70.9609553  45.4605603  78.6513591   2.4268435  44.0279186
  79.2952466   3.0814241  44.2984069  78.1716514   2.8441451  43.3123958
  67.9505873  51.8673849  10.8632982  67.1087408  52.1356726  11.2314653
  67.9577637  52.2433233   9.9830431  37.1330452  58.4325504  18.0354738
  36.3389492  58.5913706  17.5251615  37.8491926  58.6261368  17.4305856
  10.1901933  20.1276563  53.5036433  10.6958409  19.7438977  52.7872062
  10.8429476  20.3392432  54.1710091   3.7088469  54.8820877  20.5007172
   3.9969939  54.5594788  21.3546062   3.7759024  55.8344650  20.5694199
  12.8024523  69.7240516  43.7001240  12.8580086  69.5366761  42.7630890
  12.0692484  70.3342721  43.7792957  35.8238193   4.1874812  35.1318991
  36.1510488   4.9573396  35.5971587  35.0591584   3.9098571  35.6363261
  69.8752892  22.6420711  62.3374193  69.2662847  23.0591224  61.7279813
  69.3204629  22.0958922  62.8942734  65.9656453  22.5669692  64.1539082
  65.0352573  22.7448676  64.0162089  66.4160597  23.2582877  63.6686942
  47.2886187  14.1211532  16.9920814  47.3400128  13.2847283  16.5295017
  47.3045570  13.8835071  17.9191721  37.9114505  26.6513608  62.9591504
  37.0102235  26.8452380  63.2169006  38.4347125  27.3261331  63.3917132
   8.4199306  29.9750398  40.9317100   7.4743935  30.1236508  40.9211934
   8.5128447  29.0224717  40.9170425  70.5725237  53.0311188  54.0638089
  69.9031349  53.6972889  54.2198992  70.3878733  52.7080688  53.1818938
  62.1089622   1.4219235  43.3479321  61.9496699   1.4906524  42.4065864
  62.9931041   1.0614417  43.4155500  64.1283484  65.8732030  42.5289548
  63.9133044  64.9501058  42.6626742  64.1440364  65.9801361  41.5778768
  76.8265557  35.7029269  55.4443610  77.4673152  35.0177405  55.6345564
  76.0280204  35.2272676  55.2156180  49.5381713  14.6840976  45.8934736
  48.7713987  15.1623271  46.2090457  50.2365577  14.9220727  46.5032733
  79.1386560  79.1386560  79.1386560 109.4712190 109.4712190 109.4712190
