
50368  0.0000000e+00
  57.3824787  33.5883665  20.2305818  56.5232611  33.1417584  20.5176330
  58.0404234  32.9646063  19.7854650  57.0093489  34.2151666  19.5320141
  57.9282522  34.2610264  21.2804604  58.8840389  34.6494937  20.9288025
  57.1451807  35.5472898  21.6434884  56.1302280  35.2610278  21.9192171
  57.5962162  36.0333562  22.5085926  56.9870615  36.5194893  20.5205607
  58.0896711  36.7348456  19.6284556  59.0418291  36.2792587  19.8570180
  57.8342152  37.5074172  18.4836709  58.5492897  37.8086495  17.7324533
  56.5665436  38.1685710  18.3493912  56.2839651  38.8023853  17.5218475
  55.5900574  37.9598284  19.3041074  54.6056890  38.3666444  19.1254592
  55.7364321  37.1148777  20.3741336  54.9217796  36.9852161  21.0712218
  58.0936575  33.2543302  22.4570680  57.2284317  32.3477197  22.6076150
  59.2568350  33.3135819  23.0892777  59.8392105  34.0799356  22.7832723
  59.4987297  32.5440788  24.2986250  58.5626698  32.1663451  24.7099710
  60.2723455  31.2699676  23.9690280  61.2855911  31.4797306  23.6263347
  60.3999949  30.4794836  25.2127695  60.8867168  29.5177436  25.0507116
  60.8691835  31.0637832  26.0043216  59.4028044  30.2291536  25.5747771
  59.6119738  30.5214763  22.7930665  58.5279226  30.4404473  22.8728390
  59.8488855  31.0426044  21.8654871  60.1664495  29.1195869  22.5461173
  59.8905993  28.4458470  23.3573389  59.7830963  28.8172722  21.5715694
  61.2447548  29.1297269  22.3871899  60.2461672  33.3811998  25.3763103
  61.4101028  33.6411142  25.2110600  59.5853949  33.6396527  26.5346885
  58.7361097  33.1056905  26.6517472  60.1232433  34.3923116  27.6186085
  60.5962181  35.2176857  27.0864820  59.0144444  34.9065471  28.5539484
  58.5893774  34.0810633  29.1249084  59.6101570  35.8939648  29.5541191
  58.8776398  36.4713931  30.1181126  60.1426363  35.2270055  30.2321553
  60.2372599  36.5963340  29.0050077  57.9045153  35.6056547  27.7445555
  57.5723934  35.1354527  26.8189692  57.1162939  35.9597421  28.4089541
  58.2500982  36.5750694  27.3855162  61.2083673  33.6430645  28.3319712
  60.9676743  32.4687314  28.6937094  62.3567486  34.2874813  28.3938599
  62.4771023  35.1582527  27.8964901  63.5879755  33.8077188  29.1222382
  64.4167757  34.4932365  28.9454460  63.3430910  33.6036015  30.1645756
  64.0549374  32.4143767  28.6102605  64.7550297  31.6494226  29.2537451
  63.7125683  32.1137810  27.3541236  63.3483362  32.8982234  26.8325043
  64.0351868  30.9160590  26.6073990  63.4945345  30.9954548  25.6642723
  65.1055861  30.7720828  26.4603710  63.3938599  29.6726298  27.2082353
  64.0403652  28.5462093  27.0835114  62.2777987  29.7046638  27.9290509
  61.7484808  30.5640340  27.9665303  61.6469240  28.5936713  28.6230826
  62.0006514  27.6848269  28.1362677  62.2054768  28.6048770  30.0888371
  63.2831526  28.4414744  30.0853229  62.0632792  29.5664883  30.5819750
  61.5299129  27.4895692  30.8960009  60.4482269  27.5450039  31.0184050
  61.6644287  26.5049100  30.4482794  62.1733809  27.4664283  32.3001480
  63.1986284  27.1044803  32.2229195  61.9934368  28.3722091  32.8791857
  61.5180397  26.3374686  33.0559993  60.4462767  26.4842916  33.1896567
  61.5850449  25.3747916  32.5491714  62.1069813  26.1879396  34.3488002
  61.5946245  25.4650116  34.8335314  63.0748558  25.9011579  34.3816042
  62.0200205  27.0533562  34.8622131  60.1133251  28.7153792  28.5351133
  59.4113445  27.6917052  28.3989024  59.5001841  29.9343348  28.5024619
  60.0409651  30.7645273  28.6985278  58.0543137  30.0730252  28.5576510
  57.6465702  29.0754819  28.7212086  57.7445602  30.9664536  29.7721744
  58.1908560  31.9541121  29.6561813  56.6746998  31.0600233  29.9585605
  58.1801367  30.4153061  31.0950828  57.5444412  29.2154241  31.5848041
  56.7070055  28.8298821  31.0222602  57.9150534  28.6101556  32.7885842
  57.3411608  27.7709842  33.1530523  58.9755583  29.0934396  33.5042167
  59.2623472  28.5030937  34.6834159  58.6384439  27.8870511  35.0743580
  59.6876240  30.2487302  33.0015969  60.5826807  30.5750132  33.5103321
  59.2880869  30.8780479  31.8244243  59.7417736  31.7686629  31.4153099
  57.3819065  30.6515694  27.2860956  57.4514389  31.8294334  26.8578100
  56.8660927  29.7671819  26.4152312  56.5501499  28.9176035  26.8607616
  56.2878942  30.1576138  25.1063585  56.8883181  30.8222222  24.4851589
  56.2045240  28.8296437  24.3822837  57.2389746  28.4864140  24.3966722
  55.5992365  28.2330823  25.0648141  55.6320047  28.8827300  22.9812098
  54.5467806  28.9532375  23.0547833  56.0055351  29.6564269  22.3104095
  55.9648371  27.4852300  22.3564720  57.0516109  27.4045420  22.3336959
  55.5482054  26.7293930  23.0222249  55.3400183  27.4396896  20.9227467
  54.2509699  27.4657798  20.9602308  55.7291365  28.3277655  20.4247427
  55.7186413  26.2009692  20.1893663  56.7048168  26.0426998  20.0393176
  55.4225302  25.4084253  20.7409954  55.2899837  26.2372899  19.2755628
  54.8821449  30.7941937  25.2496266  54.0606976  30.1538014  25.9225249
  54.6393538  31.9617128  24.5837045  55.3169155  32.2744155  23.9030957
  53.3365631  32.6669836  24.6026564  52.9705811  32.6650286  25.6293797
  53.4472752  34.0473771  24.0252876  53.6601162  33.9156008  22.9644227
  52.4477434  34.4796371  23.9784551  54.4730186  35.0421572  24.5945573
  55.4842854  34.8252559  24.2504764  54.1406822  36.4548302  24.1452432
  53.0684996  36.5595150  24.3112445  54.5931053  37.2597313  24.7245097
  54.3955326  36.5441370  23.0892229  54.4282866  35.1223516  26.0625172
  53.4405994  35.4643846  26.3717175  54.5633364  34.1377664  26.5102386
  55.1678133  35.8130288  26.4676857  52.2750616  31.9027972  23.7840223
  52.5764465  31.5103841  22.6786137  51.0752106  31.6547132  24.3207598
  50.8734226  32.0836258  25.2126217  49.9940872  30.8765054  23.6466193
  50.3359175  30.3422976  22.7601242  49.5474434  29.7249699  24.5523930
  49.0850496  30.1618409  25.4375148  48.4578228  28.8431287  23.9129090
  48.2613087  28.0466819  24.6306515  47.5853968  29.3525839  23.5037303
  48.7814093  28.3989978  22.9715586  50.7472038  28.8413286  24.9776006
  51.3176632  29.3843865  25.7311034  50.4368114  27.8953314  25.4212785
  51.4735460  28.6408234  24.1899920  48.6911726  31.7129278  23.3048391
  48.3770466  31.9010854  22.1411252  48.1107616  32.3264599  24.3649507
  48.6845875  32.4190426  25.1909399  46.9784260  33.2611942  24.1864181
  47.2399426  33.7244225  23.2350349  45.6487036  32.4775004  23.8202667
  44.9534178  33.2542419  23.5019112  45.8550072  31.6487932  23.1429315
  44.9507380  32.0079899  25.0819230  45.5932713  31.5020394  25.8025265
  44.4967556  32.8630447  25.5828023  43.7712431  31.1041617  24.8485613
  43.0299234  31.6842556  24.2989802  44.0784597  30.2456903  24.2512846
  43.2933044  30.6407809  26.1817408  43.7329912  29.8367524  26.6063762
  42.2810030  31.1626339  26.9014311  41.6014767  32.1916580  26.5162110
  41.7814636  32.7355933  25.6844401  41.0293055  32.5559258  27.2645593
  41.9685125  30.7431316  28.0985808  42.4986696  30.0002646  28.5312319
  41.0298109  30.9765196  28.3892179  46.8600368  34.2996144  25.2747774
  47.1222973  33.9196634  26.4411902  46.4415026  35.5234337  24.9417353
  46.2625694  35.6147552  23.9519119  45.9367466  36.5820050  25.8741236
  46.7544174  36.7744517  26.5687323  45.7618523  37.9646039  25.1739454
  46.3064909  38.0089235  24.2308092  44.6983147  38.1337857  25.0055265
  46.2862158  39.1304708  26.0546756  45.7080221  39.1501164  26.9784737
  47.3550558  38.9538121  26.1749792  45.9343481  40.4194498  25.1757336
  45.0283909  40.2914572  24.5833111  45.8075142  41.3365936  25.7509351
  46.9889402  40.7680988  24.0945554  47.9772425  40.7398939  24.5534253
  46.9440699  39.9776196  23.3454037  46.7943716  42.0335245  23.4031200
  45.9060574  42.1130562  22.9291272  46.7927170  42.8030157  24.0573239
  47.5016403  42.1437597  22.6905751  44.7649145  36.2736583  26.7138577
  43.8625860  35.4371071  26.4184594  44.7644567  36.9278431  27.8814960
  45.5752087  37.5282097  27.9298997  43.9166307  36.6781473  29.0970707
  42.8709364  36.5847492  28.8039875  44.3689489  35.4900408  30.0215721
  43.6812115  35.3495145  30.8554626  44.2992115  34.1666913  29.2262411
  43.2812929  34.0544987  28.8529348  45.0780392  34.2203331  28.4655523
  44.5357895  33.3590508  29.9189472  45.8150244  35.6871057  30.5391550
  46.4425611  35.4711604  29.6744800  45.9822416  36.7537475  30.6888723
  46.4064455  34.8139286  31.6668558  47.4945736  34.7923136  31.6067767
  46.1124992  35.2625084  32.6157880  46.1647081  33.7516665  31.6312361
  43.9255428  37.9432058  29.9376321  43.7998343  37.9552746  31.1838937
  44.0590000  39.1108990  29.2944646  44.0010643  38.9730144  28.2955956
  44.0116358  40.4235840  29.9522328  42.9923677  40.6957483  30.2263308
  44.6007347  40.3966331  30.8689284  44.5441961  41.5796423  29.1571569
  45.5694199  41.4262819  28.5048819  44.0725994  42.8727531  29.2867875
  43.2592440  42.8769398  29.8855662  44.5444965  44.1023779  28.6801457
  45.6287479  44.0321398  28.7671351  44.0622091  44.0201616  27.2571993
  44.4655657  43.0890989  26.8590450  42.9734325  44.0038300  27.3061442
  44.5126295  45.0978899  26.4925885  45.2399254  44.7963858  25.9432840
  43.9920282  45.2653217  29.4233608  42.8526068  45.2769756  29.8367167
  44.7746420  46.3630867  29.4068122  45.6491375  46.3890553  28.9021492
  44.3806124  47.6406860  29.8351312  43.6247635  47.9993629  29.1364598
  43.9090061  47.5148869  30.8097386  45.4843378  48.6902428  29.9121213
  46.4582682  48.6072159  29.1813207  45.3555441  49.7586870  30.8251643
  44.5041990  49.8471355  31.3613439  46.3493490  50.9021664  30.9303355
  46.4552355  51.2815475  29.9139905  45.9039688  51.9005966  32.0323658
  46.7233801  52.5903702  32.2345304  45.0641298  52.4963951  31.6748810
  45.6019354  51.1884546  33.2472062  44.8184967  50.6436491  33.1422567
  47.7365589  50.4518223  31.3179874  48.7231922  51.2039375  31.0513783
  47.8744078  49.2943764  31.9579101  47.0244360  48.8063049  32.2017002
  49.1539478  48.6362743  32.2244239  49.8229313  49.3934917  32.6333094
  48.9844656  47.5497532  33.3715248  49.8723364  46.9687653  33.6210060
  48.6526346  48.0838203  34.2618942  48.0429697  46.4121246  32.9577589
  48.4375334  45.3618383  32.1148419  49.4714308  45.2684259  31.8169618
  47.5188017  44.4215012  31.6612411  47.7193022  43.6388731  30.9445143
  46.1665726  44.5889854  32.1026373  45.3621054  43.9643383  31.7434049
  45.7672834  45.5756855  32.9621506  44.7420597  45.6446981  33.2946515
  46.7364407  46.4869547  33.3900213  46.5071678  47.3525286  33.9938545
  49.8326111  47.9992104  30.9848690  51.0220861  47.7824402  31.0012794
  49.1352606  47.6703262  29.9096584  48.1509161  47.8899813  29.9636841
  49.4992495  46.7320728  28.8770890  49.6655798  47.2560692  27.9358864
  50.4993773  46.3483143  29.0785027  48.6225748  45.5696583  28.6394215
  47.4303341  45.7696295  28.4955025  49.2461109  44.3688393  28.5284972
  50.2054310  44.3456697  28.8435602  48.6667299  43.0546951  28.1812906
  47.6076221  43.1991005  28.3946824  48.7930775  42.7514791  26.6893601
  49.8476601  42.6000452  26.4590979  48.2250023  41.8405342  26.5007472
  48.3009434  43.8079357  25.7623601  47.0498991  43.9213753  25.6471682
  49.1178131  44.4120741  24.9902773  49.2715693  41.8638039  28.9974260
  50.2287245  42.0205927  29.7495246  48.5137415  40.8055162  29.0784144
  47.6328516  40.9040546  28.5942411  48.6738443  39.5571756  29.9360156
  49.7050095  39.5602322  30.2892947  47.9332781  39.5180345  31.3085365
  46.9696283  39.0294027  31.1645889  48.7457418  38.5653806  32.2920299
  48.2832146  38.5322618  33.2784724  48.8275909  37.5649524  31.8671274
  49.6978092  39.0888619  32.3793554  47.6881170  41.0147047  31.7906833
  48.6621523  41.5025282  31.8279099  47.1571112  41.5496254  31.0032845
  46.8747663  41.2279701  33.1265187  47.3627329  40.5979109  33.8701701
  46.8633509  42.2640371  33.4649539  45.8487988  40.8938551  32.9720712
  48.3789396  38.2785988  29.0803719  47.3595858  38.1553936  28.5230613
  49.3143368  37.3108935  29.0767407  50.1266193  37.5192738  29.6396542
  49.2165804  36.1105943  28.3320665  48.2644367  35.9682465  27.8209352
  50.3741455  36.0601997  27.2827744  51.1600447  36.6132212  27.7971935
  50.5890703  35.0184703  27.0446372  50.1077795  36.5818286  25.8208895
  49.9599695  37.9636240  25.5066705  50.0326395  38.6928296  26.3000083
  49.6226025  38.3471060  24.2069340  49.5607090  39.3916249  23.9394450
  49.3303871  37.3364043  23.2632113  48.9318848  37.6577091  21.9922376
  49.3281078  37.0979881  21.3204288  49.6613407  36.0349107  23.4659362
  49.5196724  35.3385139  22.6526928  50.0421953  35.6384397  24.7375011
  50.3028011  34.6063209  24.9197531  49.2819405  34.9248147  29.2921638
  49.7734833  34.9295425  30.4226851  48.7361383  33.8266039  28.7872648
  48.2313585  33.9531016  27.9216433  49.1827106  32.4868846  29.1615772
  49.3321896  32.3903728  30.2369571  48.0172110  31.5661716  28.6196065
  47.0947456  31.8667507  29.1164017  47.8808355  31.7615318  27.5559592
  48.0589581  30.0244331  28.7855101  48.8297129  29.4886470  28.2314587
  48.1364441  29.4512939  30.1871967  47.1947241  29.6289968  30.7065129
  48.3672476  28.3862495  30.1644397  48.9739275  29.8691964  30.7458377
  46.7631865  29.5318007  28.2146859  46.8377733  29.6443248  27.1330762
  46.7136669  28.4727955  28.4679747  45.8559418  30.0051117  28.5901666
  50.4756641  32.1209908  28.4983873  50.7235527  32.4593925  27.3332667
  51.2562609  31.2906957  29.1396666  51.0650682  31.0790157  30.1085520
  52.4123621  30.6595922  28.5500336  52.2439337  30.6060219  27.4744582
  53.5614777  31.6400075  28.6466718  53.3561182  32.5133181  28.0275941
  53.6691284  31.9009686  29.6994877  54.4718981  31.1268926  28.3369112
  52.6944494  29.2468405  29.0868974  52.1763897  28.8869929  30.1583958
  53.3948231  28.5074735  28.2748747  53.6522770  28.8756490  27.3702931
  53.6936092  27.0352030  28.4969640  53.3008194  26.7966461  29.4853497
  53.0095196  26.1962771  27.3862100  51.9558430  26.4237380  27.5478506
  53.4305239  26.5155125  25.9272695  52.7335835  26.0618830  25.2225733
  53.4618855  27.5818825  25.7037139  54.3999147  26.0249352  25.8394718
  53.1785822  24.6335959  27.5149965  52.5018215  24.1285110  26.8258047
  54.2256212  24.3884659  27.3369169  52.7487087  23.9746404  28.8501167
  51.6790485  24.1645908  28.9386582  52.9066133  22.8962398  28.8649106
  53.2682943  24.4395995  29.6879363  55.2211952  26.7189574  28.5325575
  55.9872293  27.2160959  27.6828003  55.6751871  26.1284542  29.6377206
  54.9923134  25.5996966  30.1613665  57.0127201  25.7564855  29.8374152
  57.6558828  26.6345787  29.7791553  57.0837545  25.3546143  31.3435864
  56.9145489  26.1918569  32.0207071  56.3651943  24.5816636  31.6162038
  58.4308624  24.8934460  31.8275857  59.3123198  24.5576596  31.0371232
  58.6781454  24.9107623  33.0890155  59.5064974  24.4863415  33.4811926
  57.9535103  25.2545118  33.7028885  57.4180555  24.6259189  28.8710880
  56.7544127  23.5862780  28.7948871  58.4850883  24.8578095  28.0904222
  58.9814520  25.7371402  28.1127048  58.8778448  23.9262962  26.9628429
  58.0426025  23.5590267  26.3665318  59.6878529  24.7120571  25.9410501
  59.9051571  24.0572810  25.0971556  58.9781666  26.0001969  25.4314566
  59.5766640  26.3397408  24.5861125  57.9669046  25.7698083  25.0962234
  58.9664841  26.7417097  26.2302828  61.1397076  25.0690103  26.5100598
  61.0359955  25.4605699  27.5220013  61.6834497  24.1322899  26.3876057
  62.0173883  26.0846448  25.7223725  63.0150366  26.1886048  26.1489844
  62.1650791  25.6066060  24.7539878  61.5748072  27.0782900  25.6524372
  59.6449614  22.6720834  27.4021578  59.8760176  21.7488408  26.6594052
  60.0440311  22.8273845  28.6564207  59.9350834  23.7190557  29.1181087
  60.8029842  21.8301797  29.5151949  60.9974194  20.9278226  28.9354944
  62.1145678  22.3586631  29.9994564  62.4234200  21.7777753  30.8685255
  63.2432556  22.1665788  28.9463949  64.2556953  22.2380972  29.3438315
  63.2331324  21.1546874  28.5413313  63.0520487  22.8525949  28.1212163
  62.0135927  23.7130189  30.4060316  61.0784817  23.8428020  30.5801678
  59.9676752  21.2734079  30.6393480  60.4077625  20.6012011  31.5855575
  58.6235332  21.4601326  30.5006099  58.1887960  21.9809556  29.7523761
  57.6992607  20.8904219  31.4715409  58.0446386  19.8616862  31.5741158
  57.7399063  21.3713145  32.4488783  56.2785101  20.8217454  30.9886074
  56.0068607  20.8325195  29.8120403  55.3229523  20.6326151  31.9353914
  55.7042551  20.5046558  32.8618526  53.8857555  20.7359409  31.9203877
  53.4803247  20.7365012  30.9085965  53.3690214  19.8851836  32.3645711
  53.3858156  21.9927573  32.6642704  52.1941328  22.2783089  32.6429963
  54.2441988  22.8102183  33.1665301  55.1397467  22.3772097  33.3414388
  53.9466572  24.0607929  33.7762570  53.1903028  23.8539195  34.5333791
  55.1718903  24.5708466  34.5137334  55.3195620  24.0047073  35.4333973
  56.1484575  24.4356728  34.0488148  55.1609659  26.0263729  34.9020457
  55.2234697  26.7130876  34.0578771  54.2455912  26.3114619  35.4206204
  56.2649250  26.4431810  35.8714342  56.0128593  26.7526197  37.0466614
  57.4208403  26.6110754  35.3985524  53.3658743  25.0881529  32.8154325
  54.0373707  25.3627324  31.7683625  52.1996641  25.6461287  33.1960130
  51.8803167  25.2851248  34.0835881  51.4227915  26.6204238  32.5384521
  51.9299412  26.8271708  31.5960264  50.0713205  26.0508466  32.2107148
  49.6896219  25.7422709  33.1839490  49.3839073  26.8173051  31.8527937
  50.0679159  24.9153996  31.1290598  50.2599716  25.4192257  30.1817608
  50.8149672  24.1839409  31.4372635  48.7772369  24.1413808  31.0561156
  48.3666182  23.8230062  29.9102807  48.2050848  23.7874007  32.1188736
  51.3765097  27.8996539  33.4232688  51.0803318  27.8418851  34.6160603
  51.7088413  29.0300918  32.8347445  51.9293594  28.9069176  31.8568349
  52.1786928  30.2422667  33.5810566  51.7178154  30.3083086  34.5666170
  53.7287998  30.3441978  33.6755085  53.7820148  31.3684225  34.0446043
  54.2479992  29.4756889  34.7827506  55.3326941  29.4742560  34.6753216
  54.0483665  29.8762178  35.7766438  53.8841009  28.4618306  34.6160960
  54.5168877  30.2368546  32.4136901  54.2351246  31.0531592  31.7485905
  55.5621481  30.3807592  32.6872253  54.3765020  29.2631173  31.9444060
  51.6471577  31.5101743  32.9170489  51.5913248  31.6410661  31.7264962
  51.2070417  32.4345517  33.7912655  51.5510941  32.2687125  34.7262669
  50.9791374  33.8361239  33.3343363  50.3534555  33.7534738  32.4456334
  50.2090454  34.6066809  34.3888640  50.8274794  34.6501684  35.2853823
  50.0109673  35.6470442  34.1309643  49.3375969  34.0181613  34.6757770
  52.2821569  34.5407057  32.9063296  53.3238125  34.4172215  33.5763907
  52.2449350  35.3326964  31.8384218  51.3542128  35.3594375  31.3630319
  53.2165098  36.3390231  31.3955855  54.0625811  36.2976551  32.0815539
  53.7405968  35.9549260  30.0298929  52.9074860  35.8968639  29.3294215
  54.6945286  36.9946861  29.4288683  55.5956745  36.9093847  30.0361300
  54.7914314  36.8172860  28.3577752  54.3559885  38.0105662  29.6325326
  54.5546770  34.6926403  30.0676298  54.4818830  34.2306185  29.0830755
  55.6080198  34.9264479  30.2222395  54.2210960  33.8955140  30.7320189
  52.5158691  37.7239490  31.3002229  51.5758038  37.8745008  30.5244374
  52.9786062  38.7010527  32.0509839  53.7920046  38.5834694  32.6380634
  52.5680780  40.0918341  31.9577217  51.6253138  40.1910877  31.4197230
  52.4008656  40.5519104  33.4330058  51.8256521  39.7703576  33.9294052
  53.3893490  40.6708956  33.8766766  51.7024946  41.9008017  33.4978890
  52.3190689  42.6955223  33.0779433  50.7950735  41.7309332  32.9183841
  51.5374041  42.4009037  34.9407363  51.0483789  41.6895580  35.6062746
  52.5046968  42.6495934  35.3773069  50.7456303  43.6707115  35.0976896
  51.1540794  44.4766998  34.4880581  49.7522926  43.5324526  34.6707511
  50.6252337  43.9548683  36.5079856  51.4755058  44.2040777  36.9927907
  50.0417995  44.7677755  36.6454029  50.1005173  43.1676769  36.8616867
  53.5574293  40.9579182  31.2100434  54.7320461  40.6538105  31.1297297
  53.0826855  41.8851805  30.3923702  52.1776962  42.2464037  30.6581116
  53.7421608  42.4770498  29.2664313  54.8235559  42.3689127  29.3500471
  53.2485723  42.0258045  27.8671694  52.1928358  42.2826624  27.7803063
  53.7601566  42.5771046  27.0782185  53.4105635  40.5244017  27.4850488
  53.9453030  39.9710250  28.2570219  52.0138788  39.8430872  27.4117923
  51.3851070  40.4032183  26.7196941  52.2988558  38.8639212  27.0269179
  51.5751171  39.8699236  28.4092259  54.1518927  40.2917480  26.1667418
  55.1412630  40.7491446  26.1724138  54.2008734  39.2128301  26.0196185
  53.5178041  40.5920887  25.3325772  53.5087204  44.0531301  29.3157268
  52.3561573  44.5320606  29.5162129  54.5856190  44.8082304  29.2950177
  55.4256630  44.2610550  29.1724324  54.5754290  46.3160086  29.2951059
  53.5666943  46.7277241  29.3275237  55.1278400  46.7501926  30.6819749
  54.4471073  46.3773251  31.4472675  56.1055899  46.2922049  30.8314776
  55.3358126  48.2176161  30.9646440  55.5669880  48.7604427  30.0481296
  54.4506121  48.7571192  31.3014793  56.4947701  48.4456968  31.9387174
  56.1794090  48.8166523  33.1004262  57.6694059  48.2193756  31.6128039
  55.3677130  46.8418550  28.1064606  56.4625931  46.4663553  27.8645110
  54.8191166  47.7487612  27.2842503  53.8804913  48.0881214  27.4389315
  55.5938005  48.3584356  26.2534738  56.0755062  47.5862551  25.6536484
  54.7477245  49.3238688  25.3883290  54.0039206  48.6784697  24.9210882
  54.1592693  50.0191355  25.9870148  55.5422020  49.9885702  24.3655157
  55.9958887  49.3622828  23.7967181  56.8471098  49.1213751  26.7778802
  56.8418407  49.7967291  27.8131866  57.9331160  49.0439653  26.0055995
  57.8401613  48.3794308  25.2507114  59.2512608  49.6064568  26.2358475
  59.5832014  49.4715691  27.2652745  60.2586222  48.9028645  25.3394675
  59.9699688  48.9693260  24.2904854  61.2008667  49.4488382  25.3863430
  60.4582596  47.4893284  25.8359528  60.1624298  47.3386335  26.8741608
  59.7681904  46.9260931  25.2077222  61.8539810  46.9513321  25.6656408
  62.2547150  46.3498545  24.6528554  62.7391815  47.4644041  26.4820600
  63.7275362  47.5246620  26.2830019  62.4291277  47.8757048  27.3508501
  59.2090940  51.1423302  26.0065818  59.0246677  51.6360426  24.9226308
  59.2741489  51.8980742  27.1495986  59.1699934  51.3467550  27.9894209
  59.1183710  53.3538437  27.3165250  59.2938423  53.7610960  28.3122468
  60.1452255  54.1107702  26.3938284  59.8358059  54.0092468  25.3536105
  60.1482916  55.1307201  26.7782712  61.6032314  53.6093521  26.5732479
  61.8134737  53.5954857  27.6426888  61.7755604  52.5795650  26.2602639
  62.6965237  54.4155121  25.8974743  62.6185226  55.4819107  26.1091542
  63.7061930  54.1087723  26.1705732  62.6373339  54.2136812  24.3395448
  62.4910641  53.1605387  24.0995455  61.7590570  54.8035908  24.0773845
  63.8615084  54.7128439  23.6009932  64.1176271  55.6288195  23.9408422
  64.6804667  54.1307878  23.7040472  63.5570097  54.8913336  22.6546717
  57.5994158  53.8092375  27.0139360  57.2522211  54.8759937  26.4885759
  56.6441011  53.0196428  27.5022745  56.8972874  52.0636654  27.7074647
  55.2357483  53.4006691  27.6652598  54.7034311  53.5439491  26.7249322
  54.5846939  52.2129011  28.4661269  55.0618649  52.0315409  29.4292045
  53.4957933  52.1659708  28.4801030  54.6701956  51.3715696  27.7784109
  55.0581503  54.7790480  28.3510423  55.9193516  55.2774525  29.1242051
  53.8845682  55.4263115  28.1877065  53.3009911  55.1972628  27.3958278
  53.5128641  56.6818714  28.9442658  54.2007351  57.5122738  28.7849760
  52.1321297  57.1672058  28.3528280  52.4702024  57.4257755  27.3493576
  51.4074230  56.3597870  28.2480597  51.4998817  58.4375000  29.0996671
  50.4427910  58.4496403  28.8341165  51.5484571  58.3230639  30.1825523
  52.0700836  59.8483038  28.7004590  51.4172125  60.5720854  29.1883111
  53.0528831  60.0572538  29.1230035  52.2957087  60.0740194  27.2353053
  53.2176447  60.0499105  26.8235207  51.3767338  60.2305746  26.3228917
  50.0893211  60.2405882  26.4936757  49.6702576  60.0867367  27.3996639
  49.4407463  60.3706551  25.7304382  51.8199968  60.4155874  25.1045585
  52.7937460  60.5923986  24.9029326  51.1045218  60.3822947  24.3924570
  53.4803867  56.5242147  30.4493713  53.7462330  57.4673367  31.1171150
  53.1635046  55.2993536  30.9392381  52.8652763  54.5578527  30.3217149
  53.1704950  54.9736214  32.3993206  53.8589144  55.6135559  32.9512858
  51.7598581  55.1125050  32.9852462  51.5126562  56.1599159  33.1582093
  51.0847855  54.7638702  32.2036862  51.6209841  54.3522406  34.2784262
  52.2854757  54.5647526  35.5372357  51.8696356  53.5629416  36.2869191
  52.2972870  53.4876585  37.2757792  50.7861805  52.8889465  35.7445431
  50.4504824  52.0177078  36.1297059  50.6520271  53.3392334  34.3927383
  49.9579906  52.9460812  33.6646223  53.7336302  53.5907459  32.5804234
  53.0328321  52.6238966  32.1969175  55.0088358  53.4352160  32.9496717
  56.0609722  54.3648148  32.6328969  56.3973904  54.8940372  33.5244370
  55.7089090  55.0068045  31.8254352  57.1919537  53.5215139  32.1028042
  58.1045437  54.1056824  32.2212243  56.9910622  53.3019400  31.0542178
  57.0828152  52.2961855  33.0596495  57.7410221  52.3310614  33.9277816
  57.2306252  51.3638926  32.5146008  55.6196547  52.1809769  33.4281421
  55.2590513  51.3727617  32.7918601  55.5092335  51.7774916  34.8795581
  55.5723047  52.6348495  35.7877684  55.2215719  50.5112553  35.1614261
  54.9896955  49.8733282  34.4135046  55.2043962  50.0201511  36.5414000
  55.7052994  50.7938242  37.1233225  53.7814093  49.8888493  37.0320916
  53.6764956  49.8504877  38.1163526  53.2599831  50.7384396  36.5911794
  53.0670881  48.5538292  36.5033507  53.1079817  48.4485340  35.4192185
  53.6073017  47.6772690  36.8610024  51.5971994  48.4614468  36.9406152
  50.8986235  49.4608307  37.1096969  51.0817766  47.2805595  37.2954535
  50.1376581  47.2328901  37.6510787  51.7347145  46.5319157  37.4779320
  55.9376431  48.7436152  36.7975378  56.1376524  48.5010004  37.9591298
  56.1855793  47.9927540  35.7150435  55.9768391  48.4031773  34.8161125
  56.5389156  46.6209936  35.7513881  55.8105087  46.2067699  36.4484930
  56.2731981  45.9014130  34.4166279  55.3205347  46.2240410  33.9965820
  57.0482588  46.2828875  33.7519050  56.4409065  44.4202662  34.3993855
  57.3740911  44.2289305  34.9291635  55.1914358  43.7622643  35.0914001
  54.3104458  44.2339134  34.6560884  55.1852036  42.6766491  34.9939203
  55.2771521  44.0265179  36.1454010  56.5618706  43.9233303  32.9550099
  55.6953764  44.4321060  32.5325990  57.4810123  44.3283844  32.5316763
  56.5258932  42.8406429  32.8341579  57.9448652  46.3724375  36.4028597
  58.0878115  45.3870630  37.1360016  58.8904524  47.3358154  36.3316298
  58.7802982  48.0767965  35.6542015  60.0998211  47.2439146  37.0957303
  60.5183125  46.2410498  37.0107031  61.2084389  48.1299496  36.4788866
  61.4386034  47.8179598  35.4601669  60.6997633  49.0939093  36.4901543
  62.4582767  48.2245445  37.2645259  62.2569704  48.5275173  38.2920408
  63.2600927  46.9515848  37.3456597  64.1816902  47.2354364  37.8537846
  62.6837826  46.1887121  37.8691077  63.5187960  46.5989590  36.3472462
  63.2549810  49.3361330  36.6742778  62.6934958  50.2586269  36.8220639
  64.2044258  49.4477797  37.1979165  63.3981514  49.1393614  35.6117892
  59.8849201  47.4417019  38.6127758  60.2996206  46.6126728  39.4056964
  59.2002106  48.4661531  39.1001010  58.6659527  49.0982628  38.5212207
  58.9230347  48.6603022  40.5627108  59.9261332  48.6581087  40.9891987
  58.2224178  50.0751019  40.8188105  58.8101673  50.8711910  40.3617620
  57.2755814  50.0515556  40.2793264  57.9993391  50.3607750  42.3246098
  58.9924526  51.0860872  43.0553675  59.9047279  51.5017700  42.6536655
  58.7707758  51.2726259  44.4628620  59.4238281  51.8807840  45.0711966
  57.6238537  50.7430887  45.1286793  57.3968220  51.0525560  46.4738655
  56.4529514  51.1063766  46.6406393  56.6344404  50.0390720  44.3991804
  55.7027864  49.7373009  44.8545504  56.8763733  49.8532629  43.0068111
  56.0973358  49.2979288  42.5057030  58.0821514  47.4977541  41.1094475
  58.2772255  47.0087814  42.1840477  57.0240831  47.0146322  40.3788376
  56.7735624  47.5807285  39.5807910  56.0766697  45.9235907  40.6483650
  55.6941080  46.1523533  41.6430664  55.0131607  45.8438730  39.6133327
  54.3178844  46.6792679  39.5307684  55.4735184  45.6086349  38.6537337
  54.1337776  44.6301413  39.9098778  54.6249866  43.6851692  39.6778321
  53.8824177  44.6604538  40.9700632  52.8128338  44.5890903  39.1748476
  52.7306795  44.8012733  37.9609179  51.7868471  44.3225574  39.7849441
  56.8621922  44.5456648  40.8194971  56.9204092  44.0234423  41.8969822
  57.7122831  44.0993881  39.8558021  57.7572918  44.5471096  38.9515781
  58.6227274  42.9338503  39.9065757  58.0297470  42.0916319  40.2631569
  59.1854715  42.6116228  38.5119057  59.7756910  41.7018986  38.4016943
  58.3544540  42.5787210  37.8073263  59.9157810  43.6987638  38.1009984
  59.3428373  44.2824268  37.5983381  59.6376801  42.9991961  41.0454273
  59.8299122  41.9513464  41.6513062  60.2505636  44.1799068  41.2250137
  60.2608061  44.8629761  40.4810953  61.0251284  44.5600319  42.4954128
  61.8142128  43.8363695  42.6997662  61.7155504  45.9039640  42.3701048
  60.9803057  46.5389061  41.8757725  61.9583941  46.2906027  43.3598709
  62.9584360  45.8274126  41.4879274  63.6901665  45.2474070  42.0503044
  62.8142214  45.2696514  40.5626106  63.5341263  47.1879339  41.0985374
  62.8813124  47.5406647  40.3000927  63.3451462  47.8646564  41.9318676
  64.9930143  47.1465731  40.5367470  65.0533438  46.3465023  39.7989511
  65.1648951  48.0572891  39.9630165  65.9666061  46.8805456  41.5661144
  66.0691786  47.5531006  42.3126030  65.9138823  45.9338856  41.9141865
  66.8500328  46.8859005  41.0765982  60.2277279  44.4453526  43.8128471
  60.7273054  43.8982582  44.7732925  58.9415979  44.8590899  43.8429308
  58.5073328  45.2984571  43.0438900  58.0490065  44.6329260  45.0053024
  58.4967422  45.1980305  45.8227921  56.6903591  45.3924322  44.7144842
  56.8382025  46.1282825  43.9240599  55.8898449  44.7494936  44.3485546
  56.1288595  46.2194443  45.8561182  55.1759338  46.5691996  45.4589987
  55.7368851  45.4265261  47.0364046  55.3683043  44.4692135  46.6678762
  56.6203547  45.1691914  47.6206636  54.9629354  45.9557343  47.5923157
  56.9960451  47.3944187  46.3346958  57.6265955  47.8526115  45.5727434
  56.3681746  48.0892134  46.8924999  57.6090860  46.9901848  47.1402264
  57.9822397  43.1172228  45.3149796  58.0241394  42.7206707  46.4702559
  57.6527882  42.3202991  44.2854548  57.6920938  42.7756119  43.3847570
  57.4098825  40.8583736  44.3991852  56.6214848  40.5757952  45.0968122
  56.9668150  40.2157354  43.1047058  57.3745966  40.7972288  42.2778606
  57.2572279  39.1714001  42.9901505  55.4784298  40.2325630  42.7666330
  54.7255611  39.0949583  43.1985378  55.2331495  38.2744169  43.6837864
  53.3532524  39.0372300  42.9943132  52.7865314  38.1647444  43.2841396
  52.6794624  40.0531530  42.3084164  51.4062834  39.9791050  42.0928288
  51.1173010  40.5997038  41.4198112  53.3925390  41.1625385  41.8559885
  52.9025698  42.0252180  41.4292383  54.8078012  41.2800169  42.1215487
  55.3751278  42.1427727  41.8050241  58.6529493  40.1258564  44.9229813
  58.4639835  39.1556835  45.6794739  59.8797846  40.6689310  44.7087669
  60.0186729  41.3829470  44.0080595  61.0932159  40.0573349  45.3277397
  61.1876297  39.0171409  45.0159979  62.3699379  40.7502842  44.9401760
  62.3139811  41.7879438  45.2691698  63.1717205  40.3367901  45.5519533
  62.7242613  40.7403755  43.4416962  62.8401375  39.7073150  43.1138849
  61.9668674  41.2684727  42.8624201  64.0702915  41.4054060  43.1257439
  64.3805552  42.1481180  43.8607407  64.8788595  40.6747866  43.1485844
  64.1168642  42.0218277  41.7544270  63.7441254  41.2962627  41.0314369
  63.3646631  42.8105927  41.7426062  65.4467630  42.5072289  41.4836931
  65.8850002  43.1242037  42.1525621  66.0448503  41.6942406  41.5215826
  65.5445194  42.9157686  40.5651951  61.0209417  40.0751877  46.8415356
  61.6683197  39.2116666  47.4606895  60.2443790  40.9311390  47.4623156
  59.9085569  41.6413307  46.8275309  59.8876333  40.8587599  48.8497972
  60.6947470  40.3555679  49.3822193  59.6150684  42.2621250  49.4013214
  58.9954472  42.8040600  48.6868382  58.8818312  42.1966553  50.7660341
  59.4724226  41.7568684  51.5697050  58.7535906  43.2038641  51.1625051
  57.8417349  41.8822384  50.6797171  60.9951591  43.0417395  49.5939684
  61.4417887  42.8940058  48.6107111  60.8327532  44.1068172  49.7593212
  61.9256115  42.5278139  50.7661200  62.9508305  42.7892447  50.5040646
  61.5034628  42.9609919  51.6729021  61.8819094  41.4416742  50.6855345
  58.7263966  39.7976637  48.9079905  58.9060783  38.6963010  49.4461250
  57.5521183  40.0263453  48.3833456  57.5447607  40.8351231  47.7784300
  56.3145351  39.3581939  48.7765741  56.3954020  39.0693617  49.8244953
  55.0779104  40.2517223  48.4963703  55.1385450  40.4037380  47.4187231
  54.1481638  39.7152877  48.6858511  55.0029325  41.6757059  49.0638447
  55.9371090  42.1776819  48.8119888  53.9518976  42.4189663  48.3464766
  54.2792654  42.4692869  47.3080158  53.0917215  41.7640400  48.4852982
  53.7128878  43.4165144  48.7150955  54.7507763  41.6339874  50.5800724
  54.9216557  42.6101828  51.0338831  53.7763262  41.2823248  50.9190130
  55.5376959  41.0144091  51.0101700  56.0257673  37.9381108  48.2009935
  55.0404215  37.3303747  48.5682535  56.7720175  37.4779463  47.1961880
  57.6323557  37.9757857  47.0171070  56.3581133  36.4197636  46.2657213
  55.4154158  36.7846966  45.8579779  57.2892809  36.2764192  45.0308180
  56.8605375  35.5897427  44.3009138  57.2255087  37.2310567  44.5086145
  58.7502527  35.9943724  45.3590965  59.0987015  36.4784956  46.2714052
  58.9705372  34.9425459  45.5414248  59.7771788  36.5069485  44.3111467
  59.5157003  37.0167708  43.2276630  61.0935450  36.3812733  44.5316076
  61.6745663  36.5548563  43.7239027  61.2606859  35.7215261  45.2778625
  56.1819029  35.1690054  46.9895172  56.8200588  34.8888683  47.9656267
  55.1199245  34.4819069  46.5744162  54.6033573  34.9663234  45.8542728
  54.6884966  33.1553626  47.0122433  53.9806652  32.7820659  46.2721586
  55.4895926  32.4798870  47.3123693  54.0366602  33.2158065  48.3998680
  53.7374783  32.1114802  48.9171076  53.8597679  34.4464803  48.9558220
  54.0868855  35.2963138  48.4595346  53.1297827  34.7805190  50.1844406
  53.7298822  34.4006348  51.0112810  53.1808662  35.8670259  50.2550888
  51.6579580  34.3077040  50.2146530  51.1695576  33.6136150  49.3083858
  51.0251856  34.6080065  51.3140678  51.6209364  34.9787998  52.0404959
  49.5962334  34.2082977  51.6386986  49.5012760  33.1304359  51.5071583
  49.2540216  34.6077991  53.0909348  49.5254326  35.6308246  53.3514166
  47.7716064  34.4808006  53.3605385  47.2587585  35.2920866  52.8439093
  47.3112202  33.5438323  53.0471182  47.5300550  34.6860528  54.4034338
  50.0833988  33.7329197  54.1256428  49.7629166  34.0311289  55.1238775
  49.8788548  32.6748681  53.9619732  51.1404181  33.8649631  53.8946152
  48.6648464  34.9534655  50.6009626  48.4922075  36.1859179  50.6187725
  48.3795309  34.2176819  49.5709801  48.7901020  33.2950997  49.5516014
  47.6908493  34.5907688  48.2979584  47.3918152  33.6503816  47.8349781
  46.8420410  35.2558732  48.4569025  48.5297060  35.4273200  47.2283840
  47.9424810  36.0459042  46.3478279  49.7980595  35.5936289  47.4443626
  50.2255964  34.9484158  48.0932236  50.6578064  36.4355373  46.5615892
  49.9571466  37.1365404  46.1079693  51.6559696  37.3466063  47.3824406
  52.4941635  36.7567039  47.7533007  52.2974777  38.4199476  46.4750528
  51.5133429  38.7720203  45.8047724  52.6217556  39.2881918  47.0487309
  53.0846739  37.9139042  45.9161806  51.0780191  38.1309319  48.5944700
  50.8023548  37.4066615  49.3609858  51.7983198  38.8272142  49.0239573
  49.8171473  38.8436961  48.1969738  49.4664526  39.3555069  49.0931702
  50.0902128  39.5345426  47.3993111  48.9541006  38.2155323  47.9763794
  51.4242649  35.5110598  45.6103659  52.2206497  34.7471929  46.1110210
  51.3629293  35.6579280  44.2299128  50.4167509  36.4785290  43.5288286
  50.6570148  37.5415945  43.5125399  49.4697189  36.3986325  44.0625381
  50.1876450  35.9776044  42.0993328  50.1306629  36.8382788  41.4329338
  49.4431925  35.1831460  42.1515942  51.5508366  35.4680705  41.8467188
  52.1453857  36.3357258  41.5607309  51.4332390  34.6381330  41.1499596
  52.0167589  34.8823643  43.2242918  51.6283941  33.8639045  43.2211304
  53.5230637  34.7013307  43.3724928  54.2058086  35.5517340  43.8927460
  54.0250778  33.5815287  42.8037786  53.3885622  32.9473305  42.3425341
  55.4173374  33.2783270  42.7236700  55.8878469  33.9949250  43.3968830
  55.6935978  31.9555497  43.3892536  55.0680208  31.9500756  44.2818499
  55.4042816  31.1343598  42.7334785  57.1701193  31.9521141  43.5984802
  57.9418039  32.5521612  44.6053982  59.1875696  32.3898292  44.2142153
  60.0625658  32.8422213  44.6570730  59.3208313  31.7191100  43.0826044
  60.1795530  31.5064740  42.5952816  58.0495310  31.4611459  42.6709080
  57.8773451  30.9028029  41.7626095  55.8996773  33.5074210  41.2729025
  55.1911831  33.2891297  40.3314447  57.1091223  34.0831113  41.2852144
  57.6472569  34.1903067  42.1331692  57.6236963  34.5444369  40.0131845
  56.7409945  34.6608901  39.3843913  58.2552671  35.9616470  40.2427244
  58.9918184  35.8399248  41.0369444  58.9374161  36.3925958  38.8893723
  59.8981905  35.8915520  38.7711215  58.3118916  36.2036395  38.0169511
  59.1708326  37.4446607  39.0530086  57.2209787  37.0124269  40.6910753
  56.8556976  36.7107868  41.6727495  57.7199793  37.9689789  40.8463287
  56.0024834  37.0956087  39.8228765  55.2949810  36.3069224  40.0788403
  55.5238247  38.0475569  40.0526047  56.3016891  37.0207548  38.7774205
  58.6902714  33.5288191  39.5506549  59.5439625  33.1928229  40.3152943
  58.5853052  33.2057381  38.2858038  57.9001808  33.7261844  37.7568054
  59.4741917  32.4918818  37.4279594  59.8895741  31.6933703  38.0427217
  58.8094330  31.7376995  36.3330388  58.5662889  32.4654555  35.5588603
  59.5384312  30.9877467  36.0260487  57.4368906  31.0398173  36.6352010
  56.7296076  31.8400049  36.8532705  57.0523214  30.4162025  35.8281636
  57.5195217  30.1689744  37.8496480  58.3507061  29.5429039  37.5251746
  57.8349829  30.6491661  38.7759304  56.2843609  29.3195391  38.0517840
  56.3324404  28.3828402  37.6771045  55.2169418  29.4881511  38.8012648
  54.9410152  30.5283308  39.5766449  55.4155254  31.4197397  39.5584869
  54.2786741  30.3659463  40.3216505  54.3218660  28.5547471  38.8791418
  54.2612600  27.8434896  38.1646228  53.6041784  28.7121415  39.5721364
  60.6712246  33.3280253  36.9645715  61.8169880  32.9864216  37.2119713
  60.4360723  34.4510055  36.2811089  59.4473934  34.5985627  36.1367416
  61.4717865  35.2802157  35.6284714  62.3319101  35.2617741  36.2977600
  61.8854380  34.5278764  34.3364525  62.1112108  33.5073709  34.6457958
  60.9915876  34.5191741  33.7127090  63.0861187  35.0198007  33.5394669
  64.2672062  34.6147943  33.8653255  64.5129538  34.0231776  34.7348070
  65.1411438  35.0536084  32.9328990  66.0826254  34.7596788  33.1504440
  64.5346498  35.8098626  31.9540310  65.0260782  36.5203071  30.8435416
  66.0861588  36.4686012  30.6436706  64.1732264  37.1852064  29.9709439
  64.6565104  37.8258562  29.2481709  62.7608633  37.1231198  30.2594805
  62.0222569  37.6066303  29.6373272  62.3182678  36.5771604  31.4800978
  61.2539625  36.6106582  31.6604757  63.1689262  35.8598709  32.3456097
  60.9528875  36.6962361  35.4891586  59.7216892  37.0221543  35.5795598
  61.8714380  37.5891685  35.2421975  62.8504276  37.3816967  35.3787041
  61.6884708  38.9617252  34.8057699  60.7051325  39.0698409  34.3481088
  61.6035175  40.0048733  35.9706235  60.7081366  39.7667146  36.5447974
  62.4786949  39.9014521  36.6120839  61.5372324  41.4423275  35.4960680
  60.3365088  41.9409370  34.9102759  59.5144081  41.2441158  34.8395967
  60.3428125  43.2032824  34.4003439  59.4174337  43.6967659  34.1423559
  61.5249872  43.9809132  34.4211698  61.5730524  45.2921247  33.9748168
  60.7131720  45.5595827  33.6421418  62.7132225  43.5042048  34.9665618
  63.6087799  44.1078377  34.9690890  62.7228022  42.2135973  35.4684520
  63.6575127  41.8340969  35.8540535  62.7798557  39.3617201  33.7520933
  63.9538813  39.1073847  34.0549803  62.3698187  39.8944163  32.6156020
  61.3714695  40.0449944  32.5885201  63.2449007  40.3428698  31.5175128
  64.0694380  40.9089708  31.9508410  63.5764647  39.4424677  31.0003638
  62.5595856  41.1934185  30.4640603  61.7586136  42.1177483  30.7351422
  62.7947569  40.8630991  29.2009449  63.5233021  40.1773167  29.0630198
  62.1583033  41.4757872  27.9677820  61.1692762  41.8693256  28.2024169
  63.0834913  42.6466751  27.4822402  63.2186985  43.3263636  28.3235741
  64.1067982  42.2775602  27.4136496  62.6867437  43.5860014  26.2393618
  61.6865778  44.0117025  26.3202763  63.3372116  44.4576454  26.3116765
  62.9254866  42.9840040  24.8344302  63.5182905  41.9220638  24.7261930
  62.6763821  43.6918211  23.7523866  63.0527115  43.2052708  22.9512906
  62.6256657  44.6975088  23.8306046  61.9713545  40.3920937  26.8951011
  62.6427317  39.3952274  26.8613148  60.9533358  40.6534195  26.0265994
  60.4621792  41.5350914  26.0656476  60.4941416  39.8089123  24.9299121
  61.4040661  39.4260335  24.4678020  59.6995306  38.6125278  25.4957032
  60.2898693  38.1736255  26.3000464  58.7550116  39.0263534  25.8488798
  59.2942953  37.5075626  24.4702029  58.8717413  36.6821384  25.0431132
  58.5516548  37.8230262  23.7373519  60.5124331  36.7976737  23.8124847
  60.2914095  35.9915018  22.9046130  61.6181421  37.0293808  24.3283653
  59.7090006  40.5253839  23.7907505  58.7865448  41.2526035  24.1096735
  60.1101255  40.3499508  22.4545121  60.8007145  39.6349525  22.2757125
  59.4396019  40.9507704  21.3111305  59.9112797  40.6231356  20.3847003
  57.9197168  40.4504442  21.2525249  57.9540682  39.4044685  20.9478092
  57.3641825  40.4912519  22.1894455  56.9870901  41.2851191  20.2827597
  56.0337973  40.7941818  20.0870061  56.7734575  42.2505331  20.7415009
  57.5564814  41.5958881  18.8976431  58.4280252  42.2164917  19.1058838
  57.7702236  40.6786013  18.3490014  56.7717600  42.4299574  18.0113161
  55.8828735  41.9029427  17.6645708  56.4981127  43.3519411  18.5243118
  57.4322939  42.7594995  16.7119312  57.5550079  41.8994904  16.1967373
  56.7311382  43.3050108  16.2314141  58.3334780  43.2145691  16.7417872
  59.6666384  42.4302244  21.2859607  60.6080008  42.8452492  20.6024599
  58.8453913  43.2008839  21.9531059  58.2166672  42.6720810  22.5406218
  58.9950323  44.6466589  22.1565080  60.0408030  44.9496794  22.2080588
  58.3359528  45.4181671  20.9890652  57.3043156  45.1273108  20.7909775
  58.4221506  46.4846563  21.1970711  59.0862226  45.4008579  19.6636176
  60.2039337  45.9061050  19.5275831  58.4586525  45.0094223  18.6340165
  58.2747841  44.9980497  23.5268068  57.7861261  46.1298323  23.6830235
  58.4065247  44.1423941  24.5062518  58.8788795  43.2587671  24.3790436
  57.8403139  44.3436337  25.8448958  57.7061415  45.4190779  25.9611535
  56.4693880  43.6194801  26.0126209  56.7578697  42.6021099  26.2768745
  55.9446669  44.0187454  26.8805814  55.5917501  43.7145472  24.7929549
  54.9585915  44.9140167  24.5076299  55.1927853  45.7436228  25.1582527
  54.0986013  44.9979162  23.4090543  53.6610556  45.9302902  23.0840302
  54.0777445  43.9150667  22.5110006  53.3684731  44.0178442  21.3152432
  52.8251600  44.7907543  21.4855981  54.8095608  42.6968908  22.7450967
  54.7376919  41.8808270  22.0413351  55.5258179  42.6007271  23.9313269
  55.9677839  41.6357088  24.1308737  58.8353682  44.0005112  26.9927835
  59.4491959  42.9166031  26.9704151  58.8831568  44.8147631  28.0343366
  58.1890011  45.5480146  28.0585790  59.2650509  44.2563009  29.3548870
  60.2729845  43.8486958  29.2772532  59.5777464  45.3290081  30.4161596
  58.6480331  45.6729507  30.8694148  60.0413084  44.8349428  31.2700391
  60.4621601  46.4794779  29.9472761  61.6291475  46.2267113  29.6706223
  60.0153637  47.6936150  29.9930072  60.6678581  48.4640217  30.0216436
  59.0638971  47.9012918  30.2607536  58.2816839  43.1469154  29.7615099
  57.1103764  43.2614899  29.4448757  58.7750483  42.0128584  30.2740693
  59.7547007  42.0141220  30.5197954  57.8565216  40.8387327  30.6452155
  56.8352127  41.2156868  30.6994414  57.9843807  39.8362374  29.5302176
  57.6168299  38.8447237  29.7946191  57.2171450  40.1604891  28.3070183
  56.1675501  40.2322578  28.5921597  57.5057697  41.1634207  27.9924917
  57.3876238  39.4640303  27.4860597  59.4483995  39.5069432  29.0610385
  59.7579908  40.2880573  28.3666992  60.0565195  39.4908905  29.9654913
  59.4252443  38.5617566  28.5186577  58.1911516  40.2591372  31.9842267
  59.3679428  40.2293587  32.2993183  57.1612501  39.9166465  32.7213097
  56.2813807  39.9892640  32.2307396  57.0837498  39.2513084  34.0168548
  58.0936289  39.0331817  34.3642139  56.4510202  40.1896095  35.0599504
  56.8437243  41.2045240  34.9980354  55.3991032  40.3375959  34.8156786
  56.4677143  39.6997261  36.4709044  55.9478664  38.7536383  36.6218257
  57.8763199  39.5583844  36.9761515  58.3575201  40.5152941  36.7739820
  57.7936983  39.3851352  38.0491185  58.4544706  38.6982369  36.6385293
  55.8564091  40.6564474  37.3576856  55.0392628  41.2346554  36.9263601
  55.4674816  40.1107597  38.2173681  56.5632105  41.2711859  37.9150295
  56.3321590  37.9429269  33.9489579  55.2785301  37.9053998  33.2618904
  56.7480183  36.9082546  34.6745348  57.5845146  36.9743419  35.2366781
  56.1479139  35.5684328  34.5184016  55.2238417  35.7268143  33.9624238
  57.2252798  34.6921229  33.8089490  58.0875254  34.5214963  34.4535637
  56.6738462  33.3262372  33.3600879  56.4862394  32.6793957  34.2171192
  55.7339382  33.4329629  32.8185272  57.4165392  32.7247977  32.8358960
  57.8209114  35.3755522  32.5567579  58.3655262  36.2866426  32.8045702
  58.4968996  34.6556544  32.0953560  57.0415592  35.6503868  31.8460011
  55.7680798  34.9427390  35.8515549  56.6272163  34.8088193  36.6826677
  54.5122862  34.6320820  36.0932279  53.9129066  34.8379993  35.3068185
  53.8600731  34.3484569  37.4084568  54.6470356  33.9173341  38.0272698
  53.1924820  35.5918646  37.9167438  52.6988697  35.3914165  38.8676763
  53.9489603  36.3528180  38.1085849  52.1561337  36.3317585  37.0567894
  52.3343420  35.9402299  36.0552645  51.1495209  36.0007954  37.3123264
  52.3543644  38.1282997  37.0357561  51.5550375  38.3183694  38.6586595
  50.6504869  37.7105188  38.6789393  52.0869493  38.0424762  39.5691848
  51.2712193  39.3691945  38.7162614  52.8126621  33.2426548  37.2884345
  52.5643778  32.7069116  36.1954498  52.2219563  32.8574467  38.4187818
  52.5315332  33.3112812  39.2663050  51.1133957  31.8826127  38.4814548
  51.5699720  31.0063004  38.0213165  50.6895638  31.4730144  39.9029064
  50.0699425  32.2780704  40.2979469  50.0996876  30.5701613  39.7447991
  51.8144417  31.0566092  40.7816648  52.0073509  31.6476297  41.8614435
  52.4389267  30.0291848  40.5048752  49.8643541  32.3454762  37.7002549
  49.4872856  33.5056210  37.6307917  49.1855145  31.3506365  37.1737981
  49.6322107  30.4482985  37.2534728  48.1229448  31.4473557  36.1769772
  48.4031487  32.3409295  35.6192064  48.2411289  30.2308869  35.2317071
  49.2808628  30.2490377  34.9050188  48.0822754  29.3455887  35.8474278
  47.2242260  30.0987792  34.1009283  46.2248325  30.0464654  34.5328736
  47.2681379  31.3377547  33.2547617  48.2871342  31.5296984  32.9187632
  46.5515947  31.4165258  32.4371672  46.9339132  32.1577358  33.8903952
  47.4553823  28.8504291  33.3431840  46.6147518  28.5712647  32.7079630
  48.3595896  28.9743447  32.7472305  47.5222492  27.9760981  33.9906216
  46.7539215  31.7159057  36.7977238  45.9644413  30.7783747  36.7902684
  46.6494226  32.8500319  37.4969721  47.4842644  33.3492494  37.7688646
  45.4102468  33.3459258  38.1172419  45.1194811  32.5415158  38.7928772
  45.6042194  34.5843577  38.9319396  45.7136583  35.4232740  38.2446671
  44.6951485  34.6780944  39.5259953  46.7970181  34.5666075  39.8702526
  47.7558184  34.6008849  39.3529272  46.7340755  35.9051514  40.6064367
  47.4679184  35.9059906  41.4123964  47.1395159  36.7032194  39.9844909
  45.7961750  36.1010647  41.1261129  46.8184757  33.4478259  40.8648300
  47.5781822  33.6177158  41.6277695  45.8124113  33.3436418  41.2711239
  47.1014977  32.5135875  40.3798532  44.2098427  33.4224367  37.1642017
  44.3409777  33.8539028  36.0359144  43.0719137  32.9885483  37.6055789
  43.0772734  32.7003455  38.5735703  41.8064833  33.0192733  36.9475651
  41.8885565  32.5776625  35.9544134  41.2044191  32.4357390  37.6440597
  41.1159420  34.4067407  36.8855071  41.8738031  35.3908229  36.7462230
  39.7370720  34.5319819  36.9527483  38.7480950  33.4323907  37.0582294
  38.5952067  33.1321287  38.0948448  39.2165542  32.6171899  36.5067816
  37.3975229  33.9644146  36.4462423  36.4799023  33.6314559  36.9312263
  37.2980571  33.5219884  35.4550433  37.5475883  35.4904199  36.5149879
  36.8360758  35.8969498  37.2337270  37.3739529  36.0836816  35.6172180
  39.0300059  35.7883573  36.9796276  39.3538785  36.3949919  36.1339307
  39.1492271  36.5380740  38.2889080  39.3449688  35.9169197  39.2972898
  38.9878058  37.8518701  38.2369733  38.9639616  38.2243061  37.2984529
  38.8427138  38.7879014  39.3879128  39.5179367  38.5996890  40.2226257
  38.9847088  40.2386856  38.8957047  39.8678041  40.5374193  38.3309031
  38.1946588  40.4403067  38.1723261  38.7272906  41.2291002  39.8772192
  39.2421937  41.1556053  40.6841087  37.5451493  38.6973953  40.0576782
  36.5628219  38.2366443  39.4602776  37.4154925  39.2031431  41.2931776
  38.2733941  39.3758297  41.7974472  36.0834932  39.5953846  41.8303680
  35.4227734  38.7447786  41.6629791  36.0673833  39.8897576  43.3831644
  36.6775370  40.7561159  43.6385918  35.0308704  40.0285435  43.6905384
  36.6375065  38.7760568  44.2446899  37.6084399  38.4773684  43.8494825
  36.8664765  39.1845036  45.7239866  35.9389544  39.1064119  46.2911844
  37.5256634  38.4127784  46.1215019  37.1579456  40.2345467  45.7475948
  35.7259750  37.5375009  44.1378069  35.9108400  37.1281338  43.1446505
  36.1096478  36.7970181  44.8396444  34.6941662  37.7998400  44.3715668
  35.3295946  40.6430674  41.0110044  34.1095114  40.5588627  40.9936285
  35.9297252  41.5220690  40.1910877  36.9351768  41.4747667  40.1078415
  35.1793361  42.2774649  39.1609526  34.3592739  42.7539825  39.6981025
  35.9695220  43.4729052  38.5982060  36.3319802  44.1111851  39.4040108
  36.8652654  43.0908442  38.1085300  35.2479720  44.4432116  37.6172590
  36.0050368  44.9749374  37.0408773  34.7476244  43.7620020  36.9289947
  34.3196583  45.5010319  38.3429074  34.2693281  45.4720116  39.6155906
  33.6437488  46.2913656  37.6514959  34.5338082  41.3304615  38.1336284
  33.3462453  41.5002155  37.9189777  35.3311896  40.4153919  37.4891424
  36.3037324  40.3160524  37.7429008  34.8019648  39.5440674  36.4412785
  34.4059920  40.1417875  35.6202793  35.9130335  38.5919046  35.8714175
  36.3780832  37.9469728  36.6170001  35.4988027  37.9345155  35.1069880
  37.0363712  39.3958282  35.2972651  36.8344903  40.5555344  34.9195719
  38.1700540  38.8137794  35.2807212  33.7407327  38.5195875  36.8577790
  32.7354598  38.4953499  36.2310028  33.9436007  37.8681016  38.0319619
  34.7922158  38.0270648  38.5560632  32.9697609  37.0033646  38.6689806
  32.5279689  36.4700484  37.8272605  33.7400413  36.1050296  39.7495055
  34.3766761  36.6006112  40.4824448  33.0588222  35.4832435  40.3303862
  34.4858027  34.9902773  38.9973211  34.9793148  35.4023957  38.1171489
  35.5452251  34.4343400  39.9697757  35.9023070  33.6344242  39.3211412
  36.2497425  35.2156639  40.2548933  34.9949718  34.1423392  40.8642387
  33.6131811  33.8466454  38.5237980  33.2820272  33.1890082  39.3275070
  32.7980876  34.1251540  37.8558493  34.2428541  33.2683086  37.8476763
  31.8292546  37.7472782  39.2144227  30.7200241  37.3241282  39.0682077
  31.9477344  38.9450812  39.7932982  32.8321385  39.3985415  39.9730420
  30.7541084  39.7597265  40.0924397  30.0305080  39.2958665  40.7627630
  31.2020087  40.9614992  40.9528780  31.8828321  40.7031727  41.7639542
  31.7287755  41.6398573  40.2817202  30.1613021  41.9222975  41.5273952
  29.2946529  41.4080238  42.5571680  29.2645168  40.3757095  42.8731155
  28.3614588  42.2499466  43.1668568  27.8694177  41.8885136  44.0577364
  28.3574176  43.6233568  42.7957964  27.8425574  44.2684460  43.4923458
  29.3308353  44.1803122  41.9142294  29.3808222  45.2589083  41.8911266
  30.1987529  43.3208323  41.1909342  30.9110928  43.7012577  40.4738188
  29.8480439  40.1807690  38.9342713  28.6049461  40.0958300  38.9736128
  30.5024409  40.4486227  37.8019595  31.5056133  40.5131435  37.8998613
  29.8764253  40.7553673  36.5796971  28.9797688  41.3642263  36.6954446
  30.9173846  41.4007616  35.6852198  31.4514494  42.1686220  36.2449265
  31.5998077  40.6107521  35.3717160  30.1733327  42.0861387  34.4726825
  29.0205860  42.3917866  34.5681500  30.7647872  42.2452116  33.3070517
  30.1283455  42.6204443  32.6183963  31.6114759  41.7585325  33.0494356
  29.2126846  39.5310163  35.9174633  28.0448103  39.6417117  35.4275465
  29.8011374  38.3097935  35.8676553  30.7173347  38.2367277  36.2863946
  29.1023231  37.0627499  35.5130148  28.8030672  37.2256017  34.4776297
  30.1527286  35.9897852  35.5537653  30.9115219  36.0702324  34.7753906
  30.6471586  36.0568213  36.5228605  29.5357561  34.6227384  35.3599048
  29.4027615  33.8292503  36.5156698  29.8126173  34.1369390  37.4663281
  28.8108706  32.5120258  36.3384151  28.6997175  31.8275619  37.1663976
  28.3314848  32.1432757  35.0778723  27.9530025  31.1372375  34.9727941
  28.3401322  33.0116391  33.9402437  27.9165745  32.7629519  32.9783940
  29.0701318  34.2742443  34.0775943  29.1070509  34.9308729  33.2209301
  27.9134846  36.8235278  36.4836001  26.8658972  36.4683557  35.8937287
  27.9365540  37.1225238  37.7848268  28.8323927  37.4340749  38.1319809
  26.8270302  36.8455219  38.6779404  26.3304424  35.8994627  38.4623599
  27.5531125  36.5258360  39.9432254  28.1193209  37.4005556  40.2631855
  26.8531775  36.3499522  40.7600832  28.5766912  35.0960803  39.6157146
  29.7632194  35.6892896  39.7743011  25.7914662  37.9773355  38.8504696
  25.0716805  38.1252861  39.8387790  25.6471062  38.7739301  37.8184581
  26.1837339  38.6225986  36.9762993  24.7064781  39.9371004  37.7355886
  24.7919059  40.4896069  36.7998838  23.2916713  39.3807817  37.5800800
  22.9645348  38.8700652  38.4857559  22.5740051  40.1981354  37.5093961
  23.1926632  38.5688043  36.4728665  23.6497784  37.7359295  36.6105866
  24.8178864  40.9969187  38.8439965  23.8131762  41.3295412  39.4751740
  26.0701203  41.3953161  39.0847301  26.7521167  40.9575701  38.4819365
  26.5426278  42.2811460  40.0956583  27.5915432  42.0809650  40.3143072
  26.3969612  43.7338209  39.5210457  25.3491426  44.0321112  39.4864035
  26.8075490  44.3783951  40.2982521  26.9671774  44.1199160  38.2337499
  26.8020797  43.2702303  37.5712657  26.4892554  45.0129986  37.8311396
  28.5055017  44.3421078  38.3590102  28.6627603  45.1672697  39.0536165
  28.9405751  43.3956385  38.6799550  29.0578222  44.7578287  37.0492291
  28.3482027  44.8861694  36.3420749  30.3483176  45.1441956  36.9546008
  31.1473274  45.1427650  37.9446149  30.7802439  44.8903179  38.8510489
  32.0990467  45.4542780  37.8131056  30.8934927  45.5905628  35.8788419
  30.4013181  45.7465219  35.0107741  31.8515587  45.9095621  35.8577251
  25.8187485  42.0754862  41.4510155  25.4109406  43.0251646  42.0486736
  25.6440473  40.8311701  41.8175745  25.9556627  40.0728130  41.2277508
  24.9876499  40.3919315  43.0976582  24.9424863  41.2751675  43.7347984
  23.6106110  40.0774670  42.7734327  23.2881093  40.9327745  42.1796799
  23.5586929  39.1798544  42.1572351  22.6151013  40.0077057  43.9349127
  22.7624726  39.1443968  44.5838213  22.6289511  40.9601021  44.4648600
  21.2171531  39.8751211  43.3168316  21.0672045  38.8752007  42.9096794
  20.5578089  39.9077511  44.1841841  20.7570720  40.9535074  42.3924255
  20.5632067  41.8313313  42.8528070  20.4684401  40.8638668  41.1108541
  20.7391548  39.8231626  40.4563999  21.0372162  38.9272738  40.8150625
  20.5618596  39.9686050  39.4727778  19.7130978  41.7937899  40.5329895
  19.2843139  42.4752426  41.1428022  19.4513237  41.6239786  39.5724034
  25.7365823  39.1964459  43.6820984  26.0498381  38.2017112  42.9922867
  26.0269618  39.3240261  45.0031900  25.4662299  40.0092173  45.4891872
  26.5728116  38.1958985  45.8273935  26.6625500  37.2659731  45.2658892
  28.0130768  38.5063291  46.2725353  27.9295945  39.5406938  46.6060305
  28.3115768  37.9714417  47.1741438  29.1075206  38.4833002  45.1995277
  29.0837812  37.5865459  44.1019487  28.1848931  37.0147276  43.9246798
  30.1847291  37.4650598  43.2594872  30.2110553  36.8887067  42.3465157
  31.3043237  38.3355689  43.3760166  32.1533751  38.1506252  42.7346849
  31.2402105  39.3198586  44.3806934  32.0034909  40.0838184  44.3936491
  30.2067971  39.3576384  45.2938747  30.1923561  40.1351976  46.0432720
  25.6757188  37.9920673  47.0495987  25.2562451  38.9091325  47.7091455
  25.5140972  36.6937137  47.3781538  25.9776354  36.0133862  46.7930174
  24.8417854  36.2330365  48.5719776  23.8192987  36.6061187  48.6306000
  24.7361898  34.7254276  48.7094498  24.3696713  34.5398974  49.7190714
  23.8250279  34.0391350  47.7887964  22.8392363  34.4112134  48.0678558
  24.0768266  34.2988801  46.7605782  23.9060354  32.9643130  47.9509592
  25.9808493  34.0945411  48.4428453  26.1346126  34.1747952  47.4986458
  25.6178355  36.6705942  49.8855686  26.8143272  36.8908906  49.7847748
  25.0249147  36.7977166  51.1166048  24.0242004  36.7510247  51.2450123
  25.9297562  37.0299816  52.3157072  26.5236092  37.9069734  52.0581675
  25.2076292  37.3363781  53.6245441  24.2122960  37.7710748  53.5325861
  25.0215721  36.3777471  54.1088057  26.0105968  38.1598067  54.6210241
  25.4207063  38.2123208  55.5361032  26.9271255  37.6405668  54.9011469
  26.4682937  39.9242520  54.2464161  24.8224282  40.6911469  54.0217972
  24.9135971  41.7771387  54.0421343  24.4037223  40.4084921  53.0559301
  24.0766096  40.4007864  54.7617626  26.9948816  35.9155226  52.4225140
  28.1251955  36.2002134  52.7550268  26.6156435  34.6282458  52.1531057
  25.6561089  34.4426918  51.8982220  27.5335336  33.4909868  52.2561502
  27.8370333  33.4475112  53.3021402  26.7804170  32.2002649  51.8462706
  25.8819079  31.9904637  52.4265862  26.4750242  32.3227119  50.8071136
  27.7864385  31.0037851  52.0877790  28.6050844  31.0813308  51.3723040
  28.2455993  31.1420727  53.0666304  27.2258663  29.5922494  51.9935703
  26.4775991  29.4984365  52.7805901  26.7918491  29.6634698  50.9962463
  28.3430028  28.5774112  51.9163752  28.9178777  28.7443042  51.0054588
  28.9810920  28.5134363  52.7977657  27.7047443  27.2759151  51.7296410
  26.8925977  27.1655655  51.1394358  28.3459020  26.5918136  51.3541126
  27.4749422  26.9345999  52.6520252  28.7651014  33.7116718  51.4170313
  29.9105835  33.3748436  51.8611622  28.5882998  34.2062616  50.1587915
  27.6480055  34.3433452  49.8165131  29.6374726  34.6679521  49.2117786
  30.3624868  33.8544536  49.1857624  29.2588282  34.7595167  47.7096796
  28.3517456  35.3618717  47.6599503  30.2857280  35.2935767  46.7340183
  30.4418302  36.3605046  46.8933916  31.1621594  34.6469378  46.7768097
  29.7558355  35.3180504  45.7818031  28.8311076  33.5016036  47.2699118
  27.9575276  33.6267829  46.8920279  30.4195404  35.8665895  49.7047138
  31.6245532  35.6762719  49.9537086  29.7503519  36.9184065  50.1384211
  28.7854624  37.0477033  49.8694038  30.4137826  38.0871773  50.7697296
  31.0176444  38.5491729  49.9886942  29.5015025  39.2265916  51.2502766
  28.6379218  38.7931132  51.7546940  30.1822329  40.3835154  52.0409441
  30.2336860  40.1221371  53.0978870  31.1847043  40.5767632  51.6590834
  29.6102810  41.3095570  51.9825029  29.0316582  39.9840117  49.9859524
  28.3267927  39.3372130  49.4635391  28.5287213  40.9268713  50.2008247
  29.8638415  40.3653336  49.3941975  31.3510942  37.6746917  51.8881416
  32.5275588  37.9397678  51.8165350  30.7387948  37.0217776  52.9132080
  29.7314310  36.9704700  52.8613806  31.4832544  36.7083001  54.1178370
  32.0770025  37.5888801  54.3630743  30.5310106  36.4553809  55.3632402
  29.9829197  35.5784965  55.0186110  31.1513591  36.3471532  56.2529373
  29.4698095  37.5356507  55.6643867  28.9509249  37.9362988  54.7935581
  28.4462190  36.9548821  56.6431522  28.9504504  36.3854861  57.4239540
  27.9196858  37.7765012  57.1287537  27.6961350  36.2979126  56.2028503
  30.2379322  38.7484908  56.2319851  30.9269238  39.1555691  55.4919338
  29.5016050  39.5001197  56.5165520  30.7914448  38.5059524  57.1391249
  32.6072383  35.7140446  53.9533520  33.7026429  36.0227895  54.4575691
  32.4476314  34.6934962  53.1627798  31.5725088  34.6826744  52.6586485
  33.5450697  33.8573194  52.7626801  33.9753270  33.6452389  53.7414598
  32.8698134  32.6807547  52.0492840  32.0476937  32.3134947  52.6635599
  32.4508071  33.0479503  51.1124229  33.7067723  31.4493179  51.7790651
  34.3797731  31.6172528  50.9382486  34.3780351  31.3702512  52.6342010
  32.9381824  29.7500777  51.7530823  31.3975191  30.0661826  50.8984613
  30.7332587  30.6818414  51.5049553  31.6447520  30.6289411  49.9983072
  30.9980392  29.0858221  50.6388330  34.6441698  34.5746422  51.9638157
  35.8529329  34.1854262  52.0936775  34.3649483  35.5535483  51.1072206
  33.3807683  35.7797790  51.0897207  35.4283333  36.3018608  50.3555012
  36.0957384  35.5432248  49.9466753  34.7881556  37.1782780  49.2926455
  34.0639043  37.7845216  49.8367405  35.4108357  37.9262304  48.8017941
  34.2493296  36.3240838  48.1466484  33.7131405  35.4603577  48.5398197
  33.2853651  37.0965242  47.3653650  33.7316418  38.0660033  47.1438980
  32.9999995  36.5825272  46.4474964  32.3895025  37.2995782  47.9521370
  35.3445220  35.7195640  47.1818113  36.1642861  36.4019418  46.9571877
  35.7587004  34.8624206  47.7127171  34.8577237  35.3392124  46.2837791
  36.2091470  37.1796203  51.3926840  37.4073291  37.1963072  51.4565802
  35.5038929  37.9393673  52.2534037  34.5039606  37.9064751  52.1150017
  36.0992932  38.9897704  53.1231117  36.5463519  39.7372532  52.4677420
  35.0045657  39.7899437  53.9085627  34.1972876  40.0394440  53.2199669
  34.5936680  39.2681861  54.7728729  35.4330540  40.7142782  54.2959833
  37.1932840  38.5368967  54.0929794  38.2269168  39.1859579  54.3095589
  37.0877790  37.3167682  54.6048307  36.1860657  36.8632889  54.5676899
  37.9991150  36.6627336  55.6111574  37.9364467  37.3675561  56.4402533
  37.3692369  35.3617668  56.0408354  36.3180065  35.4748940  56.3058281
  37.2499156  34.6355247  55.2368259  38.1417441  34.7911835  57.1736097
  39.2349672  35.2571940  57.4709988  37.6867652  33.8533092  57.8278399
  39.4237614  36.5515518  55.0242949  40.4466724  37.0373106  55.4843473
  39.5216155  35.9124064  53.8284874  38.6899352  35.4794192  53.4530783
  40.6909657  35.7887650  52.9371262  41.3707733  35.1570940  53.5089254
  40.1968431  34.9193978  51.7194510  39.2756152  35.3637934  51.3426876
  40.9041452  35.0339770  50.8980513  39.8016667  33.3994532  51.9703579
  40.7773876  32.9992652  52.2458982  39.0482473  33.3944798  52.7580357
  39.3444657  32.8620458  50.6233931  40.0934649  32.5160050  49.7615290
  38.0945992  32.8206325  50.4464865  37.7353239  32.4322391  49.5861578
  37.5564551  32.9529119  51.2908792  41.2273836  37.1674228  52.5840902
  42.4330616  37.4450278  52.8676891  40.3953123  38.0489969  52.0636702
  39.4446611  37.7535319  51.8931818  40.7551765  39.4036150  51.6459322
  41.4812946  39.2517996  50.8473015  39.5419741  40.2698755  51.1859369
  38.6667943  40.2960396  51.8351507  39.9868608  41.2633371  51.1292982
  39.0303087  39.7186661  49.8383904  39.7805524  39.4377112  49.0992689
  38.4526515  38.8134217  50.0253248  37.8735113  40.8249426  48.9219809
  36.6378641  41.2609291  50.1390839  35.9246635  40.4389429  50.2005577
  36.9953632  41.2248087  51.1681557  36.2199736  42.2424126  49.9151182
  41.5283060  40.1607370  52.6980877  42.5498772  40.7272625  52.3965645
  41.0467911  40.1165390  53.9254522  40.1547623  39.7292399  54.1981888
  41.7090607  40.7679510  55.0859594  42.0194864  41.7698002  54.7892618
  40.8385563  40.8464289  56.3440418  40.3634071  39.8867679  56.5474939
  41.5636826  41.2822771  57.6769733  41.9942904  42.2781467  57.5724888
  40.9536695  41.2444544  58.5795021  42.3135471  40.5315447  57.9263926
  39.6471000  41.7999935  56.1826897  39.8702765  42.8168297  56.5057087
  39.2648268  41.8415260  55.1627684  38.4845996  41.3686657  57.1106195
  37.6271415  42.0343065  57.0116949  38.1858277  40.3222656  57.0482635
  38.6933994  41.4533520  58.1770802  43.0450726  40.0967741  55.4552650
  44.0364361  40.8174467  55.7524633  43.1614256  38.8077903  55.3258133
  42.3303652  38.2498765  55.1910210  44.3940973  37.9807067  55.6309509
  44.8697519  38.3972692  56.5188313  44.0916443  36.4822984  55.7631302
  43.6163378  36.1825490  54.8291397  45.0167561  35.9099770  55.8318090
  43.1643391  36.3156986  56.8651438  42.4340153  35.7408881  56.6246796
  45.4931211  38.1622672  54.6193838  46.6765547  38.1290841  54.9884272
  45.1401234  38.3475995  53.3342266  44.1589785  38.3434129  53.0945635
  46.1179829  38.8156843  52.2391176  47.0640469  38.2773066  52.2957754
  45.3713274  38.6053777  50.9253979  44.3461657  38.9718103  50.9789515
  45.8686018  39.2829680  50.2313566  45.4939556  37.2048545  50.3512287
  46.0848856  37.1221590  49.4390535  45.9329319  36.5470958  51.1013937
  44.0359116  36.7452621  50.0566816  43.2693577  37.0047641  50.7868576
  43.6791801  37.1653199  49.1162586  44.0734863  35.2523112  49.9432564
  44.0917349  34.9303746  48.9861155  43.7340021  34.3009329  50.8420706
  43.5072136  34.4927073  52.0739079  43.7116861  35.3766227  52.5177431
  43.2397270  33.6982727  52.6373148  43.6853361  33.0868030  50.4482603
  44.1264677  32.8648615  49.5672131  43.2492304  32.3627663  51.0011435
  46.5288067  40.3263187  52.5411606  47.7206421  40.6043720  52.4690533
  45.6487083  41.2300491  53.0364513  44.7070169  40.8651733  53.0501986
  45.9919071  42.5793314  53.4905100  46.5958261  42.9761553  52.6744747
  44.7610998  43.4547186  53.7476873  44.1543674  42.8720522  54.4408560
  45.1867580  44.7236156  54.4759274  46.0282373  45.0999403  53.8942051
  44.3688393  45.4365301  54.5801306  45.5023623  44.6172762  55.5138016
  43.7924719  43.7179852  52.5819874  43.5506916  42.8159142  52.0199299
  42.8755665  44.2330217  52.8685427  44.5031357  44.6445036  51.5657616
  45.4611826  44.2261219  51.2572050  43.9691162  44.6227074  50.6157875
  44.6927643  45.6247854  52.0030069  46.9992542  42.5355673  54.7366858
  48.0826712  43.1262922  54.7030401  46.7328548  41.6508532  55.6838322
  45.7545185  41.4010286  55.7072639  47.5870371  41.4700413  56.8467712
  47.5478077  42.4554920  57.3109484  46.8792343  40.4803419  57.8021717
  45.9501219  40.9391880  58.1402779  46.5512276  39.6208763  57.2175074
  47.6706553  39.9178171  58.9613819  48.7031555  39.7005081  58.6878586
  47.7455568  40.6734324  59.7433949  46.9483852  38.7404466  59.6285582
  46.5080023  37.8194594  58.8715935  46.7504168  38.7000227  60.8652592
  48.9966202  41.1229086  56.4741373  49.9436426  41.8072033  56.9382095
  49.2202234  40.1224422  55.5732775  48.3917475  39.6568704  55.2312708
  50.5163431  39.6830773  54.9993086  51.0721397  39.3058872  55.8577490
  50.3011942  38.5615921  54.0215445  49.8563099  37.7084303  54.5336914
  49.5856619  38.9147258  53.2789660  51.5663290  38.1494617  53.3236027
  52.2512102  37.0259976  53.7960863  52.0072794  36.6101837  54.7625208
  53.4251833  36.6268992  53.1187487  53.9492702  35.7653117  53.5052776
  53.8892365  37.3959947  52.0401049  55.0837040  37.0169497  51.4566326
  54.9300814  36.9775867  50.5098200  53.1250525  38.4675741  51.5617275
  53.4640694  38.9402914  50.6517792  51.9104099  38.7714005  52.1663332
  51.2505198  39.5172000  51.7483234  51.3101101  40.8650398  54.4992971
  52.4641323  40.9921122  54.8694277  50.7232618  41.6250753  53.5951185
  49.8352480  41.2307405  53.3193874  51.3146925  42.8409195  53.0680943
  52.2621059  42.5571394  52.6098633  50.3633690  43.4013128  51.9616461
  49.3458605  43.5112095  52.3367643  50.6995630  44.8216963  51.4097834
  51.7192698  44.8450422  51.0253954  49.9174261  44.9430084  50.6603479
  50.5201006  45.4837275  52.2569036  50.4307890  42.4596834  50.7858658
  51.4867353  42.2925997  50.5733776  49.9103022  41.5033102  50.8364010
  50.0177431  42.8984785  49.8775959  51.6750956  43.8089275  54.2025757
  52.8157616  44.3127251  54.1858912  50.8224297  44.1420937  55.1486111
  49.9716520  43.6038160  55.2294588  51.1327314  45.0925589  56.2116194
  51.6249943  46.0063028  55.8786869  49.8556280  45.4687214  56.9826937
  49.3612099  44.5258045  57.2162628  50.0523663  46.0677528  57.8718233
  48.8614511  46.3176727  56.1892080  47.5584030  46.7768621  56.6244602
  47.0761299  47.3442030  55.5738211  46.0714006  47.7403212  55.5771065
  47.8567553  47.2952938  54.5247078  47.7092791  47.7795696  53.6507368
  49.0185118  46.5734386  54.8824692  49.8355484  46.2781286  54.2408800
  52.2131681  44.6169662  57.1927977  53.1919813  45.3508472  57.4509621
  52.1863747  43.3314562  57.5897646  51.3334036  42.8831863  57.2871017
  53.0498838  42.5859308  58.5246181  53.2199717  43.1831074  59.4204712
  52.5020456  41.2202597  58.9551878  53.2221031  40.7433558  59.6201563
  51.1757135  41.4516687  59.7994471  50.3976011  42.0766640  59.3612385
  50.7420826  40.4953957  60.0920343  51.5552473  41.8858671  60.7243919
  52.2453117  40.4173136  57.8786516  51.5261507  40.8037567  57.3736000
  54.4578791  42.3813009  57.8167105  55.4562569  42.1623659  58.5019398
  54.4707823  42.4274302  56.4663076  53.5981083  42.3611689  55.9621716
  55.6867313  42.4239206  55.6768322  56.4669228  41.9401121  56.2644911
  55.6042480  41.6233015  54.3128443  54.5671988  41.7270660  53.9936876
  56.2706089  42.0668697  53.5730362  55.8951998  40.1491833  54.4218159
  55.4837418  39.6096110  53.5687828  56.9796515  40.0506258  54.4702959
  55.3686428  39.2490220  55.5393028  55.7048750  39.7206235  56.4626884
  54.2926025  39.2251658  55.3670502  55.7357454  37.7722669  55.3848267
  55.4412556  37.2578502  56.2995672  55.1216125  37.3872590  54.5707560
  57.1515226  37.6207280  55.2908993  57.3744297  36.6370463  55.2380610
  57.4460220  37.9612136  54.3867731  57.6231480  38.1710148  55.9943581
  56.2339401  43.8516665  55.4120588  57.1891356  44.0687656  54.7110176
  55.5653286  44.8531294  55.9290934  54.7141171  44.5832634  56.4010191
  55.8493853  46.2439823  56.2434769  55.2177429  46.5145111  57.0896101
  57.3334694  46.4612675  56.6412210  57.9551220  46.5630436  55.7516718
  57.3973370  47.4076557  57.1782207  57.9403639  45.4144430  57.5436306
  57.3399258  44.9707985  58.5290289  59.2037201  45.1748991  57.3306561
  59.6274424  44.3388176  57.7068567  59.6900606  45.7030344  56.6202688
  55.4393816  47.2159624  55.0790787  56.0470390  48.2675648  54.8721123
  54.4075823  46.8839407  54.3049574  53.9905596  45.9870195  54.5092344
  53.9168119  47.5565910  53.0784655  54.3460464  48.5551071  52.9958296
  54.2847919  46.6580105  51.8465948  53.9295578  45.6493616  52.0576191
  53.6052704  46.8771887  51.0229969  55.6724215  46.5891027  51.2980556
  56.5866041  45.7972383  51.9505930  56.3091564  45.1473379  52.7673292
  57.9852486  45.8077383  51.6417551  58.6920547  45.2542877  52.2421789
  58.4279680  46.6779852  50.6135130  59.4823837  46.7307901  50.3858614
  57.5051785  47.5258017  49.9832296  57.7922201  48.2025576  49.1920137
  56.1341524  47.4956417  50.3581715  55.4780626  48.2088900  49.8814917
  52.4424076  47.8608370  53.1926155  51.8053198  47.6815033  54.2224884
  51.8636513  48.5960102  52.2195578  52.5495052  48.8434458  51.5206432
  50.4339600  48.9490080  51.9746637  49.8130894  48.1830597  52.4393559
  50.0225401  50.3167725  52.5183105  48.9800596  50.2269602  52.2129154
  50.1203489  50.4047871  54.0923405  49.7309494  49.5184374  54.5931864
  51.1432266  50.5493450  54.4400787  49.4948959  51.1976194  54.5026207
  50.6940603  51.5178967  51.8724394  51.7763758  51.4113569  51.9455194
  50.4461527  51.6098261  50.8149910  50.1858377  52.7774572  52.5253582
  50.5106640  53.7197065  52.0840454  49.1031313  52.7222109  52.4122190
  50.4563904  52.8327370  53.5797977  50.1411629  48.8662910  50.4222727
  51.0751200  49.2172575  49.6683788  49.0353155  48.3847618  49.9564600
  48.3340645  48.0982780  50.6244993  48.7680054  48.2418299  48.5089254
  49.7102928  47.8930330  48.0864000  47.5834036  47.2834921  48.2682467
  47.6194334  46.3223791  48.7811470  46.6237068  47.6883316  48.5894728
  47.4304247  46.9214439  46.7507696  46.7184305  47.6691437  45.7795620
  46.7483044  46.9484138  44.6525431  46.2758064  47.2674990  43.7353039
  47.5574684  45.8988953  44.7972488  47.6470661  45.1279736  44.1509104
  47.8369379  45.8047247  46.1400795  48.3673286  45.0593519  46.7141056
  48.5498857  49.6580362  47.7854872  49.0996981  49.8942184  46.6882896
  47.7449131  50.5817127  48.3273077  47.3226547  50.3756905  49.2213774
  47.4810314  51.9158363  47.7687693  47.0259619  52.4535942  48.6005354
  48.7895536  52.7649212  47.4383974  49.2933273  52.2939968  46.5942717
  48.5078907  53.7861300  47.1816826  49.6918392  52.8451586  48.6174726
  49.1035080  52.7507305  49.5301867  50.3408909  51.9796324  48.4844065
  50.3991938  54.2423248  48.6402321  49.7546721  55.1066446  48.4800625
  50.8673334  54.4076252  49.6106005  51.3950920  54.2620182  47.5627327
  51.6127539  53.3492565  47.1891069  51.9609308  55.3606319  46.9858980
  51.5848064  56.5716362  47.3153543  50.6863260  56.6474342  47.7704334
  52.1535015  57.3947763  47.1770477  52.8855848  55.2384138  46.1599493
  53.3858490  54.3841219  45.9598875  53.1383038  56.0064173  45.5546379
  46.4373016  51.9642496  46.6800642  46.0125399  53.0600214  46.3506699
  46.0436106  50.8919764  46.0093546  46.4515257  49.9924231  46.2203407
  45.0623178  50.8878469  44.9393559  44.3859816  51.7328167  45.0685930
  45.7943583  51.1946249  43.5776520  46.2535095  52.1831989  43.5763597
  46.5802622  50.4616117  43.3955956  44.9210024  51.3003254  42.2951698
  43.6971235  51.4086103  42.3127651  45.5141640  51.1722040  41.2377548
  44.2180157  49.6335316  44.8537397  43.9271498  48.9392233  43.8349724
  43.7879467  49.2324352  46.0564661  44.1156483  49.7614861  46.8519640
  42.7228689  48.2736874  46.3305235  43.1269836  47.3073912  46.0287571
  42.5185585  48.3426666  47.8953314  42.4724197  49.3821526  48.2200432
  41.1949158  47.7456903  48.2903147  41.2564611  46.6712189  48.1176138
  41.0187244  47.8404951  49.3617964  40.3730011  48.1721687  47.7152777
  43.7276411  47.7611971  48.6920691  44.5511389  48.4662056  48.5784292
  43.4226418  47.8016376  49.7377443  44.3042326  46.4018393  48.2991409
  43.4708071  45.7084513  48.4118509  44.7322607  46.4492130  47.2978115
  44.9924469  46.1971569  49.1192436  41.3790703  48.5539293  45.5714273
  40.7882357  49.6370697  45.6881905  40.8896780  47.4905586  44.8914671
  41.4616585  46.6603994  44.9529219  39.5875549  47.4111366  44.2312050
  38.8616991  47.9798889  44.8123741  39.6587896  48.2639742  42.9077959
  38.8156438  48.1517935  42.2261620  39.6236658  49.2881536  43.2791758
  40.8743525  47.8755331  42.0688915  41.7562628  47.7044773  42.6862049
  40.5341482  46.9551563  41.5942669  41.1966085  49.1045380  41.1184549
  40.2668953  49.3521214  40.6061697  41.5124369  49.9209929  41.7678785
  42.2741127  48.8613939  40.0976181  42.1086073  47.9871273  39.4680405
  42.2857428  49.7832775  39.5161581  43.5645342  48.7525129  40.7877254
  43.9209509  49.6640348  41.0371256  43.5550117  48.2474518  41.6623259
  44.2021608  48.2459211  40.1903152  39.2665052  45.9095144  43.9607048
  40.1514864  45.0694036  44.2106199  38.0472279  45.5232477  43.5110521
  36.8717766  46.3435221  43.1752634  37.0595121  46.7345905  42.1753025
  36.7526078  47.2307873  43.7970781  35.7086587  45.3905439  43.0917597
  35.0216627  45.9042406  42.4192572  35.2975893  45.3208971  44.0988684
  36.3702631  44.0855646  42.6234436  36.3674617  44.0576792  41.5338039
  35.7456326  43.2870102  43.0237436  37.8197598  44.1252279  43.1807375
  37.8076267  43.5737944  44.1208839  38.7851572  43.4767580  42.1400547
  39.2722368  42.3362398  42.2986650  39.1483498  44.2856836  41.1793232
  38.7550592  45.2068853  41.0496378  40.1128197  44.0281296  40.0935316
  39.5238090  43.4312439  39.3971872  40.4818249  45.2033949  39.1921687
  41.3004446  45.6011724  39.7919464  40.8657169  44.8166847  38.2481456
  39.3984580  46.2590551  39.0593338  39.5083547  47.1504545  38.1915355
  38.4776020  46.3897896  39.8885584  41.3918161  43.3182240  40.4884863
  41.9888353  42.6072502  39.7188425  41.8872547  43.5250235  41.7106533
  41.4012146  44.1383219  42.3491907  43.1530762  42.9626656  42.2235870
  43.8433695  42.9121113  41.3815403  43.7801743  43.8404560  43.3370781
  43.3077240  43.6044216  44.2905855  44.7756100  43.4665108  43.5766077
  43.6751032  45.3321934  43.1147146  43.3638334  45.8870459  42.0417452
  44.0516996  46.0712719  44.1128302  43.9165974  47.0718670  44.0872955
  44.4805670  45.6067657  44.9004889  42.9690647  41.5254068  42.7390385
  43.9405584  40.8915949  43.2469606  41.7685604  40.9587049  43.0025339
  40.9635639  41.5407658  42.8200865  41.4718437  39.8174500  43.7381840
  42.3694038  39.4938588  44.2652273  40.3674936  40.1727057  44.8028660
  39.6717715  40.9082127  44.3989992  39.9440050  39.2195296  45.1194286
  40.9640741  40.8462286  46.0303736  41.8343210  40.0890446  46.8348312
  42.1143961  39.0746546  46.5919685  42.4155807  40.5678606  48.0407619
  43.1270123  39.9489951  48.5673285  42.0770502  41.8864489  48.4297085
  42.5198555  42.2805262  49.3324995  41.1955500  42.7154064  47.6291084
  41.0353708  43.7426376  47.9215860  40.6544065  42.1891546  46.4002132
  39.9792051  42.7424908  45.7643366  41.1175728  38.6594415  42.7797031
  39.9579716  38.5387301  42.4692774  42.0752430  37.8457594  42.3937845
  42.9993248  37.9286861  42.7929020  41.7863607  36.8419766  41.3374281
  40.8722162  37.0415902  40.7783270  42.8846121  36.9181705  40.1775169
  43.8446903  37.0888400  40.6645775  42.9316902  35.8925414  39.8115015
  42.6573753  37.9830074  39.0602422  41.8200779  37.7413869  38.4055185
  42.5859594  39.4129777  39.6510100  41.6704655  39.5899606  40.2155066
  43.3484554  39.5553875  40.4167938  42.6121902  40.2163458  38.9147949
  43.8371897  37.8749752  38.1734586  44.7720766  37.9543710  38.7282395
  43.8238573  37.0249319  37.4912953  43.7636042  38.6941266  37.4581432
  41.7092752  35.4003763  41.9626236  42.5195789  35.1274800  42.8238201
  40.8158779  34.5200038  41.5040159  40.1982450  34.8422813  40.7727385
  40.8087969  33.0726767  41.7834044  40.5919981  32.9154205  42.8399849
  39.5821285  32.3920321  41.1020517  39.8617649  32.3416877  40.0497341
  39.4962215  31.4006472  41.5468836  38.1347919  32.9337978  41.2078094
  38.0799794  33.8383794  40.6021452  37.4766994  32.1761584  40.7823706
  37.8299022  33.3602738  42.8967857  37.5835085  31.7259192  43.6735392
  37.3069024  31.9466949  44.7044849  36.7684293  31.1922741  43.1846857
  38.5164928  31.1640739  43.6291552  42.1592665  32.4097776  41.4147139
  42.7021742  32.7171922  40.3415632  42.6596355  31.4502740  42.1974373
  42.2833347  31.2693715  43.1170940  43.8998938  30.7164550  41.9574022
  44.6029043  31.4278173  41.5239954  44.3024969  30.2419066  42.8522873
  43.6018419  29.6194553  40.8505344  42.7583981  29.7046065  39.9501038
  44.3618488  28.4600782  40.8214474  45.0749111  28.4089160  41.5349102
  44.2999649  27.3277593  39.8691034  43.3043718  27.3417521  39.4255948
  45.2786303  27.5414348  38.6652803  45.1317644  28.5679793  38.3295178
  46.7031765  27.3499775  39.1025615  46.9805384  27.8925443  40.0063276
  46.9016552  26.3056588  39.3436241  47.3131752  27.6038337  38.2356405
  44.8836279  26.6934156  37.4091363  44.9132490  25.6317329  37.6541996
  43.8212109  26.8525887  37.2246552  45.5710125  26.8491030  36.0838580
  46.6262054  26.5790677  36.1257315  45.0755739  26.1805797  35.3797865
  45.5535889  27.8793931  35.7284689  44.4303036  25.9975958  40.6299639
  44.9751234  25.9571624  41.7400551  43.9288998  24.8572922  40.0842142
  43.3962584  24.9733615  39.2339659  44.0529728  23.5426664  40.6851339
  43.5220003  22.8724217  40.0091648  45.1083612  23.2725883  40.7214737
  43.4771109  23.3405685  42.1626139  42.3096800  23.6812067  42.4744749
  44.3408680  22.8881526  43.0844927  45.2986860  22.7393174  42.8007221
  43.9989376  22.6965952  44.4977188  43.0517960  22.1575427  44.5187473
  45.0728369  21.7969537  45.1690817  44.6777582  21.3878536  46.0989523
  45.2429533  20.9476066  44.5074415  46.4123869  22.4571085  45.4166889
  46.7280293  22.8896427  44.4672728  46.3478708  23.3663368  46.0143852
  47.4017954  21.6026378  46.1314154  47.0113802  21.5813661  47.1488762
  47.4959612  20.5824900  45.7592106  48.7174129  22.2328544  46.0849857
  49.2391396  22.1725535  45.2222776  49.3417406  22.8010678  47.0667934
  48.9518929  22.6203299  48.3553028  48.3283663  21.8519545  48.5576057
  49.5320845  23.0581045  49.0566063  50.3218746  23.5535598  46.8177032
  50.6459665  23.7507653  45.8816576  50.7355022  24.1883302  47.4855947
  43.8352156  24.0398693  45.2329254  43.2175541  24.0912938  46.3245106
  44.1777849  25.1731014  44.6818209  44.4037914  25.1392317  43.6980152
  43.9490509  26.5168524  45.1569128  43.4750509  26.4101911  46.1326456
  45.2699089  27.2112942  45.3405523  45.8821249  27.1438074  44.4412518
  45.0813437  28.2565451  45.5854797  46.2033415  26.6511250  46.3638639
  45.7948160  26.3687897  47.6582050  46.8724966  25.7715845  48.1792927
  46.9142103  25.4519629  49.2100716  47.9304886  25.7809281  47.4061728
  48.8580322  25.5490422  47.7317524  47.4940729  26.2490463  46.1888409
  48.0889606  26.3720727  45.2958870  42.9881954  27.2984529  44.2012596
  42.8985929  28.5445309  44.3068361  42.1387720  26.5783739  43.3918047
  42.1335840  25.5685282  43.3750153  41.2560225  27.2488189  42.3770094
  41.9475508  27.8340268  41.7708588  40.6451893  26.2295628  41.4060497
  41.4534330  25.6842971  40.9186792  39.9793196  25.5399776  41.9248867
  39.7353101  26.9882679  40.1174498  38.5240722  26.7494607  40.6281042
  40.1635170  28.1262159  43.0582523  39.7713923  29.1457248  42.6171875
  39.6651554  27.6022410  44.1870070  40.0898218  26.7371750  44.4893599
  38.6854482  28.1691051  45.0528431  37.9291916  28.7133408  44.4871759
  37.9292011  27.1012235  45.8126497  38.7108898  26.4715123  46.2375355
  37.3320174  27.5229931  46.6210938  37.0139551  26.3001657  44.9744463
  36.2666726  26.8421578  44.1615772  37.1478724  25.0014544  45.0520515
  36.5929699  24.4483614  44.4146538  37.7509284  24.5795345  45.7437181
  39.2830873  29.2291403  46.0126400  38.5012031  29.7439027  46.7383432
  40.6057072  29.6121621  45.9417725  41.2752628  29.0866804  45.3980112
  41.2199306  30.6090975  46.8948460  40.4836321  30.8761311  47.6529074
  42.4181843  29.8833966  47.5574160  43.2057476  29.6389174  46.8446207
  42.8348303  30.5713320  48.2931089  42.1057320  28.5295391  48.2111597
  41.1252928  28.6698508  48.6662912  41.9547892  27.8549910  47.3683643
  43.1357908  28.0415893  49.1710949  44.0977955  28.1169987  48.6641836
  43.2451534  28.6656284  50.0580645  42.9292679  26.5765500  49.6081305
  41.9365883  26.4273906  50.0329113  42.9326820  25.8871031  48.7638855
  43.9357615  26.2025976  50.6584167  44.7764826  26.7478728  50.7847738
  43.4607840  26.0271740  51.5323257  44.2019939  25.2861285  50.3278065
  41.5305805  31.9325852  46.1771154  41.8450594  31.9857526  45.0201321
  41.4878607  33.0710864  46.9063091  40.9945726  33.0235982  47.7863789
  41.8422222  34.3598390  46.3225985  41.4600277  34.2870665  45.3043985
  41.1430502  35.4565907  47.1846581  41.4836121  35.3738523  48.2167816
  41.4436054  36.3709974  46.6731691  39.5985961  35.4665208  47.2421312
  39.2241549  34.5185208  47.6283836  39.0781879  36.5116525  48.1473875
  39.3347406  37.5248456  47.8379822  38.0165720  36.4085603  48.3719921
  39.5333433  36.3388538  49.1226196  39.0477872  35.7619858  45.8357859
  39.3884802  36.7182875  45.4388952  39.2817521  34.9764943  45.1172018
  37.9648066  35.8700490  45.8955717  43.3476877  34.5301414  46.3485956
  44.0187311  34.3346906  47.3744392  43.8689947  34.9861717  45.2708530
  43.3232498  34.9051118  44.4248676  45.1839590  35.6189585  45.0525999
  45.7775927  35.3815961  45.9354115  45.9168434  34.9681759  43.8474941
  45.2777576  34.9372029  42.9650497  46.7853498  35.5586791  43.5557604
  46.3875055  33.5677576  44.0830088  45.4427671  32.5709271  44.1327715
  44.4302177  32.7764249  43.8182402  45.7377911  31.3392448  44.7450066
  44.9240685  30.6349063  44.8353291  47.0592785  31.0291386  45.1770592
  47.3213720  30.1248932  45.7062531  48.1013489  32.0640850  45.0089502
  49.1245937  31.9373369  45.3303671  47.7147245  33.2955933  44.4201088
  48.4839725  34.0462589  44.3144941  45.0411463  37.1733880  44.9615240
  43.9524126  37.7344131  44.9467850  46.2180614  37.7843022  45.2721500
  47.0117664  37.1848798  45.4477406  46.3418388  39.2632532  45.2811623
  45.4771280  39.6995807  44.7811604  46.4273405  39.8657775  46.7359686
  45.5234337  39.5835900  47.2758055  47.2637939  39.3821025  47.2404575
  46.6129541  41.4251709  46.8789196  47.5657225  41.7349434  46.4495182
  45.5204058  42.3780870  46.4373064  45.5138445  42.2800016  45.3517485
  44.5750761  42.0073032  46.8335056  45.6808233  43.4348059  46.6511202
  46.7899370  41.6945267  48.4405565  45.9139919  41.3720942  49.0034580
  47.7109241  41.1860847  48.7258148  47.0242214  42.7438498  48.6198330
  47.4475193  39.8135471  44.3982935  48.4914207  39.2223382  44.4177485
  47.2525024  40.8134127  43.5688925  46.3390875  41.2444305  43.5682631
  48.1136417  41.3115358  42.4624825  49.1733789  41.0976839  42.6014662
  47.6466179  40.6192064  41.1394405  48.2452536  41.0259485  40.3243971
  48.1706285  39.1801620  41.1062574  47.6309729  38.5101485  41.7755461
  48.0044174  38.7541842  40.1168013  49.2426538  39.1136360  41.2918377
  46.0879993  40.7357693  40.9070778  45.5693102  39.8379087  41.2430954
  45.7825756  41.6307735  41.4491034  45.7762194  41.0140228  39.4622350
  44.7665501  41.3486814  39.2241430  46.3127851  41.9212103  39.1843629
  46.1670351  40.1678181  38.8971734  48.1194496  42.8178358  42.4072838
  47.4927759  43.5763741  43.1419754  48.6683083  43.3606529  41.3211727
  49.1875219  42.6975441  40.7636690  48.7340784  44.8090029  40.8748531
  49.2721939  44.8283911  39.9271417  47.3170948  45.3749514  40.5382156
  46.7925835  44.5754385  40.0149870  46.8447065  45.4610348  41.5167570
  47.1577597  46.8111706  39.9320889  48.1063557  47.5840282  39.6512818
  46.0443020  47.2683525  39.6744204  49.5588684  45.7097769  41.9324970
  49.1260672  46.7239380  42.4658346  50.7789421  45.2630568  42.2042561
  51.1886263  44.5748758  41.5889025  51.6836405  45.9155703  43.1876516
  51.1886358  46.2773418  44.0888739  52.6023245  44.8058748  43.7916660
  52.9968596  44.2060614  42.9715061  53.4110117  45.2962160  44.3336010
  51.9526434  43.9138126  44.7980595  51.6198778  44.4278955  46.1098909
  52.1228981  45.3244638  46.4408493  50.8021879  43.6681604  46.9586897
  50.6391573  44.0155363  47.9682207  50.3171206  42.3942327  46.5736198
  49.6423340  41.9391918  47.2835541  50.6154537  41.9003010  45.2914715
  50.3777933  40.8934021  44.9815083  51.4601326  42.6360512  44.4143200
  51.6301632  42.3738861  43.3805132  52.5907755  47.0859432  42.6743174
  53.6356688  47.3637295  43.2193804  52.3040867  47.6618195  41.4943218
  51.3977671  47.4383354  41.1086464  52.9187679  48.8374615  40.8143187
  53.9063549  48.5955715  40.4215670  52.3837042  49.0434694  39.8873019
  53.0816841  50.0901508  41.6528416  54.1610670  50.6951475  41.6361618
  52.1060467  50.3875399  42.5781155  51.2727690  49.8179197  42.5422955
  52.0069361  51.5798235  43.3872795  52.8727722  52.1966839  43.1466150
  50.7000685  52.2768593  43.0339813  50.6490898  52.3626232  41.9485569
  49.9186850  51.5640402  43.2974863  50.3572798  53.6639452  43.6210012
  50.6804276  53.8053226  44.6523571  51.0173416  54.7354794  42.7844334
  52.1042538  54.6596241  42.7533388  50.5503941  54.8022413  41.8017817
  50.9929323  55.7334375  43.2221413  48.8530827  53.8092613  43.5843611
  48.4738588  53.6702061  42.5719643  48.4555101  53.1179667  44.3274307
  48.6026382  54.7985172  43.9674473  52.1757174  51.2303305  44.8536682
  52.3727369  52.1123028  45.6447840  52.2648573  49.9871111  45.2791882
  52.3568392  49.3033218  44.5415735  52.4105978  49.5640039  46.6816235
  51.5295029  49.8012686  47.2778463  52.6970816  48.0240011  46.7226982
  53.5216475  47.9318428  46.0158062  53.0763626  47.6597548  47.6774645
  51.8593693  47.5164843  46.2444067  53.6066389  50.3299665  47.3701811
  54.6447182  50.7246208  46.7155361  53.5250473  50.5383492  48.7157869
  52.6906443  50.1795816  49.1575527  54.4918156  51.4138079  49.4121981
  55.4083061  51.4090490  48.8221788  53.8698578  52.7970171  49.5031071
  53.4714413  52.9997969  48.5090017  53.1068945  52.7454519  50.2798462
  54.8699999  53.9559221  49.8230648  55.2013350  53.9208031  50.8608913
  55.8152676  53.8059473  49.3014479  54.3370676  55.3605652  49.4284344
  54.6300888  55.5990314  48.4060001  53.2473993  55.3683758  49.4542265
  55.0652409  56.3922644  50.3448725  54.9763727  55.9729767  51.3470697
  56.1269855  56.4981270  50.1221561  54.4432497  57.7395105  50.2969170
  54.2222691  58.0914545  49.3763733  53.5391760  57.6917934  50.7446575
  55.0179958  58.4760475  50.6806898  54.9676037  50.8401203  50.7543039
  54.1355467  50.3737879  51.5568590  56.2530327  50.9180641  51.0766745
  56.8825150  51.3035011  50.3872633  56.7971134  50.6081247  52.3926115
  56.3538933  49.6733475  52.7359104  58.2939482  50.2984858  52.2529364
  58.3916187  49.7344398  51.3253498  58.8375139  51.2376213  52.1496773
  58.7676764  49.4237518  53.4115171  58.4630013  49.8508024  54.3669748
  58.2763338  48.4546328  53.3249855  60.2065897  49.1674185  53.4210968
  60.8202934  50.0514746  53.5940313  60.3407669  48.5866117  54.3336535
  60.8330202  48.5327530  52.1889782  60.6162882  47.4657011  52.1387100
  60.6544065  49.0015554  51.2212944  62.2937584  48.4680128  52.1955967
  62.6901388  49.3924618  52.1040106  62.5954676  48.0737925  53.0751753
  62.6283455  47.7876472  51.5283251  56.4842224  51.6818476  53.5024357
  56.9551277  52.8305149  53.4743595  55.7020378  51.2867403  54.5339489
  55.5207396  50.2966833  54.6177006  55.3930902  52.2056150  55.6682110
  55.5083275  53.2196808  55.2854824  53.9077377  52.0080137  56.2135220
  53.6123848  52.9000998  56.7658377  53.2618332  51.8462801  55.3505325
  53.7291145  50.7604170  56.9626236  53.9367199  50.7548618  58.4198189
  54.2488718  51.6561937  58.9263439  53.5625172  49.5620251  59.1997433
  53.6766195  49.6204042  60.2721119  53.1186485  48.3881760  58.5493994
  52.7806902  47.2950649  59.2349625  52.8357458  46.4678192  58.7509775
  53.0618763  48.4466505  57.1411419  52.7743578  47.5844002  56.5578222
  53.2300711  49.6131659  56.3695288  53.0995846  49.5331192  55.3004313
  56.4220953  52.2262192  56.7880774  56.3469267  52.9918528  57.7745152
  57.3848343  51.3073826  56.8017101  57.3616457  50.7072973  55.9896374
  58.2127666  51.0372972  57.9651928  58.5141420  52.0346022  58.2855844
  57.4094057  50.2957439  59.0552855  56.6071081  50.9702110  59.3544769
  56.8659019  49.4611931  58.6123085  58.1949997  49.8241282  60.3455544
  58.9584255  49.1397762  59.9754810  58.6006260  50.7480764  60.7577276
  57.3685217  48.9893007  61.3277817  58.0942059  48.7192917  62.0949697
  56.6190529  49.5752811  61.8597841  56.8783379  47.7271748  60.7523441
  57.6710176  47.2906303  60.3038025  55.7672977  47.0967340  61.0554218
  54.8891735  47.6545572  61.8258047  54.9862051  48.6276150  62.0784760
  54.0360355  47.1433163  62.0015574  55.4667521  45.9260464  60.6140041
  56.0931444  45.4917240  59.9513626  54.6307898  45.5046797  60.9931040
  59.5697403  50.4417849  57.7095222  59.6965837  49.4117832  57.0749807
  60.6444025  50.9561539  58.3119345  60.5616570  51.8368912  58.7993288
  62.0072222  50.4261160  58.2017422  62.1299505  49.9902058  57.2102642
  62.9776716  51.6069031  58.2105303  62.6081181  52.3270512  57.4805164
  62.9401779  52.1783781  59.1379595  64.4392014  51.2202597  57.7829266
  64.6782494  50.0315666  57.6690149  65.3117323  52.0602322  57.3832941
  62.4046183  49.4285345  59.2621469  62.9019403  49.8730183  60.2906847
  62.0601320  48.1047249  59.1460991  61.2726831  47.8646994  58.5609388
  62.2689152  47.1597672  60.2375889  61.7024517  47.5117540  61.0997534
  61.7566395  45.7509708  59.9799395  62.1096516  45.3627491  59.0245533
  62.1277285  45.0865364  60.7602692  60.2899122  45.6659508  60.0769949
  59.6252775  46.7315102  60.2047253  59.7946930  44.4860220  60.3350973
  58.8020229  44.3825102  60.1802206  60.4391336  43.7087536  60.3607845
  63.7734556  47.1410751  60.6943893  64.0179968  46.6168737  61.7149115
  64.7757721  47.6802492  60.0088692  64.5502043  48.3317709  59.2708063
  66.1175203  47.9341316  60.5122089  66.5764952  47.0087385  60.8601856
  66.9061232  48.6425066  59.4081211  66.4654398  49.6229076  59.2272329
  67.9182911  48.8315630  59.7657108  66.9486761  47.9008770  58.0438948
  67.3506927  46.9168282  58.2849979  65.9702635  47.7631664  57.5836277
  67.9186726  48.5764933  57.0441246  68.8325405  48.8772249  57.5564814
  67.9853153  47.8220177  56.2602711  67.2782278  49.7940111  56.5211201
  66.3921547  50.0546217  56.9298458  67.3474216  50.3198624  55.3243065
  68.0011654  49.8061371  54.3447781  68.3165979  48.8646364  54.5296431
  67.8443718  50.0933933  53.3892632  66.6742516  51.3735628  55.0909472
  66.4096594  51.8482256  55.9422922  66.5446234  51.8268824  54.1977549
  66.1797810  48.7830591  61.7428017  66.9244528  48.5280752  62.6887941
  65.2277231  49.6697712  61.8643284  64.6655226  49.7690725  61.0311508
  65.0345421  50.6135321  63.0783987  65.6660414  50.2486897  63.8884592
  65.3914404  52.0656633  62.6685810  65.4791069  52.6882076  63.5590029
  66.7982483  52.1485901  61.9485807  66.9506121  53.2047892  61.7265081
  67.5212288  51.5935659  62.5463629  66.8301201  51.7198658  60.9469414
  64.3996811  52.4314499  61.7635632  64.8236609  52.9998922  61.1164808
  63.5574245  50.6609154  63.6056471  63.2029915  51.3212919  64.6080780
  62.6851130  49.9409580  62.9661274  62.9874992  49.5322609  62.0934105
  61.1908579  49.9740171  63.1530046  60.7918310  49.4358540  62.2932053
  60.7650328  49.2158890  64.4131756  61.0053825  49.7265291  65.3456879
  59.6776056  49.1779852  64.3486166  61.3669348  47.8301048  64.4847298
  61.4646626  47.3699713  63.5014582  62.3602390  47.9678488  64.9118900
  60.4971838  46.9638205  65.3551531  60.1781559  47.5976372  66.1825562
  59.6334696  46.5688467  64.8202753  61.3011503  45.8868885  65.9979391
  62.2727108  45.8339500  65.7270670  60.8040714  44.9440336  66.8134451
  59.5760536  44.9633884  67.2444010  58.8260126  45.3429461  66.6845083
  59.4875336  44.6019268  68.1833410  61.6110849  43.9730787  67.1474266
  62.4532318  43.8241291  66.6101122  61.4981174  43.5006762  68.0329609
  60.5961514  51.4337349  63.0459118  59.6063566  51.6837978  63.6927986
  61.1388397  52.3452902  62.3201609  61.9412088  51.9725847  61.8329382
  60.6042242  53.7310219  62.1819019  60.3279591  54.1443968  63.1518984
  61.7563391  54.6173620  61.7121220  62.2983694  54.0469456  60.9578466
  61.3722229  55.5146694  61.2269402  62.5468397  54.9235487  62.9990625
  61.9620705  55.4923344  63.7219954  62.8945017  54.0601158  63.5662651
  63.7725544  55.7080030  62.6927090  63.7840080  56.6228056  61.8535519
  64.6975899  55.6454563  63.6033535  65.6182098  56.0401297  63.4737730
  64.5333338  55.0757217  64.4209862  59.4151592  53.8567209  61.1252403
  59.5442057  53.3731747  60.0163937  58.3015585  54.5365477  61.4427233
  58.1863165  54.9745798  62.3454714  57.2558212  54.8040533  60.4804707
  56.8905830  53.8704491  60.0525904  56.0309982  55.2392340  61.2783718
  55.8493233  54.5613050  62.1123409  56.2083864  56.2218618  61.7155027
  54.7827911  55.3055048  60.5781269  54.2693233  54.2719698  59.7768259
  53.2341385  54.7501135  59.1240835  52.6939964  54.1831684  58.3802843
  52.9747820  55.9707642  59.6572781  52.1656942  56.5163851  59.3969393
  53.9398146  56.3196039  60.5996180  54.1028309  57.2693396  61.0872984
  57.7204800  55.8691120  59.4419050  58.4189558  56.7999172  59.7694731
  57.1041822  55.8411169  58.2487106  56.4214373  55.1078033  58.1213903
  57.1667814  57.0078564  57.3598051  58.2177782  57.2562742  57.2121572
  56.4681149  56.7112255  56.0324430  56.2942123  57.6467085  55.5007172
  57.3102093  55.7176447  55.1800299  56.9546747  55.5658150  54.1608906
  58.3140373  56.0668230  54.9381495  57.3941469  54.7387362  55.6520367
  55.0694752  56.1268711  56.2381649  55.0379229  55.1798010  56.7768383
  54.5931578  56.7685699  56.9794083  54.1378498  55.9280396  55.0157642
  54.4062471  54.9715614  54.5671940  53.1066656  55.7422733  55.3161907
  54.2903423  56.6998529  54.2613459  56.5935278  58.2278013  58.0113316
  55.8112717  58.2533789  58.9203215  57.1138525  59.4561625  57.7034044
  58.2022905  59.7713804  56.7625666  58.0400229  59.2648458  55.8111572
  59.1909647  59.5812511  57.1802711  58.2112026  61.3020325  56.6524076
  57.6588249  61.6411734  55.7760715  59.2287350  61.6802168  56.5538454
  57.5953007  61.7656565  57.9602575  57.2138023  62.7851200  57.9032278
  58.3500385  61.7537642  58.7466002  56.5185595  60.7404041  58.2222843
  56.3076162  60.6642437  59.2889643  55.2271605  61.1255646  57.4716282
  55.0601339  60.7966614  56.2807846  54.2957926  61.7205095  58.1426239
  54.3925858  61.8930626  59.1330624  53.1653690  62.3655128  57.5654078
  52.4464846  61.6792679  57.1177816  52.3607063  63.0051327  58.7401533
  52.0917130  62.2235966  59.4507456  52.9587841  63.7686968  59.2375183
  51.1350107  63.6457396  58.1809759  49.9771357  62.9241276  58.0071735
  49.9107933  61.8563366  58.1549168  48.7732935  63.6004734  57.6282597
  47.8230000  63.1030035  57.5022745  48.7512970  64.9959660  57.3792362
  47.6520061  65.7291746  56.9739151  46.8061924  65.3352833  57.1998644
  49.9811506  65.6922197  57.4278927  49.9171162  66.7518377  57.2291327
  51.1488724  65.0086164  57.8555584  52.0387411  65.6204653  57.8422165
  53.4904575  63.3182669  56.4923620  54.5434332  63.9583492  56.5354633
  52.6849365  63.4988308  55.4285145  51.8133211  62.9891634  55.4534817
  52.8342628  64.5324039  54.4153833  53.3659363  65.4005527  54.8049402
  53.4241819  64.0449286  53.0567789  52.7846384  63.2166100  52.7518606
  53.3013725  64.7616005  52.2447443  54.9052715  63.6724091  53.0163765
  55.0593615  62.7595568  53.5917664  55.1713514  63.4099293  51.9924593
  55.8461380  64.7859621  53.5223579  55.8312178  65.7538557  53.0212831
  55.5968523  65.1295185  54.5263100  57.3217344  64.3888998  53.4358644
  57.5640059  63.4391594  53.1921434  58.2906246  64.9572802  54.1118479
  58.1889296  66.0304213  54.8437977  57.3225355  66.5452671  54.9101114
  58.8666153  66.0970640  55.5897236  59.4249153  64.3240070  54.1627932
  59.5595932  63.5285330  53.5551882  60.2714825  64.6868801  54.5772076
  51.4192200  65.1291847  54.2818880  50.4927063  64.3848801  53.9544106
  51.3339329  66.4520025  54.4484568  52.2041512  66.9536638  54.5540953
  50.2191162  67.3493814  54.1194534  49.4595003  67.1268415  54.8688269
  50.5600595  68.8167477  54.4134426  49.7046423  69.4918442  54.3888426
  50.8654833  68.8554192  55.4590654  51.5751314  69.4549894  53.4437847
  51.1481810  69.4759274  52.4411011  51.6401482  70.4875803  53.7867546
  53.0085945  68.8682175  53.5433102  53.7485647  69.0966225  52.5831604
  53.4357643  68.1890965  54.5199633  49.5332146  67.0791817  52.7810764
  50.2647924  66.7517376  51.8516636  48.1940556  67.2614813  52.5981140
  47.6521349  67.6220465  53.3703947  47.5083303  66.7271042  51.4206648
  47.6248217  65.6434584  51.4362717  45.9859991  67.0089006  51.4892006
  45.4829741  66.3038254  50.8274269  45.7513332  66.6635799  52.4960661
  45.4959011  68.5046291  51.3991547  46.2088728  69.3930769  51.9072485
  44.3994331  68.8041115  50.9345818  47.9924965  67.1860504  50.0227118
  48.2856035  68.3876085  49.7780228  48.1391191  66.2712336  49.0708590
  48.0009556  65.2892351  49.2624187  48.7153530  66.4911652  47.7339554
  48.6418676  67.5634861  47.5527573  50.1935101  66.1954498  47.5799370
  50.3693008  65.1376915  47.7757597  50.5676842  66.3038063  46.5619230
  51.0941505  67.0642090  48.4904909  51.1014414  68.1034136  48.1616974
  50.6887054  66.8974972  49.4884491  52.5187397  66.6297245  48.5192394
  52.6010036  65.5495834  48.3982754  53.0985451  67.1512270  47.7576923
  53.1720638  66.8942547  49.8566723  52.5894594  66.4187860  50.6457233
  54.1769791  66.4720631  49.8562336  53.1568241  68.4627914  50.0559044
  52.2507954  68.8950300  50.1671886  53.6635685  68.6845970  50.9009600
  53.6222935  68.9818430  49.3251324  47.8131008  65.9387207  46.6198635
  46.6343641  66.3122511  46.6978216  48.3246660  65.1828766  45.6439877
  49.3290091  65.1682901  45.5382538  47.5428915  64.5084906  44.5782566
  46.8305445  65.2273655  44.1734314  48.6203909  64.2407370  43.5379171
  49.1910172  65.1320505  43.2770443  49.3168497  63.4994888  43.9298344
  48.0484676  63.6509991  42.1913195  47.0442772  64.1062784  41.7770529
  48.7063599  62.7416134  41.5110540  48.1561518  62.4665976  40.7099724
  49.6467781  62.4548340  41.7422867  46.8532133  63.1897354  45.0248003
  47.4255800  62.3993969  45.8011580  45.6672430  62.8861094  44.4966221
  45.2581215  63.5192966  43.8244629  44.8891306  61.6231203  44.6113777
  44.2397785  61.6302395  45.4868126  43.8890839  61.5867853  43.4325981
  43.2216597  62.4437141  43.5237980  44.4302940  61.7896223  42.5084543
  43.1454992  60.2980423  43.0368853  43.8610172  59.4917774  42.8753948
  42.1828842  59.8012686  44.0530443  41.8470526  58.8079071  43.7554789
  42.8417635  59.7441149  44.9194860  41.4272642  60.5600166  44.2566156
  42.2428751  60.5431366  41.8548536  41.8892813  59.5932722  41.4538240
  41.4002800  61.1673117  42.1524096  42.8229713  60.9273911  41.0158443
  45.8197737  60.4059029  44.4830227  46.6990232  60.4030752  43.5811043
  45.4986858  59.3968821  45.2439070  44.8889780  59.6182871  46.0180807
  46.2353659  58.0938053  45.2048588  46.8275785  57.9499435  44.3011522
  47.2222900  57.9776669  46.3470984  46.6230631  57.8777552  47.2521067
  48.1552649  56.8112326  46.2288952  47.6781988  55.8325815  46.2813139
  48.6300611  56.9534779  45.2581072  48.9829588  56.8747377  46.9352865
  48.2046890  59.0653038  46.6426849  47.7060080  59.8476982  46.8892050
  45.1724482  56.9758987  45.2293253  44.2435217  56.8862152  46.0934353
  45.2279377  56.0181475  44.2676497  45.9084225  56.1988115  43.5434914
  44.3415308  54.8976803  44.2139912  45.0012589  54.0661240  43.9662647
  43.9398670  54.6825504  45.2041912  43.2110834  55.0523281  43.1868029
  43.0979538  56.0833740  42.4909830  42.2934294  54.0646172  43.0874348
  42.3457146  53.1945896  43.5977507  41.0785818  54.1418791  42.2624493
  41.2781858  54.7313929  41.3676071  40.6149721  52.7568817  41.8254805
  40.5955362  52.0612335  42.6644087  39.3420672  52.6384115  41.0508204
  39.4854927  53.1638908  40.1066828  39.2042542  51.5681839  40.8967972
  38.4344029  53.0446672  41.4971447  41.6055202  52.2315454  40.9449053
  42.4170828  52.0113611  41.4080334  39.9304223  54.9372673  42.9407930
  39.3729162  54.4381332  43.9023209  39.5886135  56.1280870  42.4491882
  39.9976444  56.3642359  41.5564203  38.6869693  57.1273661  43.0648565
  39.1974616  57.4269533  43.9801502  38.4650826  58.3658791  42.0968199
  37.7071619  58.9948940  42.5637197  39.3133473  59.0289259  41.9267845
  38.1510973  58.0740356  41.0946512  37.3482299  56.6278505  43.5715580
  36.9309163  56.9861126  44.6914482  36.6049099  55.6190681  42.9441881
  36.9270134  55.3493214  42.0257187  35.3486919  54.9907780  43.4929705
  34.5509791  55.6833220  43.7615442  34.9738073  53.8674021  42.5344753
  35.7847691  53.1410933  42.4804163  34.0488100  53.4101915  42.8858137
  34.8507452  54.1719675  41.0515404  33.9221478  54.7231197  40.9030819
  35.6903100  54.6668911  40.5633974  34.5870566  52.8282356  40.3557396
  35.3757334  52.1412611  40.6625891  33.6585879  52.3597527  40.6822109
  34.6110892  53.0058146  38.8779974  35.4751182  53.3731890  38.5057187
  33.8609242  52.3585081  37.9950595  32.7729630  51.7546749  38.3079219
  32.4307871  51.8633556  39.2519569  32.0703530  51.4231443  37.6625299
  34.3812871  52.3066807  36.8275714  35.2054906  52.8299713  36.5688038
  33.8639355  51.8278217  36.1042881  35.5618954  54.3271112  44.8432779
  34.6647835  54.5026493  45.6774616  36.7367792  53.7271166  45.0865889
  37.5390029  53.8421869  44.4838476  37.0535851  52.8293514  46.1724472
  36.1807942  52.6084661  46.7868948  37.5072932  51.4474916  45.6727314
  38.5511708  51.4838219  45.3611183  37.5715280  50.8082724  46.5532827
  36.6640639  50.8139515  44.6883106  35.3259540  50.4256439  45.0573540
  34.9662542  50.5881023  46.0626554  34.5216393  49.8657608  44.0743923
  33.5158253  49.5545530  44.3149948  35.0286865  49.5783281  42.7786112
  34.2189574  49.0180874  41.8076420  34.6767950  48.4322596  41.2003613
  36.3206196  49.9719667  42.4165726  36.6922641  49.7568750  41.4256096
  37.1559834  50.6111145  43.3711720  38.1879735  50.8452034  43.1553125
  38.1429005  53.4383965  47.0724630  38.1720090  53.1412888  48.2732487
  38.9914656  54.3420124  46.6452074  39.1025639  54.5968056  45.6742096
  39.9830008  54.9946451  47.5555134  40.7084513  54.1949463  47.7048492
  40.6681347  56.1820316  46.7916107  40.0272846  57.0636702  46.7800760
  41.4693642  56.5945292  47.4047852  41.0641766  55.7679081  45.8643818
  39.4546056  55.4869890  48.8645697  38.4494615  56.2169504  48.9247847
  40.1564217  55.1670122  49.9840784  40.8804178  54.4641590  49.9401569
  39.9574757  55.8286190  51.2238693  39.1174293  55.3528214  51.7298841
  41.2286949  55.5563259  52.0156336  41.5496349  54.5151997  52.0495415
  42.0075750  56.0823441  51.4635992  41.2100172  56.1016607  53.2707834
  42.0926905  56.3435793  53.5605621  39.8674655  57.3370361  51.1443281
  40.4683733  57.9536724  50.2631330  39.1402936  57.9239750  52.0512819
  38.6661744  57.3876667  52.7638006  39.0613389  59.3988371  52.0871449
  38.3937931  59.6449423  51.2613583  38.2933617  59.8229885  53.4044695
  38.6771202  59.1428471  54.1648912  38.5760665  61.2657166  53.7861347
  38.0301118  61.6334057  54.6549463  39.6316385  61.3982439  54.0234280
  38.3169699  61.8771458  52.9217768  36.7537117  59.5656729  53.1935596
  36.3118243  60.4511452  52.7366400  36.6173005  58.7671900  52.4642372
  35.9301138  59.1004705  54.4342089  36.4359951  58.1984377  54.7784758
  35.9333968  59.9536467  55.1125765  34.8692107  58.9544821  54.2310476
  40.4393148  60.1162148  52.0107698  40.6552076  61.0250521  51.1294508
  41.3772058  59.7690725  52.8666210  41.1398745  59.0031290  53.4807110
  42.6369381  60.4089832  52.8857613  42.5689459  61.4966631  52.8649521
  43.3056831  59.9052906  54.1743612  43.1409073  58.8450336  54.3662071
  44.3721676  60.0743484  54.0255880  42.9038906  60.6195307  55.4305983
  41.8784952  61.2245035  55.5095148  43.8667154  60.7496357  56.3553858
  43.5400009  61.2009144  57.1978235  44.7434902  60.2544975  56.2766075
  43.4977150  60.1113462  51.6073704  43.9112329  61.0231161  50.9712696
  43.5405350  58.8308334  51.1666870  43.3281517  58.1172085  51.8491411
  44.0666533  58.4495401  49.8650789  45.1341677  58.6667204  49.9017477
  43.8934851  56.9999313  49.6591377  44.3900585  56.7127800  48.7322807
  44.4148207  56.4051294  50.4091501  42.8602648  56.6725063  49.5435953
  43.5605049  59.3211031  48.7263727  44.3454313  59.9998045  48.0916309
  42.2535658  59.4751024  48.5374117  41.6493034  58.9403152  49.1448402
  41.5101480  60.2229071  47.5213623  41.6994572  59.9458265  46.4843035
  40.0747585  60.0482368  47.8709650  39.8197603  58.9952183  47.9902554
  39.8108435  60.3814316  48.8746738  39.0871334  60.5689144  46.8142366
  38.7163424  59.9786186  45.6071281  37.9860091  60.8882427  44.8988390
  37.4847698  60.6789923  43.9653587  37.7799630  61.9954062  45.6686974
  37.2171974  62.7764702  45.3631878  38.4858966  61.7651939  46.8291807
  38.6244798  62.4984264  47.6099253  41.7803335  61.6802788  47.6175451
  41.8476009  62.3280144  46.5692949  41.9881153  62.2125244  48.7773037
  41.7897606  61.5838909  49.5425367  42.4846077  63.5434484  49.0957975
  41.9000006  64.2491293  48.5055780  42.0736074  63.8411999  50.5296946
  42.3221636  62.9926538  51.1671019  42.6979065  64.6442842  50.9213591
  40.7131100  64.4045115  50.8344793  39.9347067  63.6571741  50.6805897
  40.6637144  64.8169470  52.3318338  41.0071898  63.9898872  52.9532003
  41.3092327  65.6797314  52.4962139  39.6604085  65.1787901  52.5566530
  40.3027248  65.6465769  50.0536203  40.3238726  65.3938150  48.9935446
  39.3180704  66.0153246  50.3409863  41.0352278  66.4436245  50.1811314
  43.9362526  63.8614321  48.8086081  44.2918968  64.9900961  48.8513851
  44.8231983  62.8581953  48.6927032  44.4598770  61.9220638  48.8011408
  46.2722206  63.0081797  48.6538553  46.6607332  62.0182419  48.4147310
  46.5996552  63.7915611  47.9703283  46.9191408  63.2814074  50.0194454
  48.0871058  63.6362410  50.0706053  46.2788200  62.9984903  51.1807442
  45.3500509  62.6187468  51.0654783  46.9385099  62.8298044  52.4756432
  47.6198387  63.6778784  52.5439739  45.9014511  63.0001497  53.6366558
  45.1179886  62.2505426  53.5254145  46.6110468  63.0228806  54.9620438
  47.2395468  62.1362209  55.0452566  47.2210312  63.9114046  55.1249647
  45.8227634  62.9370070  55.7099342  45.1741362  64.3779707  53.6796570
  45.8312035  65.1490784  54.0818453  44.8668814  64.6541309  52.6709795
  43.8939667  64.3597364  54.5067406  43.4562731  63.3705425  54.3724871
  43.9956331  64.4376898  55.5891895  43.3523464  65.2297974  54.1356134
  47.6980829  61.5680790  52.5537157  47.1903133  60.4701948  52.2562981
  48.9140368  61.6302490  53.0947399  49.2707014  62.5116634  53.4353209
  49.7795725  60.4230022  53.1704092  50.1050472  60.2680731  52.1417379
  50.9764624  60.8417034  54.0355778  51.3381720  61.8121672  53.6957741
  50.7018137  60.9794521  55.0813770  52.1416378  59.7759533  53.9911222
  52.9493952  60.0349092  54.6756458  51.7547321  58.8342857  54.3805695
  52.6413822  59.5401001  52.5803089  53.5358238  60.3111649  52.0936775
  52.0779085  58.6888695  51.8624973  49.1184235  59.0791988  53.6202478
  48.2831097  58.9918613  54.5958424  49.3939590  58.0627632  52.8763914
  50.2274942  58.1372976  52.3109198  48.6666298  56.8048763  52.9569197
  47.6578903  57.0654345  53.2773256  48.6145258  56.0977554  51.5775633
  49.5734262  55.8442211  51.1255312  48.1044579  55.1892281  51.8977356
  47.7624893  56.9015932  50.5753040  47.3946095  56.2423515  49.7890663
  46.8530846  57.3591232  50.9648561  48.6467218  57.9012918  49.8695230
  49.7062159  57.4477386  49.3903351  48.3967352  59.1728258  49.9032354
  49.1350746  59.7882271  49.5930195  47.6890850  59.5044994  50.5430222
  49.3312836  55.9980917  54.0228987  50.5408096  55.7560873  53.9900970
  48.5344696  55.3387928  54.8272514  47.5545740  55.3283739  54.5827246
  49.0188360  54.3313360  55.7806873  50.0106430  53.9720011  55.5062866
  49.0706348  54.9487782  57.1538305  49.4693899  55.9609985  57.0867157
  48.0397367  54.8659372  57.4980497  49.9036407  54.1760492  58.0827665
  50.0233746  54.6913815  58.8838291  48.1085396  53.0764151  55.7352591
  47.2912788  52.9256296  54.8058176  48.2078171  52.1310616  56.7314720
  48.8752127  52.3899126  57.4439907  47.3802376  50.8993769  56.6956139
  47.6604795  50.3485870  55.7977247  47.6392555  50.0725269  57.9443836
  47.3558569  50.6608868  58.8170862  46.9416189  49.2406273  57.8477335
  49.1067553  49.5293093  57.9114962  49.0553665  48.9726162  56.9757891
  49.7286320  50.3992367  57.7003288  49.6380472  48.7757874  59.1290760
  48.8028288  48.1513453  59.4462252  50.5306244  48.1926155  58.9025354
  49.9558353  49.6740294  60.2745247  49.5299244  50.5896950  60.2585316
  50.5687904  49.4823217  61.4120674  51.2822628  48.3892679  61.6867495
  51.3398218  47.6528215  60.9979582  51.8328619  48.3899736  62.5334740
  50.4838610  50.3678799  62.3211432  49.9897718  51.2458897  62.2498989
  50.8774614  50.1753998  63.2311630  45.8950901  51.1711502  56.6650534
  45.0845957  50.4983234  56.0224152  45.4863548  52.2744417  57.3328924
  46.1308670  52.8510857  57.8546095  44.1015196  52.7581501  57.3155165
  43.5716438  51.9710112  57.8519392  44.0391684  54.0588617  58.0905104
  44.0638208  53.7877989  59.1459799  44.9154949  54.6704197  57.8756857
  42.7707100  54.8754454  57.8297806  41.9700432  54.2508602  57.4336386
  42.5464964  55.3179884  58.8003397  42.8492451  56.0668612  56.8495560
  43.5464001  56.7443562  57.3425865  43.3180571  55.7950830  55.9037971
  41.5752220  56.7212486  56.5954494  40.9224224  56.1895800  56.0375166
  41.0289431  57.6611423  57.3394823  41.7324591  58.2708502  58.2559681
  42.6950073  57.9839277  58.3621836  41.2769604  58.9752388  58.8185120
  39.7621226  57.9490852  57.2162867  39.2480564  57.4088001  56.5351629
  39.3332982  58.6641979  57.7862215  43.5410881  52.7229071  55.8878899
  42.4241877  52.2618246  55.6891298  44.2890835  53.3250427  54.8854113
  45.2502203  53.6012793  55.0269127  43.7805462  53.5101604  53.5102749
  42.8400373  54.0209293  53.7168217  44.5951605  54.5267391  52.6470089
  45.5434513  54.0106487  52.4970245  44.1869450  54.8214531  51.6802597
  44.8296595  55.8003473  53.4496212  43.8955450  56.6122293  53.4428263
  45.7458448  55.9353113  54.2793560  43.4696579  52.2352600  52.7806282
  42.4478960  52.1934175  52.1738958  44.3126297  51.1972666  52.7484608
  45.2494478  51.2917185  53.1139088  43.8631964  49.8299742  52.3169613
  43.5841370  49.9017239  51.2657309  44.9719095  48.7847900  52.5446510
  45.1936483  48.7639666  53.6116552  44.5135403  47.8396177  52.2537088
  46.2343121  48.8870001  51.6778564  46.3960600  49.8128271  50.8580875
  47.0490789  47.9937649  51.9163895  42.6119852  49.3779039  53.0055761
  41.6291857  49.0070581  52.3197365  42.5895357  49.4343424  54.3982458
  43.3437920  49.8125696  54.9533463  41.5108633  48.6906528  55.1184559
  41.3155413  47.7121973  54.6796227  41.9282866  48.5122967  56.5681839
  42.0237827  49.5008183  57.0174122  41.1463594  47.9756546  57.1055031
  43.2423067  47.7853870  56.6982651  43.5452652  47.3351336  55.7529688
  43.9755106  48.5460472  56.9664335  43.3326006  46.4035702  57.9582548
  42.2163153  45.1870728  57.2714520  42.0213318  44.4022083  58.0022526
  41.2604046  45.6166601  56.9718027  42.6859283  44.7881985  56.3723087
  40.1672602  49.4089365  54.9326134  39.0561104  48.8607264  54.9653912
  40.2116680  50.7229137  54.6302366  41.1094904  51.1659193  54.7635078
  39.1262221  51.5925026  54.2953444  38.2530308  51.3293695  54.8923349
  39.3366861  53.0658627  54.6549368  39.5439076  53.1994486  55.7166862
  40.2064753  53.2975817  54.0402174  38.1570077  54.0055704  54.2925072
  37.9889607  54.0451336  53.2162666  37.2842574  53.5701466  54.7791433
  38.3674479  55.4477215  54.7187853  38.9878273  55.6888103  55.7941246
  37.8994370  56.3354349  53.9905500  38.6584783  51.4204216  52.7702045
  37.4676847  51.3621759  52.4775410  39.6257877  51.4411545  51.8590260
  40.5564976  51.6090441  52.2135592  39.4642067  51.0791016  50.4651928
  38.8279223  51.7650414  49.9059772  40.7533646  51.0340881  49.5870447
  41.4824200  50.2813816  49.8870707  40.5334520  50.8231688  48.5405064
  41.4369249  52.3252487  49.6431494  41.8976784  52.3479176  50.4850483
  38.7699103  49.7226524  50.2955627  37.9390001  49.6189785  49.4044304
  39.0422058  48.7436247  51.1546564  39.8670769  48.8716173  51.7232561
  38.4263563  47.4567080  51.2525511  38.3534074  47.0015001  50.2648401
  39.2049837  46.3875484  52.0669079  40.2531052  46.4398003  51.7722654
  39.1334963  46.6474962  53.1230402  38.5725713  44.9560642  52.0092058
  37.5227833  45.0823498  52.2739601  38.8278317  44.3394756  50.6601620
  39.0725851  43.2842541  50.7814121  38.0159831  44.4652224  49.9437857
  39.7143650  44.8647213  50.3048086  39.1394639  44.0463209  53.1223631
  38.7954855  43.0168867  53.0220938  40.2181911  44.1565514  53.0114698
  38.6776352  44.4038200  54.0426922  36.9720936  47.5895262  51.6958332
  36.1155033  46.9746304  51.0141659  36.7222500  48.4037781  52.7021074
  37.4585557  48.8933325  53.1902599  35.3528666  48.4860945  53.2216024
  35.0111437  47.4614000  53.3676195  35.2665091  49.0404081  54.1561556
  34.3290234  49.2095709  52.3015261  33.1558156  48.8438463  52.2480488
  34.8232245  50.1343727  51.5576601  35.7355404  50.5218363  51.7517042
  34.0319848  50.6320477  50.4302406  33.0859756  50.8791876  50.9119987
  34.5414114  52.0045662  49.8490429  35.5404687  51.8924141  49.4278479
  33.8148761  52.1386623  49.0476274  34.5796371  53.1474972  50.8042383
  33.6814952  53.3825254  51.8811083  32.7561665  52.8257704  51.8951321
  33.8430905  54.3814182  52.8931093  33.1855083  54.4928741  53.7425613
  35.0784445  55.0724030  52.8791904  35.3938532  55.8163023  53.9903021
  36.3097739  56.1009121  54.0313482  35.9246802  55.0118542  51.7526579
  36.8170333  55.6142187  51.6674423  35.6952667  54.0379667  50.7831669
  36.3732433  54.0073013  49.9430418  33.8505864  49.5816612  49.3108034
  32.7766919  49.5285511  48.6756086  34.8498964  48.7319851  49.0198088
  35.8155632  48.8603067  49.2864895  34.6381283  47.5025702  48.1708050
  34.1359830  47.8556347  47.2700834  35.8985734  46.7647362  47.8468466
  36.4793062  46.6316175  48.7596035  35.5259848  45.3278065  47.3975229
  35.2273178  44.6381330  48.1869841  34.6587491  45.2575016  46.7409658
  36.3879848  44.9074888  46.8794584  36.8282652  47.3233032  46.8072748
  37.6484084  46.6071177  46.8577433  36.3800216  47.3175383  45.8137226
  37.1535802  48.3176041  47.1132660  33.5721564  46.6118813  48.7379694
  32.5326800  46.2761545  48.1764603  33.7023830  46.3561869  50.0542641
  34.4801283  46.6661358  50.6191921  32.6376152  45.5737162  50.7751513
  32.6213026  44.5719194  50.3459120  33.0002856  45.2407646  52.2490358
  33.1263375  46.1831522  52.7820683  32.0982695  44.8157120  52.6892567
  34.1983438  44.2801046  52.4208164  35.0469518  44.4721508  51.7642403
  34.6090150  44.3210888  53.8688898  34.8617721  45.3559208  54.0998220
  33.7756562  44.1052008  54.5374823  35.4687977  43.6592722  53.9731979
  33.7335658  42.8545523  52.0452499  33.7234139  42.6153517  50.9818649
  34.4098091  42.1453619  52.5225830  32.8002238  42.5681496  52.5299597
  31.2265658  46.0997057  50.5235910  30.3430295  45.3422451  50.0838995
  31.0042048  47.3699379  50.6185341  31.7666268  47.9603624  50.9188890
  29.7435713  48.0409050  50.3338003  28.9643955  47.5037479  50.8745956
  29.7596121  49.4128656  50.9378815  30.6410170  49.9709225  50.6219625
  28.9164186  49.9329376  50.4832983  29.6067214  49.5147228  52.4808598
  30.6099319  49.4362736  52.8998089  29.1259742  50.4498053  52.7682781
  28.6757588  48.2104588  53.1881571  27.0043898  48.6291981  52.6537704
  26.2937427  48.1877470  53.3524799  26.8394589  49.7065639  52.6675892
  26.7347741  48.2297373  51.6761017  29.2850924  48.0723572  48.8669920
  28.1211376  47.8889847  48.5464430  30.1276159  47.9431772  47.9289532
  31.0928917  47.8501225  48.2112360  29.9021029  47.9119921  46.4332056
  29.2013192  48.7035990  46.1679459  31.2200141  48.1615877  45.7464027
  31.3565016  49.2424297  45.7817411  32.0605087  47.7488565  46.3043690
  31.3189149  47.6862001  44.2919445  30.5461931  48.3394384  43.3165216
  29.8672795  49.1163349  43.6357546  30.6494141  47.8714991  41.9738626
  30.0579572  48.3822012  41.2283707  31.6156173  46.9151592  41.6121912
  31.8530369  46.5347195  40.3455734  32.7354288  46.1732674  40.2345037
  32.3524356  46.2307882  42.6581955  32.9641271  45.3882360  42.3712492
  32.1972132  46.6491413  43.9648056  32.5978851  46.1120796  44.8118162
  29.3264461  46.5202904  46.1055279  28.3232260  46.4426517  45.3594160
  29.9150944  45.4772806  46.7021036  30.7957172  45.6407976  47.1688652
  29.4127917  44.0790176  46.6224909  29.3344021  43.8727665  45.5550575
  30.3979349  43.0674314  47.2931099  30.5500460  43.3336258  48.3391047
  29.9103856  42.0931578  47.3276424  31.7304969  42.8969002  46.7211628
  32.1222472  43.3354664  45.4762077  31.4566445  43.8909388  44.8321390
  33.3294272  42.9859161  44.8960876  33.5466218  43.2504988  43.8717699
  34.2931294  42.2851992  45.6480932  35.2716708  42.1097422  45.2260971
  33.9563870  41.9007635  46.9096994  34.7213650  41.3927650  47.4781609
  32.7284908  42.2399998  47.5109863  32.5267577  42.0324993  48.5514927
  28.0418873  43.8203621  47.3080635  27.2730589  42.9858017  46.8186235
  27.7548051  44.4346809  48.4232807  28.4099698  45.0285292  48.9113522
  26.3544941  44.4526911  48.8739300  26.0365963  43.4108782  48.9146996
  26.4246130  45.0038099  50.3257513  27.0277190  45.9117174  50.3176308
  25.4433537  45.3092909  50.6889486  26.8801928  43.9164639  51.2410975
  26.4933491  42.7409935  51.1571836  27.6348710  44.2855120  52.2237253
  27.7690530  43.6218023  52.9731178  27.9074717  45.2578354  52.2429895
  25.3211737  45.1003838  47.9430723  24.2025924  44.6320724  47.8580713
  25.6590652  46.3672972  47.5519753  26.5738225  46.7528009  47.7382851
  24.7298551  47.3439217  47.0240784  23.7346601  47.1675110  47.4322081
  25.0725365  48.7696600  47.4862862  26.0524869  49.0892601  47.1318150
  24.3602633  49.4549465  47.0267725  24.7751260  49.1650438  48.9569473
  23.7203956  49.4058800  49.0897751  24.8114538  48.3377075  49.6656752
  25.6299043  50.2812386  49.4368219  25.5928302  50.3629827  50.5231237
  26.6730809  50.1415539  49.1533327  25.2578926  51.5737867  48.7875032
  25.1230788  51.5603352  47.7866268  24.7766829  52.6764774  49.3079185
  24.5477843  52.8689861  50.6007528  24.7303891  52.0777321  51.2013149
  23.9737511  53.6160564  50.9647179  24.3232274  53.6786079  48.5744762
  24.3938017  53.4867144  47.5853872  23.7311339  54.4328594  48.8917017
  24.6475816  47.3760128  45.4408741  25.1743984  46.5538645  44.7059393
  23.6536932  48.2214260  44.9809790  23.1778574  48.7795162  45.6753922
  23.4271908  48.5710192  43.5601139  23.4403491  47.6943541  42.9125071
  22.0908284  49.2292500  43.3470297  22.1562886  49.6866131  42.3597956
  20.8480954  48.3223009  43.4812498  20.9034133  47.6000738  44.2957592
  19.9107289  48.8678980  43.5897398  20.7490587  47.7856541  42.5376940
  21.8982673  50.1760864  44.3562603  21.1362338  50.7103539  44.1207457
  24.5860362  49.4991970  43.0787182  24.8515534  49.4112778  41.8974686
  25.2326202  50.3377771  43.8826895  24.8352933  50.2819538  44.8095751
  26.3100219  51.2994289  43.6414194  27.2023320  50.8835602  43.1735134
  25.8581519  52.3793888  42.6965952  26.7457366  52.9344559  42.3929691
  25.4432106  51.9474125  41.7859221  25.0123978  53.2683182  43.2927752
  24.5283031  53.7137318  42.5935888  26.7578435  51.7789507  45.0204229
  26.1383271  51.5866518  46.0469627  27.8838229  52.4499702  45.0767899
  28.4399199  52.5582886  44.2406559  28.2440686  53.4668875  46.1682606
  27.7571440  53.1590366  47.0935869  29.7921276  53.5488653  46.4924479
  30.2892971  54.0880919  45.6861210  29.8630142  54.2210102  47.3476028
  30.5709481  52.2015524  46.6887617  30.1217628  51.4929485  45.9929085
  32.1038890  52.4070311  46.4522028  32.6020336  51.4653969  46.6830158
  32.2129703  52.7503967  45.4234648  32.4544644  53.1521416  47.1663523
  30.3386235  51.7887402  48.2151031  30.5597162  52.5725508  48.9395714
  29.2744899  51.5866947  48.3371639  30.8466721  50.8604097  48.4762335
  27.7371478  54.8483801  45.8484459  27.6471877  55.2128601  44.6426487
  27.1913624  55.5989313  46.8361187  27.4736166  55.5773878  48.1813574
  28.5523701  55.5434179  48.3337879  27.0134020  54.6962833  48.6285210
  26.7056274  56.7934656  48.9020872  27.3528004  57.6680136  48.9686823
  26.2412453  56.5627050  49.8608351  25.6724381  57.1735620  47.8470278
  25.5033803  58.2484722  47.9109240  24.8006845  56.5723372  48.1052351
  26.2903571  56.7678499  46.5257883  25.4951811  56.4743853  45.8404589
  26.9648957  57.9881763  45.8289528  26.3810349  59.0116501  45.6053782
  28.2780695  57.9198313  45.6841612  28.7162519  57.1034670  46.0862207
  29.2169714  58.8167715  45.0148964  28.9532042  59.8557043  45.2127504
  30.6664181  58.6987209  45.5881310  31.2495375  58.9823008  44.7119665
  30.8939981  59.5967484  46.1624622  31.1887145  57.5766230  46.2768459
  31.9251752  56.6365242  45.6594086  32.1894002  56.7311764  44.6165133
  32.3175311  55.6981659  46.5831041  33.0459547  55.0116253  46.4483452
  31.8800855  56.0045004  47.8387833  32.0167804  55.4492283  49.1363811
  32.6668501  54.5952415  49.2568970  31.3186669  55.9059858  50.2245665
  31.4574504  55.3551626  51.1431122  30.5345416  57.0449162  50.1044035
  30.1123381  57.5304651  50.9718037  30.4444599  57.7048922  48.8558578
  29.8286724  58.5919523  48.8739538  31.0977745  57.2233725  47.7012539
  29.2537141  58.6470985  43.5002613  29.6583819  59.6106052  42.7962351
  28.8304901  57.4804974  42.9738188  28.4994292  56.8038893  43.6466503
  28.7335825  57.0997477  41.5366793  29.6403670  57.4035025  41.0136366
  28.6376333  55.5268002  41.3523626  27.6944137  55.0882959  41.6781712
  28.7393236  55.4049015  40.2739763  29.9408388  54.8441696  41.9335222
  30.7942820  55.0549364  41.2890768  30.1515651  55.2195835  42.9348993
  29.7123027  53.3193684  42.0912361  29.9742246  52.6723146  43.0176735
  29.2110634  52.6531172  41.0850525  29.2824697  51.6460943  41.1152124
  28.9334679  53.0414963  40.1949930  27.5532651  57.7669191  40.8648062
  26.5529656  58.0467892  41.4748001  27.7140903  58.1448269  39.6052456
  28.5034299  57.7394390  39.1228485  26.7476559  58.9057636  38.8042998
  27.0375276  58.7025118  37.7733946  25.7507658  58.4778690  38.9102030
  26.6457772  60.4394627  39.0190363  25.6822324  61.0228014  38.5425425
  27.5828624  61.0367203  39.7640491  28.4482908  60.5547476  39.9611187
  27.5768757  62.5261164  39.8810768  26.5394521  62.8562355  39.8274612
  28.2904530  63.0100346  41.1806583  29.3701839  62.8937483  41.0870504
  27.9542136  64.0461349  41.2197638  27.8411913  62.2918367  42.4614191
  27.8587461  61.2036705  42.4006987  28.7240171  62.7969694  43.5369873
  28.6079025  62.1031046  44.3695593  29.7731495  62.6391840  43.2869244
  28.5252619  63.7970448  43.9222717  26.3978505  62.7186489  42.7680874
  26.2381983  63.7926817  42.8632593  25.7252145  62.3035049  42.0175409
  26.2002087  62.2916937  43.7513256  28.3216405  63.2066631  38.7131381
  29.5039344  63.1408072  38.5476327  27.5178432  63.7634468  37.7721882
  26.5700340  63.9977121  38.0307961  27.9929376  64.4121313  36.5370941
  28.4828806  63.6673975  35.9098554  26.8103313  65.0141716  35.7111645
  26.4239550  65.8834982  36.2432289  27.3122549  65.4764938  34.8612046
  25.6850433  64.0687895  35.2350640  25.1327443  63.7141752  36.1053061
  25.0829983  64.5253897  34.4494700  26.3033032  62.8175068  34.5766282
  26.6793633  63.0544043  33.5813594  27.0730186  62.2999096  35.1491117
  25.3565884  61.6579151  34.2791247  25.9461427  60.9140444  33.7432289
  25.1768661  61.1828279  35.2435374  24.1363764  62.1380424  33.6230803
  23.5331869  61.3429642  33.4678006  23.5679507  62.7622509  34.1774845
  24.2825341  62.4259424  32.6660800  29.0524197  65.4706573  36.8007922
  28.9165425  66.2580061  37.7447486  30.0194478  65.5972815  35.9017897
  30.2403283  64.8278093  35.2859783  30.9863400  66.6640043  36.0243821
  30.5798697  67.5936317  36.4227343  32.0527697  66.2674284  37.0352006
  31.4959383  65.9871721  37.9293466  32.3980832  65.2474022  36.8666387
  32.8888035  66.9518518  37.1791101  31.6010928  66.9824362  34.6368718
  31.8876910  66.0426044  33.8596225  31.8492436  68.2838917  34.3386531
  31.5157151  69.0603781  34.8917603  32.5655699  68.6945963  33.1139231
  32.2235751  68.2331276  32.1875381  32.3231483  70.1989317  32.8637910
  32.6942515  70.5033064  31.8851519  31.2599015  70.2265310  32.6253676
  32.6852059  70.8609152  33.6504269  34.0957856  68.4886169  33.1023765
  34.6786165  68.5157585  32.0163560  34.6847105  68.2697344  34.2417407
  34.1691303  68.3525848  35.1062727  36.1118484  67.9904699  34.3491149
  36.4747500  67.6466751  33.3805037  36.9487572  69.2097664  34.6995831
  37.9456186  68.8977146  34.3881488  36.5655541  70.4680347  34.0209603
  36.6405487  70.3175545  32.9440093  35.5307293  70.7436132  34.2241621
  37.2070193  71.3232422  34.2336631  36.9607854  69.3991041  36.1022878
  37.6944113  69.9872589  36.2958646  36.3798165  66.7876482  35.2198625
  35.5464339  66.3518858  36.0203767  37.5958538  66.2698030  35.1711130
  38.1581616  66.6590929  34.4279027  38.2223845  65.3394556  36.1125612
  37.6222014  64.4364500  36.2241769  39.5062327  64.7758913  35.6221843
  40.3462505  65.4701185  35.5994725  39.7765183  64.0146494  36.3540101
  39.5343995  64.1324568  34.2646170  38.8209724  63.3084822  34.2783427
  39.3397737  64.8117018  33.4346485  40.9106684  63.4842062  33.8908219
  40.7682514  63.1007576  32.8804851  41.7205334  64.2114735  33.8332391
  41.1845064  62.2645330  34.7362065  41.5270853  62.6229811  35.7069039
  40.2248383  61.7815161  34.9201465  42.0111227  61.2212276  34.0824103
  42.9657698  61.5501213  34.0584421  41.9761324  60.3754663  34.6333742
  41.7534113  60.9876823  33.1341791  38.4686637  65.8726358  37.5162792
  38.2086086  65.1321745  38.4270310  39.0011311  67.1121502  37.7326131
  39.1560698  67.6478624  36.8905282  39.2969632  67.6951075  38.9787006
  39.9462295  67.0926285  39.6139717  39.9404979  69.0490007  38.7523031
  40.6506729  68.9450264  37.9319763  39.1292548  69.6910381  38.4091091
  40.5153370  69.7426224  39.9959254  40.9236860  70.7172632  39.7286749
  39.7009349  69.9353504  40.6942892  41.7137098  69.0388012  40.7479572
  41.5125084  68.0713463  41.2080193  42.5360394  69.0024996  40.0334263
  42.3230839  69.7919941  41.8950987  43.1911182  69.2262697  42.2335768
  42.6828051  70.7963705  41.6716480  41.4332962  69.8450375  43.0726290
  40.4733658  70.0161028  42.8092289  41.4197254  69.0399981  43.6824083
  41.6247988  70.5933094  43.7234068  37.9866648  67.7698183  39.7201443
  37.9020405  67.4940634  40.9597349  36.9785976  68.2113600  39.0194988
  37.2327638  68.5812044  38.1146693  35.5810547  68.4065390  39.4179296
  35.5743551  68.9112091  40.3840351  34.7928143  69.1466570  38.3875418
  35.2970409  70.0721216  38.1093788  34.6893525  68.4679127  37.5409532
  33.3663416  69.5371914  38.9220119  32.9545212  68.6189842  39.3408060
  33.4717202  70.3444052  39.6468568  32.4689770  70.1145315  37.8229642
  32.7174592  70.0356483  36.6244864  31.3791800  70.6791496  38.3020711
  30.6839538  70.9705496  37.6298738  31.2955093  70.7882547  39.3026686
  34.9403071  67.0347404  39.7120810  34.2405343  66.8265438  40.6979513
  35.0691366  66.0588026  38.8001227  35.5408406  66.2487841  37.9274774
  34.4885898  64.7191668  39.0562701  33.4023237  64.7738838  39.1279459
  34.9790764  63.7557268  37.9411602  34.6414733  64.1173506  36.9698977
  36.0613298  63.6327887  37.9825497  34.3497109  62.3308420  38.0520821
  34.7158480  61.7042685  37.2387862  34.6531010  61.8750525  38.9945841
  32.8061080  62.3237467  38.0025411  32.4667168  62.7448559  38.9488912
  32.4411726  63.1144524  37.3470187  32.2349644  60.9028244  37.7654457
  32.7439666  60.5845261  36.8556643  32.5530267  60.1866341  38.5230780
  30.8141565  60.8635044  37.4552703  30.5488443  61.2412357  36.5569186
  30.5209088  59.8978901  37.4139953  30.2597857  61.3109255  38.1712198
  34.9878597  64.1040897  40.3570127  34.1635466  63.6730433  41.1757517
  36.2857199  64.1822577  40.6422710  36.8932271  64.6041059  39.9544597
  36.9068837  63.7094021  41.9062376  36.6802979  62.6761341  42.1691465
  38.4401083  63.8380098  41.8859386  38.6673379  64.8865604  41.6935587
  38.7993884  63.4581995  42.8423738  39.1387057  62.9649734  40.8569622
  38.7520003  61.5859509  40.5871868  37.9166818  61.1114740  41.0806608
  39.2923141  60.8367920  39.5483327  38.9162230  59.8515606  39.3153524
  40.2891970  61.4596510  38.8217568  40.7242584  60.9009266  37.6400805
  40.1984978  60.1134539  37.4817634  40.8361721  62.7094889  39.1274333
  41.4743423  63.1700182  38.3878016  40.2607870  63.4411335  40.2126408
  40.5314589  64.4664860  40.4170656  36.3343310  64.4856215  43.1210375
  36.1338425  63.9452219  44.2002439  36.1779070  65.7879162  42.9295826
  36.5214205  66.2068272  42.0771646  35.6276202  66.7738056  43.9157343
  36.3285065  66.7869377  44.7504139  35.5352306  68.2057333  43.3759737
  36.5033746  68.4677172  42.9491711  34.7614264  68.2222176  42.6084757
  35.2202845  69.2652035  44.4419909  35.0704885  70.1958179  43.8946199
  34.2893147  69.0272427  44.9565506  36.4592171  69.4402504  45.3539276
  37.4463344  69.9897623  44.8932934  36.4401746  68.8719273  46.5042114
  34.3397880  66.3332891  44.4997549  34.1441250  66.3461065  45.6525469
  33.4693646  65.8504105  43.6462164  33.6003566  66.0208893  42.6593590
  32.1292043  65.4079008  44.0072107  31.5566397  66.0546160  44.6720695
  31.3664818  65.4269266  42.6383066  31.7627478  64.8995972  41.7705488
  30.4115939  64.9147987  42.7566814  30.8727503  66.8474627  42.2143126
  30.2599287  67.2678995  43.0116749  31.7338538  67.4653530  41.9597244
  29.9694014  66.8810606  40.9560823  30.4667211  66.3682222  40.1328135
  29.0231180  66.3884974  41.1797571  29.5872140  68.2732105  40.4667091
  29.4638062  69.0264273  41.2448692  30.4902720  68.5171127  39.9071550
  28.3822656  68.1932068  39.6165299  27.6630259  68.0769682  40.3160286
  28.1680179  69.0941858  39.2134976  28.3090115  67.3655462  39.0423226
  32.0566535  64.0723801  44.6731663  31.1765480  63.8219500  45.4553366
  33.0174279  63.1708813  44.3903589  33.6948967  63.5245705  43.7300253
  33.2284451  61.8955326  45.0441551  32.2789121  61.4108133  45.2711725
  34.0386319  61.0194969  44.1644526  34.8141718  61.7024899  43.8178062
  34.6316266  59.8498583  44.8302889  35.1372910  59.1567373  44.1579866
  35.4604340  60.2913237  45.3837204  33.9014339  59.2367983  45.3585625
  33.2030797  60.6841469  42.9729128  32.2508168  60.2065849  43.2036304
  32.8477240  61.6269970  42.5571537  34.0091133  60.0343132  41.8331528
  34.9763918  60.5103064  41.6722059  34.3687773  59.0414810  42.1034098
  33.4757113  59.9098158  40.8907700  33.9241958  62.1100569  46.4324951
  33.6476231  61.3499737  47.3602533  34.7441864  63.1147337  46.6977501
  34.9034762  63.7882805  45.9621811  35.3112149  63.5177565  48.0055237
  35.6834602  62.6200151  48.4990788  36.4423299  64.4719839  47.7694178
  36.9850302  64.1932631  46.8661499  36.0403991  65.4647112  47.5668001
  37.3563361  64.5954943  48.8683271  38.1366825  64.9726963  48.4555578
  34.2882943  64.1449499  48.9434004  34.2288280  63.7005186  50.0801134
  33.4620643  65.1599503  48.5471582  33.7289333  65.6135082  47.6850891
  32.2678566  65.6202650  49.2264700  32.5181150  66.1816311  50.1266623
  31.6034174  66.6718578  48.2539558  32.2451496  67.5099850  47.9822493
  31.3626504  66.1813354  47.3108149  30.3496408  67.3043537  48.8739634
  29.8843384  67.9511070  48.1301165  29.6482038  66.4943123  49.0737391
  30.5147004  68.1122684  50.1534176  29.5166922  68.4207821  50.8301115
  31.6133332  68.4549189  50.5239964  31.4106107  64.4518375  49.7451973
  31.0920143  64.3623495  50.9083414  30.9811020  63.5369015  48.8967943
  31.0843444  63.7633896  47.9179430  30.1543880  62.3889923  49.1518641
  29.2684221  62.7300453  49.6874475  29.4413304  61.9003820  47.8314734
  29.0663791  62.7140284  47.2106028  30.2038097  61.3486767  47.2816038
  28.3241916  60.9577703  48.1633472  28.1877828  60.3830481  47.2472763
  28.6737013  60.2573299  48.9218521  27.0964527  61.6752863  48.6818409
  27.2936153  62.2711992  49.5729733  26.8354964  62.3098373  47.8348780
  25.8931518  60.7800198  49.0133858  25.4559374  60.2934933  48.1414700
  26.2473202  59.9741077  49.6561670  24.8184323  61.5892601  49.7046423
  24.5215702  62.3760748  49.1452694  23.9832807  61.0471153  49.8740530
  25.0450039  61.9546652  50.6185579  30.8193707  61.3756084  50.1022291
  30.2318311  60.9805679  51.0911989  32.0940995  60.9434271  49.8837137
  32.6214981  61.4018440  49.1544628  32.8306031  60.0581264  50.8300304
  32.2215867  59.1747618  51.0220575  34.1758323  59.5529747  50.2302742
  34.8431301  60.3340530  49.8659515  34.7610974  58.9848900  50.9533548
  34.0827918  58.5308647  49.1234684  33.6541963  57.6274824  49.5574188
  33.5095191  58.9014816  48.2737064  35.5007243  57.9437780  48.7979078
  36.2087154  57.8608131  49.6225119  35.2640629  56.9198656  48.5086012
  36.1398220  58.7320042  47.6760149  35.3943896  58.9877748  46.9230127
  36.3730884  59.7308445  48.0448055  37.4078059  58.0933905  47.2094250
  37.9676366  57.7770281  47.9882717  37.1608210  57.3630524  46.5569639
  37.8377056  58.8386202  46.6803503  33.0008769  60.6405973  52.1731949
  32.7101684  59.9799299  53.1593132  33.5176611  61.8878031  52.3576069
  33.7269020  62.5335789  51.6097403  33.5095859  62.6029539  53.6449528
  34.0766835  61.9905186  54.3459702  34.2841125  63.9675760  53.5156012
  33.7848544  64.6471548  52.8249454  34.1729140  64.4649553  54.4791126
  35.7210588  63.7103176  53.1338501  35.9264159  62.6408768  53.0867100
  35.9075975  64.0306139  52.1088028  36.9654632  64.5542669  54.2008972
  36.8177533  63.9911461  55.9382629  36.4694023  62.9583311  55.9318972
  37.8448296  64.0921545  56.2890005  36.0699153  64.6173000  56.4248657
  32.1712422  62.8030920  54.3171930  32.0231462  62.5068140  55.4984379
  31.1110783  63.1923962  53.5743237  31.1468029  63.1947899  52.5649548
  29.7891188  63.6439943  54.2004585  29.9883294  64.1248941  55.1581383
  29.1714215  64.7460461  53.3276176  28.2874107  65.1647472  53.8085651
  29.9230599  65.5051899  53.1111813  28.8286877  64.2643118  52.0881701
  29.6657252  64.2653418  51.6180992  28.8591695  62.4716139  54.3776369
  27.7700138  62.6519060  54.8871088  29.2448092  61.2572813  53.9243984
  30.1263261  61.1841345  53.4368753  28.4055591  60.0605440  54.1521788
  27.3677993  60.3854609  54.0774441  28.4759283  59.1116428  52.8742266
  29.5188212  58.9436960  52.6053953  27.7039933  57.8382158  53.2572174
  26.7297840  57.9854488  53.7234163  27.5100970  57.2282362  52.3749304
  28.2255363  57.1783590  53.9505339  27.7648425  59.6715784  51.7512846
  28.4685183  60.2757120  51.5033627  28.7307119  59.4507122  55.4971266
  29.8822379  58.9828730  55.7139349  27.7380872  59.3468237  56.3894320
  26.4125586  59.9637365  56.3647509  25.8956432  59.5738268  55.4878998
  26.5075421  61.0493708  56.3427973  25.6551456  59.7498131  57.7268648
  24.9527907  58.9289904  57.5817919  25.1407886  60.6240892  58.1258392
  26.8207097  59.2392969  58.6606026  26.4581180  58.5267448  59.4014788
  27.3730326  60.0582504  59.1214180  27.8147507  58.6415672  57.6785946
  28.7973762  58.7739038  58.1314182  27.5929117  57.1197319  57.4782515
  26.8850708  56.7061663  56.5813065  28.4451890  56.2936306  58.1104422
  29.0304255  56.7454052  58.7985516  28.4761095  54.7977304  57.8697109
  28.6331463  54.7743416  56.7913294  29.6246338  54.1366768  58.5747528
  29.6675634  53.0774546  58.3211517  31.0089040  54.7127438  58.1227303
  31.2245321  55.7411289  58.4125996  31.7637014  54.1095018  58.6271906
  31.0606980  54.5805597  57.0420170  29.5747161  54.1635799  60.1019478
  28.7306571  53.6217642  60.5286789  30.4876184  53.7218571  60.5014467
  29.5204496  55.2167130  60.3777361  27.2210360  54.0298414  58.0216694
  27.0169973  52.9953671  57.3764324  26.3089824  54.4903708  58.8106871
  26.6227102  55.2687788  59.3726110  25.0429940  53.8882542  59.1710806
  25.2079272  52.8125763  59.1093111  24.6122479  54.1665363  60.6257248
  23.7126327  53.5916901  60.8455992  25.4071927  53.9984131  61.3522863
  24.1317534  55.6157541  60.7724094  24.7963023  56.2594223  60.1960802
  23.1052303  55.6884480  60.4131556  24.3065548  55.9627056  62.2769213
  23.5118175  55.3918791  63.0913734  25.1544285  56.8274736  62.5660515
  23.9880872  54.1676283  58.1120110  23.1391573  53.2737350  57.8591919
  24.0663242  55.3230190  57.4332094  24.7771454  55.9726429  57.7378750
  23.3288980  55.5529547  56.1486483  22.3085141  55.1847649  56.2551975
  23.1368136  57.0723295  55.9062243  24.1230249  57.5219727  56.0215807
  22.8086710  57.5494766  54.4984102  23.5712528  57.1565723  53.8259602
  21.8094659  57.2755098  54.1598368  22.7936411  58.6393166  54.4875097
  22.1563840  57.6785278  56.9074440  22.1910167  58.7670183  56.8616438
  21.1839962  57.2103214  56.7546463  22.5843406  57.4579716  57.8853512
  23.9952517  54.8000240  54.9551678  23.2656312  54.2968369  54.0580845
  25.3348136  54.6724272  54.8824787  25.8297992  55.1713276  55.6078672
  26.0423923  53.8839245  53.8508987  25.6598926  54.2060947  52.8823948
  27.5059247  54.1745424  53.9804363  27.7439475  55.2323008  53.8682175
  27.7736163  53.7569237  54.9510241  28.4325528  53.5046959  53.0107737
  28.2644916  52.4322939  53.1098557  28.3627367  53.8728762  51.5270138
  29.0709519  53.2162762  51.0216236  27.3613834  53.6626577  51.1512518
  28.6390328  54.9229193  51.4312553  29.8897648  53.6992025  53.4772205
  30.5872679  53.0152464  52.9936934  29.9972630  54.7776318  53.3608913
  30.0287843  53.4815884  54.5361900  25.7089162  52.4363708  53.8987064
  25.7439613  51.7880869  52.8602314  25.3999400  51.8717384  55.0590563
  25.4941463  52.4319172  55.8941746  25.0396371  50.4369831  55.2384853
  25.1151466  49.9534702  54.2645168  25.9737229  49.7033596  56.2042904
  25.5701590  49.8796129  57.2013760  26.0054636  48.6408520  55.9631109
  27.6685262  50.3567362  56.0456753  27.4397254  51.3055897  56.9579363
  23.5543585  50.2424669  55.6478691  23.1273150  49.2493391  56.2457657
  22.6841569  51.2482452  55.3944016  22.9557753  52.0548058  54.8505402
  21.2688661  51.1718082  55.7492828  21.2549329  50.9970093  56.8250895
  20.5761671  52.4939108  55.2819777  21.2010026  53.2836103  55.6991720
  20.4347587  52.5931120  54.2057467  19.2050695  52.7390671  55.9185839
  18.4461689  52.0188475  55.6128836  19.2122793  52.6462173  57.0045996
  18.5264647  54.1160059  55.7040691  19.2699599  54.8273659  56.0636330
  18.4519982  54.3720245  54.6471834  17.2677624  54.3345594  56.5772724
  16.4617276  53.6171293  56.4233160  17.6058149  54.3315125  57.6135206
  16.6257966  55.6388521  56.3854694  15.6741762  55.5540323  56.7130852
  17.0106757  56.4436340  56.8590736  16.6452920  55.9049654  55.4113531
  20.4994726  49.9875069  55.1981449  20.2890515  49.8987436  54.0084982
  20.1352572  49.0209389  56.0268593  20.2902007  49.1744995  57.0130205
  19.3179882  47.8371668  55.6860352  18.5524714  47.7208996  56.4532137
  18.8081086  47.9555655  54.7299433  20.1981354  46.5551090  55.5915356
  19.7607696  45.4687405  55.7746983  21.5174294  46.8324614  55.3791952
  21.9540620  47.7319241  55.5220795  22.6055527  45.8201694  55.4064083
  22.2658420  44.8955107  54.9398136  23.7867594  46.3462305  54.5677662
  24.0209675  47.3371553  54.9567556  24.6328449  45.6692266  54.6857071
  23.4034157  46.3337517  53.0729866  23.2523060  45.0719404  52.4005270
  23.4870505  44.1089725  52.8294611  22.9733062  45.1158857  50.9877300
  22.7951956  44.1565800  50.5246878  22.5806236  46.3427782  50.3383350
  22.1726203  46.3301086  49.3384457  22.6002383  47.5715494  51.0281944
  22.2827840  48.4844589  50.5463028  23.0793953  47.5253916  52.3848677
  23.0480337  48.4329557  52.9694605  23.0794024  45.6045771  56.8560076
  22.6570106  46.4210796  57.7343082  23.7563252  44.4509363  57.2391415
  24.1128039  43.3627033  56.3422918  25.0227237  43.6002970  55.7912064
  23.2880545  43.0873585  55.6849623  24.4949412  42.1774912  57.2912979
  25.3218055  41.5509844  56.9567919  23.6147451  41.6414595  57.6462936
  24.8774862  42.9062462  58.6348772  25.9490299  43.1028557  58.6701012
  24.5063114  42.2495031  59.4216537  24.0906048  44.2661572  58.6649942
  23.1908250  44.1226292  59.2632437  24.9039626  45.4766226  59.2248726
  25.6804609  46.1629200  58.5150194  24.7947049  45.6683445  60.5499029
  24.2665052  45.0491571  61.1479950  25.5660176  46.9218636  61.1931324
  25.3209472  47.8097296  60.6102657  25.0351143  47.1401072  62.5954008
  25.4076219  48.1119061  62.9193544  23.9517927  47.0222092  62.6203537
  25.4364514  46.4906788  63.3733940  27.0725369  46.7653465  61.2330341
  27.7837634  47.7346230  61.3231611  27.4968219  45.5476952  61.1468029
  26.7947817  44.8367643  60.9991169  28.8446522  45.0910091  61.0246849
  29.3887210  45.2969646  61.9464636  28.8529515  43.5263729  60.8080912
  28.2093430  43.2882786  59.9612236  29.8575854  43.1960106  60.5441332
  28.4519887  42.7524376  62.0637608  28.7526822  41.7354918  61.8117428
  29.0102673  43.1131840  62.9276371  26.9416118  42.8432608  62.4214172
  26.0856295  43.1988525  61.5855503  26.4955211  42.7066994  63.6185074
  29.6417117  45.8100128  59.9287796  30.7478476  46.2931395  60.2262640
  29.1197681  46.0477114  58.7595940  28.3048558  45.4973316  58.5291672
  29.8717666  46.7067242  57.6838636  30.8750677  46.2824154  57.6457691
  29.0930867  46.4591694  56.3420868  28.0707526  46.8288231  56.4214277
  29.6333170  47.0538664  55.6054831  29.0901995  45.0186968  55.9445763
  29.9536109  44.5806074  54.9468088  30.6787610  45.2510262  54.5096636
  29.9196005  43.2762861  54.4294977  30.6593466  42.8836393  53.7475824
  29.0650153  42.3452759  54.9835396  29.1069865  41.3153553  54.6612024
  28.1785727  42.7909327  56.0015011  27.4505734  42.0973969  56.3957453
  28.1445599  44.1164494  56.4362049  27.3816562  44.4794846  57.1089506
  30.0767756  48.1540346  57.9668903  31.1124730  48.7716293  57.6582575
  29.0907621  48.7651682  58.5843706  28.2636094  48.2362509  58.8213539
  29.2996502  50.0930500  59.1657495  29.6579075  50.7349920  58.3609724
  27.9576302  50.6092501  59.7485542  27.3831820  49.8097658  60.2164602
  28.1887746  51.4227057  60.4362774  27.3041844  51.0738516  59.0101385
  30.3574061  50.1878929  60.2478409  31.1387014  51.1045170  60.2758169
  30.3611302  49.2375517  61.2228727  29.5830345  48.5937977  61.2388706
  31.2705612  49.1714144  62.3698759  31.2207699  50.1376629  62.8718662
  30.8525920  48.0497313  63.3432865  30.7860661  47.0476246  62.9196548
  31.7159081  48.0352926  64.0085506  29.6247792  48.4159994  64.2332029
  29.7065520  49.3736506  64.7473192  28.6861849  48.3569622  63.6821508
  29.5284367  47.1658945  65.5067348  28.5446286  45.7968521  64.8476744
  28.4741902  45.0951815  65.6788111  27.4988770  46.0828590  64.7349644
  29.0404105  45.3369331  63.9928246  32.6759934  48.9737463  61.8374968
  33.5771370  49.7160053  62.2185373  32.8654504  47.9084778  61.0394144
  32.0946240  47.2814465  60.8584261  34.2008686  47.7145147  60.3533888
  34.9705410  47.5317383  61.1032534  33.9911914  46.6716957  59.3057823
  33.7302232  45.7755661  59.8687649  33.1121182  46.9195938  58.7109089
  35.1154828  46.4277077  58.3627748  35.2215433  47.0993614  57.1893215
  34.3271804  47.6640892  56.9711590  36.3781857  47.0293951  56.3780403
  36.4054489  47.5537300  55.4342556  37.4473858  46.1928320  56.7756939
  38.6279583  46.3129950  56.1119843  38.6837268  47.2372007  55.8583212
  37.2944188  45.3620911  57.9405832  38.0423355  44.6099901  58.1439447
  36.0735345  45.4173231  58.6795902  35.9713888  44.7550344  59.5265484
  34.7579455  49.0279007  59.7921944  35.9150362  49.3654537  60.0171471
  33.9898157  49.8621941  59.0021133  32.9969311  49.7251606  58.8776112
  34.4637799  51.1508322  58.3925390  35.4248595  50.9933329  57.9030228
  33.4095788  51.6794014  57.4119902  32.4124932  51.4879322  57.8085470
  33.4919024  52.7660990  57.3916006  33.5992837  51.1597204  55.8972931
  33.9375496  50.1235342  55.8941984  32.2275329  51.3839102  55.1314306
  31.5623093  50.5821228  55.4519272  31.9602370  52.4391270  55.0751400
  32.4227142  51.1400700  54.0871382  34.7382784  51.8359900  55.1622152
  35.6518841  51.5941954  55.7053137  34.8660612  51.4013338  54.1708279
  34.4549966  52.8865290  55.0972176  34.7443795  52.2212458  59.4950151
  35.6226897  53.0528355  59.3330765  33.9314580  52.1406746  60.5822229
  33.0848598  51.5905046  60.5560732  34.1199613  52.9598141  61.8208694
  34.1392994  54.0024233  61.5035534  32.9470563  52.7311659  62.7567673
  32.0900321  53.0943823  62.1895981  32.8908920  51.6644907  62.9739141
  33.0661678  53.4195518  64.1376066  33.5603166  52.8196859  65.0327492
  32.5976872  54.6352577  64.2815065  32.7813458  55.1454639  65.1336050
  32.0678091  55.0319290  63.5186291  35.4444289  52.6714420  62.4905491
  36.0951877  53.5513830  63.0048609  35.9082913  51.4212036  62.5275612
  35.3109694  50.6963682  62.1561813  37.2674274  51.0069036  62.8895950
  37.3621964  51.3901520  63.9055920  37.4707818  49.5003891  63.0260897
  36.6693068  49.0694380  63.6261034  37.4114037  48.9644766  62.0787907
  38.7631607  49.1474771  63.7274313  38.8280272  48.8559771  65.1202679
  38.0247831  49.2054033  65.7520103  40.0495625  48.2309198  65.6215477
  40.1182699  48.2665968  66.6987705  41.1424351  48.0212164  64.7570992
  42.3701143  47.6512623  65.1840544  42.4963570  47.8204441  66.1205578
  41.0416651  48.2722425  63.4093332  41.8326712  47.9566860  62.7451468
  39.8811507  48.7539625  62.8485823  39.8005486  48.8626242  61.7770863
  38.3882117  51.6233206  62.0276165  39.2194891  52.3785067  62.5239706
  38.3649087  51.3736677  60.6963062  37.6699233  50.7271624  60.3511572
  39.2349672  51.9546032  59.7309017  40.2467537  51.5649796  59.8430443
  38.8123417  51.5104246  58.3411741  37.8532434  51.9327974  58.0414581
  39.6044779  51.8379545  57.6678705  38.7313390  49.6209002  58.2653522
  37.4604845  49.5511389  58.6715031  39.3990135  53.4923935  59.7793818
  40.4860306  53.9939308  59.9566364  38.2699370  54.1837072  59.5043516
  37.4128246  53.6872768  59.3068266  38.2615924  55.6514120  59.6130085
  38.9411759  56.1346292  58.9110327  36.7520809  56.1210346  59.4636345
  36.0635304  55.7034969  60.1982498  36.8031716  57.1886635  59.6773148
  36.1756682  55.9515762  58.0952358  36.7020655  56.6156816  57.4096870
  36.2462592  54.9450541  57.6828909  34.6783376  56.3935518  58.0924225
  34.2423773  55.6103611  58.7126207  34.5898724  57.3948765  58.5138798
  34.1706300  56.4464998  56.6872120  34.6738458  55.9050512  55.9989500
  33.1546021  57.1191788  56.1717367  32.2814918  57.7640581  56.8437624
  32.2984743  57.6420593  57.8462219  31.4649582  58.1683922  56.4080000
  33.1058717  57.2694159  54.8767662  33.8275504  56.7650890  54.3818569
  32.7754378  58.1386709  54.4826698  38.8287830  56.0947800  60.9915018
  39.3548250  57.1785212  61.1271667  38.6770248  55.2588749  62.0063972
  38.0755615  54.4718456  61.8090963  39.0906191  55.4513502  63.4136152
  38.8610935  56.4898014  63.6524248  38.6421180  54.7502327  64.1174459
  40.6402683  55.4139566  63.5360289  41.1791372  56.1716366  64.4287348
  41.3310814  54.6242046  62.7260876  40.9225416  54.0722847  61.9854212
  42.8049469  54.4054985  62.9788923  43.0061483  54.1242027  64.0125751
  43.3258867  53.2422018  62.0695925  42.8657961  53.3549929  61.0879135
  44.4150782  53.2659769  62.0348740  42.8608894  51.8792772  62.6739931
  41.8574905  51.9571638  63.0925941  42.9315519  50.8900023  61.4807701
  43.9546824  50.9095001  61.1053705  42.6321745  49.8724174  61.7317629
  42.2844839  51.3000107  60.7053375  43.8173723  51.4545441  63.8113165
  43.7936878  52.2082281  64.5983982  43.3511925  50.5325270  64.1586828
  44.8227119  51.3424301  63.4053278  43.6460304  55.7150507  62.5926971
  43.5808897  56.0662746  61.4294958  44.3348932  56.3580036  63.4952593
  44.3312216  55.9191370  64.4049168  45.3447104  57.4459791  63.2001543
  44.8318720  58.0278921  62.4343395  45.5733204  58.2744360  64.4452906
  45.7531500  57.6280403  65.3043222  46.5212870  58.8114262  64.4121122
  44.4735622  59.2712593  64.7342205  44.6529436  60.1184893  64.0723133
  43.5113621  58.8250637  64.4828367  44.2671728  59.7693920  66.1939383
  45.1303148  60.3569317  66.5068054  43.3449078  60.3493261  66.2284994
  44.1786289  58.6482000  67.2544527  44.7757435  57.8360271  67.1917295
  43.5123539  58.5518312  68.3904314  42.6247549  59.3336964  68.8589668
  42.4134207  60.1882696  68.3638382  42.0945215  59.1357088  69.6954823
  43.6796999  57.5152397  69.1161060  44.4572783  56.9035530  68.9128351
  43.1449461  57.4889421  69.9725199  46.5591669  56.8874264  62.4805403
  46.6450834  55.6815052  62.3980331  47.4498987  57.7270317  61.9599867
  47.2685766  58.6784983  62.2462273  48.2799530  57.5269890  60.8134842
  47.7363586  57.1664858  59.9401903  48.8765049  58.9654255  60.4393101
  48.0409145  59.5487118  60.0524521  49.2364407  59.4756985  61.3327169
  50.0406456  58.9893484  59.4361210  49.8838902  58.4356928  58.1525517
  48.9547014  58.0976439  57.7181149  51.0070562  58.3750391  57.2840834
  50.8931780  58.0137873  56.2726879  52.3297644  58.7186098  57.7385664
  53.1312943  58.6777973  57.0158720  52.4806881  59.2397118  59.0504599
  53.4086609  59.5860863  59.4809055  51.3670349  59.3562603  59.9036503
  51.4989138  59.6142673  60.9440613  49.3864250  56.4599991  61.1173725
  49.8234129  55.7604456  60.2048731  49.8659658  56.3347673  62.3799992
  49.5006800  56.9694996  63.0755424  50.7249212  55.2442884  62.8692913
  51.3576078  54.8870468  62.0567751  51.6952610  55.9121704  63.8695765
  52.1159792  56.8012047  63.3997583  51.2464905  56.2798119  64.7923660
  52.9221392  55.0149012  64.2167139  52.6572227  54.1929579  64.8817968
  53.1793213  54.6414089  63.2255220  54.1491461  55.7440138  64.8771620
  53.9930773  56.8265247  65.5400896  55.2248669  55.2218246  64.6393681
  50.0382280  53.9583826  63.5030031  50.6109858  52.8625154  63.6616421
  48.8150406  54.1671419  63.8837767  48.3744001  55.0751734  63.8461590
  48.0771732  53.1494093  64.7238731  48.8061237  52.9069757  65.4971504
  46.8043709  53.8693142  65.3665972  46.2916756  54.3326378  64.5236397
  46.1072969  53.1341743  65.7687855  47.0999432  54.9994802  66.3737965
  47.6638174  54.5956326  67.2146606  47.7923155  55.7179737  65.9350586
  45.8908844  55.7987309  66.8731165  46.0086870  56.3931417  67.9466343
  44.7865200  55.6739950  66.3059187  47.7620840  51.8211269  64.0780401
  47.5681543  51.7617273  62.8943253  47.7592087  50.7748747  64.9282122
  47.7549505  50.9890556  65.9152317  47.7381134  49.3733358  64.5108986
  48.3207464  49.3416643  63.5902309  48.5541773  48.5068607  65.5518293
  49.5753813  48.8870811  65.5779219  48.0656910  48.7033463  66.5062284
  48.5302544  47.4407053  65.3263569  46.3530636  48.7670517  64.1110420
  45.5322504  48.6821747  65.0348473  46.0541010  48.3052254  62.8669500
  46.7964506  48.3154345  61.6116905  47.5141096  47.4955654  61.6413784
  47.3871565  49.2129183  61.4281511  45.7580566  48.2302761  60.5014229
  46.2317562  47.8279209  59.6059752  45.2102852  49.1407776  60.2584648
  44.8683500  47.2055244  61.1583853  45.1378965  46.1795616  60.9076881
  43.8487005  47.4354744  60.8492994  44.9191093  47.4423122  62.6642179
  43.9959145  47.9045439  63.0137205  45.0693321  46.0939455  63.3970737
  46.1259985  45.3922749  63.4825516  44.0135622  45.7413816  64.0773296
  43.2755327  46.4303446  64.1046190  43.7826967  44.3935394  64.6983767
  44.7068405  43.8527918  64.9024630  43.1887054  44.5721436  66.0965157
  43.6311340  45.3964281  66.6559076  42.1226549  44.7587585  65.9668922
  43.2472563  43.3703327  67.0206833  43.4069157  42.2988510  66.4500093
  42.9542112  43.3651876  68.2234335  42.8825521  43.5629463  63.7835217
  41.6578245  43.5365677  63.7906408  43.5758162  42.8989935  62.8327751
  44.5825243  42.9722166  62.8685808  42.9658794  42.0344734  61.8215704
  42.2798538  42.6193762  61.2089062  44.0103722  41.4470720  60.8105755
  44.4370079  40.4952765  61.1270714  43.4853697  41.1563206  59.9006653
  45.1406479  42.4219275  60.3406525  44.9902058  43.2579470  59.1783333
  44.1531801  43.1291246  58.5081148  45.9517002  44.2141151  58.7699270
  45.8447409  44.7802830  57.8564692  47.0801449  44.3717146  59.6055746
  48.0665970  45.2942896  59.4001818  47.8433037  45.8293056  58.6350012
  47.2817898  43.5833502  60.7933426  48.1434774  43.7110472  61.4317703
  46.2878752  42.6025486  61.1769056  46.4180326  41.9076109  61.9933176
  42.1675539  40.8074999  62.4251795  41.1632967  40.3299809  61.8080664
  42.5805140  40.3439379  63.5750341  43.3665180  40.7386923  64.0714931
  41.8743515  39.3983555  64.3401289  41.8626642  38.4256673  63.8483429
  42.6722717  39.1563320  65.6431532  43.7055016  38.9813209  65.3432989
  42.5596952  40.0290155  66.2864637  42.1440554  37.9754806  66.4795780
  41.1331701  38.3107471  66.7115402  42.1852160  37.0719481  65.8712769
  43.0522633  37.7092743  68.0436420  44.4255924  36.7868352  67.3221350
  44.9954748  37.4798417  66.7032003  45.0078201  36.3945436  68.1559324
  44.0703869  35.9177470  66.7684031  40.4646873  39.8423076  64.6911955
  39.4560218  39.1528726  64.3892813  40.3758621  41.0426807  65.3029203
  41.2271643  41.4373446  65.6765795  39.1410732  41.7627239  65.6203079
  38.5333586  41.2473917  66.3640976  39.4224668  43.2013702  66.1750031
  39.8941684  43.0917835  67.1515226  40.0902414  43.7349749  65.4986572
  38.2426357  44.1687107  66.2013149  37.1975303  43.9278603  67.0564270
  37.2862768  43.1185341  67.7660227  36.0581708  44.7217512  66.9601822
  35.1544595  44.5573950  67.5282526  36.0310721  45.8366680  66.0218811
  34.9195147  46.4786148  65.7596350  34.2466283  46.2089205  66.3889933
  37.1021008  45.9478140  65.1094055  37.0404863  46.7339563  64.3714476
  38.1609726  45.1161623  65.2040195  38.9790368  45.1267195  64.4989872
  38.2488322  41.7954731  64.3592834  37.0370770  41.6769743  64.4969463
  38.8389015  42.0580816  63.1979370  39.8453236  42.1297026  63.1522799
  38.0439115  42.4054337  61.9860935  37.1794701  43.0285978  62.2152472
  39.0090704  43.0978155  60.9466505  39.8670053  42.4451590  60.7851458
  38.5601759  43.2703304  59.9684715  39.4794202  44.5263052  61.3982677
  39.7262239  44.3889618  62.4510384  40.6215811  45.2146482  60.5896664
  40.2236748  45.4477072  59.6020174  40.8683872  46.1319447  61.1242199
  41.5834951  44.7067118  60.6591177  38.3261538  45.4367161  61.5191126
  38.6473060  46.1546898  62.2737455  38.0771065  45.9215498  60.5751801
  37.4108410  44.9481630  61.8532133  37.4663949  41.1718607  61.2611961
  36.3391256  41.2681913  60.6649303  38.3115363  40.1059294  61.2524652
  39.0753293  40.1756716  61.9096231  37.7837491  38.7833929  60.6908846
  37.3710990  39.0534401  59.7188282  38.9408970  37.7820802  60.4087496
  39.5661235  37.5602007  61.2735987  38.5049248  36.8388462  60.0796032
  39.7193575  38.4073710  59.2660761  39.1465068  38.4666657  58.3406401
  39.9824333  39.4306064  59.5341825  41.0064316  37.6958966  58.9220905
  40.7584620  36.7253137  58.4924698  41.4860153  38.0946016  58.0281496
  42.0101500  37.5599551  60.0173903  41.6722631  37.1121407  60.8572674
  43.3079529  37.8061366  59.9048185  43.8519382  38.2397652  58.8634396
  43.4642458  37.9027462  57.9938364  44.8570347  38.3362389  58.8873196
  44.0790844  37.5094795  60.8591413  43.7315369  37.1197128  61.7236614
  45.0611925  37.6918292  60.7097578  36.7165709  38.1725311  61.6398144
  35.7026315  37.7041674  61.1029148  36.9425130  38.1953239  62.9936552
  37.6493263  38.8435936  63.3103085  36.0596204  37.5973725  63.9962959
  35.9615493  36.5634513  63.6654043  36.7635179  37.6273155  65.3484201
  37.6329684  36.9714475  65.3930378  37.1044683  38.6501360  65.5087042
  35.8582258  37.1135592  66.5086985  36.2385249  37.3716378  67.4970675
  34.9082303  37.6479626  66.5035963  35.5859923  35.6576037  66.5463305
  35.5569434  34.9400973  65.5278492  35.5712008  35.0341964  67.6950598
  35.5376959  34.0251660  67.6660585  35.6837058  35.3961015  68.6312580
  34.6046948  38.1848955  63.8923645  33.5904860  37.5014353  63.9655304
  34.5708776  39.5043516  63.6152649  35.3992939  40.0445938  63.4104061
  33.2874775  40.2069044  63.4279394  32.7764559  40.2501202  64.3897533
  33.6530733  41.7315817  63.1201696  34.2850208  42.1045351  63.9261770
  34.3404865  41.7410135  62.2743130  32.5091910  42.6754284  62.9452515
  31.6817951  42.1730614  62.4441099  32.0836663  43.2426405  64.2143726
  31.2906170  43.9903545  64.2044544  31.6765213  42.4608660  64.8555994
  32.9399586  43.7469769  64.6621609  32.8764415  43.8417387  62.0627594
  32.0810246  44.5860195  62.1010733  33.8049388  44.2501402  62.4617529
  32.8795576  43.5548592  61.0111904  32.3559904  39.5878458  62.3704624
  31.1613774  39.2100072  62.6363039  32.9967570  39.3832040  61.2317228
  33.9590549  39.6755505  61.1388969  32.4039412  38.7112451  60.0764275
  31.3923097  39.0385246  59.8364449  33.2468176  39.0199351  58.8098764
  34.2295241  38.6157274  59.0527916  32.9172254  38.3420491  58.0225134
  33.3780694  40.4570484  58.2642460  32.1658373  41.1057043  58.0233717
  31.2706280  40.5015564  58.0209112  32.1058083  42.4349785  57.5845098
  31.1291599  42.8268576  57.3416281  33.2868409  43.1424809  57.3975039
  33.4224105  44.1188145  56.9561529  34.4949269  42.4073458  57.6289892
  35.4021978  42.9237413  57.3522234  34.5797324  41.1258602  58.0286884
  35.5014634  40.5648088  58.0737782  32.2083330  37.2752738  60.3120565
  31.0767221  36.8030167  60.0652695  33.1302929  36.5216446  60.9189987
  33.9306164  37.0333982  61.2620592  33.0255675  35.0642157  61.1419249
  32.6584148  34.5639658  60.2457952  34.4100571  34.5591784  61.6149521
  34.7683024  35.1752758  62.4396849  34.2834163  33.6554503  62.2110605
  35.5702305  34.3101668  60.6838608  35.3316331  33.5751748  59.9151230
  35.8684444  35.2283311  60.1777506  36.7885280  33.8554740  61.5159750
  37.0825577  34.5578003  62.2959661  36.5667748  32.8796315  61.9480133
  37.9887557  33.8384461  60.6494617  37.7810740  34.0457916  59.6830368
  39.3016267  33.7599730  60.9354210  39.8433208  33.4142709  62.0946360
  39.2731714  33.2962584  62.9199266  40.8449364  33.3141971  62.1773815
  40.1108789  34.0655136  59.9192810  39.6586728  34.2550540  59.0362835
  41.1200571  34.0423727  59.9528408  31.9154263  34.7945714  62.1982956
  31.1578059  33.7778425  62.1341467  31.7433810  35.6912923  63.1420851
  32.4129415  36.4440560  63.0704021  30.5162430  35.6187415  64.0714884
  30.3824544  34.5951915  64.4215584  30.7491994  36.5359545  65.3000355
  31.1399722  37.4875069  64.9395561  29.3900132  36.6790962  65.9787178
  28.9146733  35.7003498  66.0436630  29.4972467  36.9233608  67.0355701
  28.7284040  37.3908710  65.4850101  31.7577529  35.8980179  66.2321854
  31.3253403  35.0259495  66.7227077  32.6250911  35.5869865  65.6498814
  32.1180987  36.7941737  67.4160719  32.9848361  36.4446878  67.9770803
  32.5230169  37.7011585  66.9671535  31.3581610  36.8902349  68.1915522
  29.2615819  35.8491302  63.2210875  28.2971144  35.0974917  63.3197498
  29.2767477  36.7766547  62.3341227  29.9609613  37.5115991  62.4427891
  27.9964399  37.1077991  61.6002274  27.1754885  37.2754574  62.2973871
  28.1566095  38.4085488  60.7512856  28.3853650  39.2176938  61.4448690
  29.0873218  38.2107949  60.2195215  26.9096708  38.7909389  59.9443293
  26.5708113  38.0361629  59.2346907  25.7875609  39.2220759  60.8569574
  24.9415588  39.4401503  60.2051687  25.4068041  38.4122300  61.4792728
  26.0274315  40.1110220  61.4403439  27.3207140  40.0027609  59.0915680
  28.2265854  39.8224878  58.5127783  26.5084815  40.2583408  58.4110785
  27.4396157  40.8350992  59.7852373  27.5150323  35.9967160  60.6887627
  26.3168883  35.6367183  60.6319904  28.4533501  35.3067684  59.9874592
  29.3760872  35.6984830  60.1108217  28.3475399  34.1009808  59.1685963
  27.6772809  34.3701410  58.3522558  29.7821259  33.8238907  58.6139774
  30.1349521  34.6930432  58.0588341  30.3674603  33.5825229  59.5012426
  29.9020362  32.6571274  57.5961733  29.5255804  32.7829838  56.2666416
  28.9504528  33.6446095  55.9612989  29.9200535  31.7132735  55.4088354
  29.6684456  31.7885256  54.3612528  30.4886031  30.5319548  55.8977938
  30.7434106  29.7752190  55.1705933  30.8740377  30.4754329  57.2249746
  31.2935662  29.5225048  57.5118971  30.6313181  31.5481019  58.0547523
  30.9945202  31.5139627  59.0712786  27.7387810  32.9159904  59.9813461
  26.7327785  32.3559451  59.5056295  28.1878638  32.6803708  61.2258625
  29.0778804  33.0816698  61.4845800  27.5816298  31.6281986  62.0581627
  27.2702813  30.7782626  61.4509010  28.5910439  31.3671684  63.1959343
  29.5084047  31.0686755  62.6885319  28.7395430  32.3204637  63.7031603
  28.2813764  30.2614260  64.1695976  27.3411226  30.5318999  64.6500826
  28.1831622  29.2852354  63.6947155  29.2433429  30.0523734  65.2787352
  28.8712025  29.2719936  65.9425259  30.2070618  29.7600746  64.8617029
  29.3725777  31.2021542  66.2171888  28.6372495  31.8929005  66.2648487
  30.3942704  31.4529252  67.0523119  31.4340591  30.6569839  67.0862007
  31.4789462  29.8630738  66.4634657  32.1107745  30.7327724  67.8321314
  30.3942418  32.4810457  67.8059959  29.5675302  33.0423236  67.9530191
  31.1038899  32.5009346  68.5244036  26.2220502  32.0369124  62.6306629
  25.3924394  31.1798668  63.0030346  25.9864259  33.3176303  62.5911331
  26.7038059  33.9909911  62.3629951  24.7506356  33.9302897  63.0259466
  24.4137716  33.4795785  63.9594793  25.0576830  35.4477406  63.5297585
  25.5262995  36.0008025  62.7157450  23.8112259  36.1886859  63.9521503
  23.1988263  35.4721713  64.4995785  24.1801429  36.9506812  64.6387148
  23.3591485  36.6484642  63.0733252  25.9015656  35.3537893  64.6759748
  26.7274332  35.0712585  64.2763329  23.6749816  33.8173699  61.9344425
  22.5329113  33.8461733  62.3442745  24.1076016  33.5252380  60.6603813
  25.0643516  33.5830855  60.3419781  23.1796956  33.0214071  59.7056293
  22.1469975  33.2020140  60.0039864  23.4657121  33.7860990  58.4312391
  24.5381522  33.7740803  58.2367468  22.9199481  33.2871389  57.6304388
  23.1117511  35.3068638  58.3377266  23.3438611  35.6824446  59.3343067
  23.8487816  36.0440588  57.2042370  23.5975003  35.5704045  56.2552309
  23.6877894  37.1213865  57.2435808  24.9166846  35.9525752  57.4025154
  21.6133499  35.5344892  58.1565428  21.0870409  35.1524758  59.0312815
  21.3651037  36.5948653  58.1109238  21.0964131  35.1573706  57.2741270
  23.2738423  31.5157390  59.5211840  22.4855709  30.9038734  58.7700558
  24.1752863  30.8222818  60.2769136  24.7849846  31.3333154  60.8991766
  24.4433141  29.3525672  60.3354025  25.2229047  29.1198564  61.0607910
  23.2201672  28.4790587  60.6918621  22.4538159  28.5408163  59.9192095
  23.5462809  27.4439788  60.7936859  22.7610254  28.8143945  62.0672941
  21.8327975  29.5261526  62.3202848  23.4534955  28.2135630  63.0123329
  23.3499169  28.5200381  63.9691162  24.0565968  27.4463964  62.7519035
  25.1699686  28.9129567  59.0453672  25.0300550  27.7787209  58.6486864
  25.8439445  29.7500014  58.3181810  25.8402729  30.7314587  58.5565758
  26.5857601  29.4293141  57.1417141  25.9594369  28.8968253  56.4259815
  26.9149303  30.7464623  56.4047289  27.5275373  31.3693500  57.0565176
  27.4700952  30.6780505  55.4692030  25.6477690  31.4892507  55.8969116
  25.7008910  32.6527977  55.1721954  24.4271016  33.0107355  54.9121571
  24.2040801  33.9424920  54.4136667  23.5770416  32.0080447  55.2920961
  22.5910473  31.9781804  55.0752497  24.3376541  31.0422730  55.9447622
  23.9638782  30.1151180  56.3535070  27.8137016  28.6254215  57.3576880
  28.4218144  28.5933042  58.4487724  28.3486056  27.9310393  56.3263035
  27.9673386  28.0471325  55.3982592  29.4174814  26.9100857  56.4554262
  29.7363567  26.8613124  57.4966002  28.7281442  25.5774641  56.0750294
  27.7704215  25.3767180  56.5552044  28.4921002  25.6842494  55.0162649
  29.6352482  24.3157339  56.2765932  28.9722896  23.4508300  56.2535954
  30.4763699  24.3801355  55.5863237  30.1859355  24.0907359  57.6735497
  29.7331738  24.5966148  58.6674738  31.2079191  23.2728481  57.8154755
  31.4517617  22.8471828  58.6983395  31.5538263  22.8738403  56.9545221
  30.6395245  27.1178961  55.5387020  30.3983879  27.2573161  54.3260002
  31.8728828  27.0987368  56.0716200  31.9833517  27.0056725  57.0712376
  32.9860044  27.4908137  55.1798439  32.6328778  28.3440661  54.6007347
  34.1554904  27.9831696  56.0499239  33.6503267  28.3379269  56.9482899
  34.7670627  27.0860505  56.1460876  35.0094414  29.0689611  55.4093122
  34.7742510  30.3885651  55.7339382  34.0130353  30.6749630  56.4445305
  35.4988956  31.4401031  55.1894522  35.4321599  32.4756837  55.4886580
  36.4571428  31.1909842  54.1608000  37.0342803  32.2186089  53.4498501
  36.6429996  33.0528212  53.7192774  36.6681790  29.8363733  53.8143349
  37.3444986  29.5512938  53.0220461  36.0012627  28.7730718  54.4754934
  36.0962152  27.7619290  54.1080999  33.2751393  26.3155890  54.2031193
  34.0041471  25.3516603  54.5334148  32.7077961  26.3209987  52.9740000
  31.9440842  26.9673347  52.8358173  32.6201367  25.1416373  52.0530510
  33.3664727  24.3914819  52.3144913  31.3469982  24.3655872  52.2976303
  31.4952660  23.4054518  51.8034077  31.1594772  24.1815066  53.3554888
  30.0744963  24.9606156  51.6939211  28.9416337  24.5936084  52.0184231
  30.1907706  25.9351921  50.9400272  32.8873062  25.4533267  50.5677128
  32.6921487  24.6038151  49.6820211  33.4852982  26.6009593  50.3007317
  33.8029122  27.1175909  51.1083937  33.9506292  27.0575404  48.9896536
  34.2352009  28.1071448  49.0635061  35.2425456  26.3458133  48.7280798
  35.1068449  25.2655602  48.7804461  35.6577373  26.5510774  47.7413797
  36.3797331  26.7063284  49.7294807  37.0909524  27.8317547  49.4473982
  36.8041039  28.4194398  48.5878944  38.2228446  28.1364894  50.2998972
  38.8242197  28.9627957  49.9506569  38.6234021  27.2520065  51.3780308
  39.7109771  27.6716971  52.1285677  39.8790574  27.0570469  52.8465891
  37.9251313  26.0783243  51.4957285  38.2252979  25.4242802  52.3010492
  36.7260909  25.8626842  50.7937813  36.1457944  24.9630666  50.9364367
  32.9237509  27.2196889  47.8173351  33.1665707  27.1936607  46.5878868
  31.6714311  27.3140216  48.2665539  31.5030265  27.3488212  49.2618036
  30.4071331  27.4269438  47.4203825  30.6186318  27.0166826  46.4329290
  29.2862344  26.5839839  48.0970621  28.9993501  27.1273136  48.9973879
  28.0159187  26.3535762  47.3773050  27.4008679  25.6413698  47.9273701
  27.4754572  27.2817016  47.1913052  28.3254480  25.8870339  46.4420843
  29.8122621  25.3010941  48.4096479  29.8732758  25.3701091  49.3652201
  29.8755717  28.8550425  47.1729803  28.8088059  29.2832112  47.5791121
  30.7022095  29.5598197  46.3975525  31.5251732  29.1172028  46.0142469
  30.4269910  30.9376001  45.9345436  30.2566361  31.5525246  46.8182564
  31.7886877  31.4361668  45.3100634  31.9020581  30.9135747  44.3602467
  31.6500354  32.4958587  45.0957584  33.1556726  31.3062668  46.0516405
  33.4104657  32.0264769  47.1923065  32.6490855  32.6726890  47.6035404
  34.6765280  31.9631839  47.8151989  35.0148869  32.6477170  48.5789585
  35.6892586  31.1568522  47.2536230  36.6791201  31.1498189  47.6855040
  35.4111719  30.3629208  46.1530924  36.1936331  29.7448063  45.7382441
  34.1899300  30.4933286  45.5320644  33.9996576  29.9271989  44.6322298
  29.2610145  31.0791135  44.9553251  28.9832544  30.0991511  44.1938257
  28.7157941  32.2235847  44.6991682  28.9049506  32.9130530  45.4125738
  27.5080872  32.5266528  43.9000845  26.6381431  32.1405983  44.4313622
  27.3473859  34.0526867  43.6629534  28.3409810  34.4985127  43.7088633
  26.9160414  34.2874527  42.6898527  26.4595056  34.6393657  44.7568369
  26.7779851  34.2953682  45.9165192  25.3679371  35.1751351  44.5215654
  27.4836779  31.8301964  42.5335550  26.5752649  31.1239648  42.1267700
  28.6334395  31.9450688  41.8543243  29.3294668  32.4632454  42.3711777
  28.9804745  31.3852382  40.4972458  28.2152581  31.5134001  39.7316647
  30.2940249  31.9897676  39.9628568  30.5395603  31.3872218  39.0883541
  30.0710559  33.0404282  39.7771239  31.4793062  31.8379045  40.8427048
  32.2858596  30.7698512  40.8611155  32.1589112  29.9202323  40.2065706
  33.3757401  31.1029482  41.6494799  34.1719580  30.5030489  41.8115139
  33.3177471  32.3325634  42.2068071  34.1350603  33.0024505  43.1488657
  35.0071335  32.5716972  43.6182690  33.8458204  34.3503237  43.4358025
  34.5421195  34.9461150  44.0072966  32.6558733  34.9363232  42.9980040
  32.3903751  35.9209847  43.3534622  31.7789507  34.1867971  42.1791029
  30.7672834  34.5258856  42.0119190  32.0957017  32.9222655  41.6854763
  28.9831996  29.8273230  40.6086540  28.3443785  29.2018723  39.7530270
  29.6103787  29.2173815  41.6367483  29.9871588  29.7662139  42.3962975
  29.5621300  27.7561283  41.8465567  29.7225833  27.2800279  40.8792496
  30.6210327  27.3316312  42.8338766  30.6002712  28.0868220  43.6195993
  30.5723572  25.9730291  43.3870745  31.0976648  26.0444427  44.3394709
  29.5697284  25.8238745  43.7878132  30.8871794  25.2630281  42.6222992
  31.8989396  27.4125624  42.1972752  32.4793458  27.0330048  42.8610992
  28.1507730  27.2688580  42.2676849  27.8035545  26.1403346  42.0025063
  27.3151064  28.1467295  42.8147268  27.6951909  28.9713240  43.2570887
  25.8930969  27.9266906  43.0323315  25.8577490  26.8728971  43.3086777
  25.3830981  28.8416028  44.1762352  25.5651665  29.8953629  43.9651871
  24.3163824  28.8034177  44.3970537  26.1023569  28.4759545  45.4551888
  26.1167216  27.3881006  45.5220413  27.1428823  28.8004708  45.4648542
  25.4180622  29.1392136  47.0094252  25.8410192  30.9057546  46.8177319
  26.7512655  30.9835720  46.2231731  25.0417852  31.5203643  46.4035130
  26.0752177  31.3292980  47.7943993  25.1008177  28.0855036  41.7552805
  24.1095996  27.2822189  41.5427780  25.5617142  28.8866544  40.7545614
  26.2896085  29.5283508  41.0347319  25.0072813  28.9704037  39.4368148
  23.9251184  29.0855622  39.4981551  25.4111910  30.2437520  38.7145019
  26.4952040  30.3442621  38.7684608  25.1249170  30.2417827  37.6627684
  24.6839643  31.4364243  39.3163991  24.6292567  31.3526654  40.4017973
  25.4050088  32.7467752  38.9168882  24.8027730  33.5412717  39.3575525
  26.4061427  32.8316641  39.3395424  25.3834105  32.8900313  37.8365564
  23.2621765  31.5685391  38.8530350  23.2077742  31.6202760  37.7656245
  22.6775050  30.7342291  39.2405772  22.8564286  32.5035286  39.2393851
  25.2170944  27.6775289  38.5534191  24.3476009  27.4135613  37.7256298
  26.3586545  26.9634199  38.8051844  26.9647074  27.2674966  39.5537472
  26.8618751  25.7205963  38.1385016  26.5495086  25.7950854  37.0968771
  28.4419942  25.6880713  38.1782866  28.8205433  26.5813017  37.6813555
  28.8061213  25.6523013  39.2050481  29.0441537  24.5938206  37.2457790
  28.8103080  23.5762191  37.5586772  28.7283039  24.7945094  36.2220287
  30.6391811  24.6366096  37.3020339  30.9154582  25.6312919  36.9522047
  31.0752916  24.4555879  38.2844496  31.3415527  23.6099172  36.3607073
  30.9401321  23.6769414  35.3495336  32.4217367  23.7207413  36.2656617
  31.2112665  22.1648812  36.8719411  31.8343663  21.4693928  36.4870477
  31.4491415  22.1085000  37.8519082  30.2637029  21.8260336  36.7858672
  26.0981274  24.4484639  38.6480689  26.0946131  23.4582472  37.8837037
  25.7327962  24.4540787  39.8960471  25.8700466  25.3714633  40.2956295
  25.2103305  23.3622265  40.7618141  26.0550976  22.6781845  40.8427858
  24.8798013  23.9406133  42.1288157  25.7501364  24.3939400  42.6032734
  24.1193342  24.6952963  41.9282055  24.4105172  22.9249144  43.2061195
  24.4706249  23.4038115  44.1834307  23.4339166  22.5101900  42.9564095
  25.2470684  21.6385651  43.4762907  26.0549045  21.6092968  44.4257736
  25.2579808  20.6640148  42.5678587  25.7855344  19.8064220  42.6473665
  24.8051643  20.8355212  41.6814899  23.9640617  22.6459122  40.2219296
  24.0260768  21.4471841  40.1099968  22.8979349  23.3608556  40.1213312
  23.5947847  56.9474983  31.2056112  80.0669575  56.1988544  55.9293890
  46.9508219  60.5797768  31.3495755  66.3924026  58.0256319  43.7821007
  37.2138500  51.3088894  31.4857292  58.8773441  35.3184175  68.2499695
  19.6166587  66.3223982  51.5430784  50.4429483  53.7489748   7.5934899
  50.6903219  25.8081865  48.9384127  22.4213171  71.4174843  54.8688889
  72.7632952  43.0054474  32.5497675  69.4652557  18.0713201  48.7425613
  35.0438404  26.7704701  65.9579182  28.4357119  56.5149164  35.2035570
  10.8543683   8.9978759  21.0365708  10.9554435   9.8958604  21.3522275
  10.5123354   8.5163038  21.7897828  73.0235958  69.1103748   9.9663575
  73.3389855  69.2772797   9.0781577  72.0696831  69.1234855   9.8882134
  61.3466001  60.3997258  19.9007447  61.9529605  60.0790397  19.2331155
  61.9050408  60.6159440  20.6474813  20.8077837   2.9435460  49.3450673
  21.2288262   3.7855832  49.1720708  21.1903073   2.3476713  48.7009843
  71.7078257  71.3633422  32.0446618  71.5229988  71.2124375  32.9716428
  72.6411677  71.1720923  31.9522985  33.4635231  69.6506504   5.7426055
  33.7093202  68.7574796   5.5016454  33.5801101  69.6832517   6.6921218
  14.4080520  47.6643798  13.9659436  14.1924358  48.2039306  14.7266229
  13.9757419  46.8274037  14.1356881  67.4180455   8.8316266  38.3848508
  68.1487990   9.0044563  38.9784558  66.9167263   8.1401937  38.8170941
  45.6393671  27.2881770  67.4123096  45.8707714  28.1986427  67.2286415
  46.4792252  26.8516850  67.5549555  59.0116978  41.8246794  68.7288904
  59.0459776  41.6859055  67.7824259  58.0784988  41.8018579  68.9406633
  21.1151816  16.3353317  35.3210862  20.2226521  16.6811912  35.3199227
  21.6449476  17.0408361  35.6923612  57.3133159  54.9074594  10.5454763
  57.3984218  54.9882916   9.5955022  56.7863775  55.6636099  10.8039411
  59.8888016  32.6169324  56.1165333  59.3018103  32.6766872  56.8702555
  59.8384142  31.7002034  55.8457947  25.7937409  17.8977792  57.4661382
  25.6606604  18.3831470  58.2803472  25.1446844  18.2596128  56.8627770
  22.5318241  16.4786804  63.0591106  22.5734305  15.6098759  63.4587097
  21.8494415  16.9359183  63.5505581  19.4418550  72.5335625  55.3908761
  19.9470831  72.0042733  54.7737630  19.4854046  73.4216241  55.0363477
  17.8446032   2.1956985  20.0238927  17.1286179   2.8190772  20.1463540
  17.9262902   2.1083038  19.0741952  67.8955269  48.6193416  19.6295007
  68.1146646  49.5495192  19.6840890  67.8656006  48.4350196  18.6906941
   5.2576829  17.2030656  13.8283952   5.2196146  16.3376443  14.2356141
   5.7723476  17.0707195  13.0322583  62.8294993  48.7076346   7.3848804
  62.0015931  48.9180384   6.9529803  63.1134105  47.8911904   6.9737275
  50.0740457  70.0484780  28.6450513  49.6600628  69.6145562  29.3910821
  49.8758483  69.4828109  27.8987535  67.7429343  65.0436143  26.7153390
  68.6545849  65.0571088  27.0067819  67.6106310  64.1555146  26.3836701
   0.7849146  62.9649071  22.5315698   0.1026893  63.2763985  23.1263574
   0.3056837  62.5962452  21.7895062  11.3155152  13.4170072  34.0723260
  11.9404865  13.1995981  34.7639783  10.4571940  13.2946365  34.4779714
   5.4558636  54.9197856  37.1872647   5.2216602  54.0267876  36.9344171
   5.1604057  54.9971370  38.0944379  38.0693222   2.7024667  18.0014356
  38.4021879   2.6528804  18.8975270  38.3401848   1.8771427  17.5993093
  66.7790223  65.3654436  43.8128598  67.6150775  65.1796988  44.2403348
  66.5477229  64.5471624  43.3733686  39.4499065   7.1805259  11.0666338
  40.2201344   6.6460701  11.2598768  38.8011242   6.5566995  10.7408205
  66.5243721  23.0335093  67.3191595  66.5514135  22.8986645  68.2664251
  66.3815498  22.1591568  66.9567490   9.0897442  63.2369689  40.0285657
   8.6457945  63.8208631  39.4135793   9.6882225  63.8074044  40.5109151
   3.1220032  59.9760810  22.7063783   2.5786711  59.3752805  22.1964200
   2.6277567  60.1196126  23.5134347  32.6040341  13.6462896  13.4017785
  32.0279909  14.3460624  13.0939992  33.4414793  14.0800254  13.5654481
  11.4047504  61.2167648   8.5669406  11.9915605  60.4659609   8.6574061
  11.6868568  61.6452292   7.7588113  84.2194296   3.6679427   1.2140210
  84.3035746   4.2362039   0.4483636  83.9987279   2.8096835   0.8522065
  54.5300222  72.6255874   8.9375098  55.4131317  72.8568653   8.6496528
  54.4603706  72.9955939   9.8175557  77.6168585  58.1528488  49.9895127
  78.2826901  57.9154686  50.6349214  78.0992508  58.6233393  49.3096860
  66.0789992   7.9639642  11.2153562  67.0007063   8.2206933  11.2434514
  65.6150938   8.6910455  11.6305383  69.1223002  81.7498807  34.6364720
  69.2426968  81.1915091  35.4045518  68.4126735  81.3339881  34.1468843
  50.3111649  27.6193929  68.3964920  51.2286377  27.4117851  68.5736322
  50.3420067  28.4391665  67.9032898  82.4591732  54.9979655  11.6570027
  82.6219416  55.1482967  10.7257970  82.6704646  55.8327977  12.0749028
  34.2048813   0.2533166  16.9616921  33.6909033  -0.4203732  16.5164884
  33.6442162   1.0290448  16.9500764  28.8778305   5.6044668  67.2597980
  28.7770844   5.5378598  68.2093477  27.9824185   5.5852699  66.9220066
  50.5182291  22.0546501  17.2772821  51.1977316  22.6994865  17.0805772
  50.1286150  22.3596399  18.0966790  65.9218264  58.3412933  69.3198633
  66.4587593  57.5942183  69.0556335  66.4505386  58.7963438  69.9753189
  61.5177631  53.8540888  50.9712648  61.1638308  54.5562124  50.4253864
  60.7973003  53.6189795  51.5559769  48.1747318  12.6506584  22.8281339
  48.5733916  13.3353393  22.2910054  48.6495329  12.6906316  23.6583169
  13.7745691  20.5869834  29.4185288  13.4333254  19.9961202  30.0898488
  13.9821459  20.0153177  28.6793836   3.8810707  81.4362506  27.9326375
   3.1443287  81.5121726  28.5390027   3.5150791  81.6724614  27.0802911
   5.5789734  74.1390113  43.7525399   5.1987291  74.3718580  44.5995553
   6.2117458  74.8348454  43.5746511  83.9050341  67.1064452  26.6627248
  83.5841704  66.9453529  25.7754167  84.2092991  68.0138520  26.6463407
   0.9146810  67.9225091  20.6709512   1.0743357  67.9741672  19.7285779
   1.4252830  67.1659402  20.9592660  20.6993700  13.5237949  23.0755265
  20.0189186  13.8640086  23.6564477  21.4844490  13.4871499  23.6219056
  15.5091072  16.9438247  17.3024304  14.9421812  17.5586180  17.7681096
  15.2975536  17.0758466  16.3782819  35.0965954  14.8224990  42.7456029
  35.9195830  15.1370017  43.1197770  35.3463865  14.0588348  42.2253545
  74.8107624  62.3439196   8.9677413  74.5876885  62.5364927   9.8784478
  73.9999724  62.0038728   8.5893043  85.5984211  41.9325352  55.9463215
  86.1760998  42.5518131  56.3924313  84.8470879  42.4593782  55.6739855
  73.6623383  38.8244629  67.7195024  72.8389359  38.3921003  67.9459953
  73.5673285  39.7140074  68.0599642  13.7323118  79.5935801  24.0682824
  13.3157087  78.8875846  23.5740789  14.0875173  80.1777009  23.3983167
  16.0563541  76.6218475   1.3628514  16.2215782  77.5534204   1.5081246
  16.5085007  76.1831693   2.0835145   7.1857668  59.6710113  53.3657201
   6.7746712  60.3359464  53.9180692   8.0989433  59.9492065  53.2954057
  10.5997301  44.2428771  12.7188905  11.4507795  44.3565009  13.1420072
  10.6216884  43.3508507  12.3724206  32.8270222   3.3048789  36.2130960
  33.1877972   3.2885997  35.3266366  33.5725046   3.1037729  36.7788156
  16.6755463  20.1130454  27.5077565  17.2151829  19.6738403  26.8503984
  15.8443333  19.6386640  27.4911149  20.4793812  15.1380365   9.1199191
  20.2158524  15.9807556   8.7503131  20.2421309  14.4976346   8.4492238
  53.4563662  20.1373546  56.6693337  54.1349531  20.3555648  56.0304769
  53.3039213  20.9538047  57.1451505  55.1084900  41.7071152  66.7628431
  54.7802734  41.0207510  66.1819792  56.0342216  41.7916441  66.5345669
  77.6954890  69.5981625   1.2144740  78.4178830  69.5508436   1.8406900
  77.5847912  68.6981133   0.9080585   2.7182508  62.4864653   7.1515687
   2.1200109  62.5268320   6.4054330   2.4678732  63.2300857   7.6998122
   8.3699442  53.9538959  59.1544183   8.1400038  53.5333709  59.9829896
   8.9640499  54.6623424  59.4021638  64.9434805  -0.1104795  55.8719540
  65.2909041   0.6955565  55.4900646  65.2084375  -0.0736772  56.7910147
  36.6742493   5.8355682  21.7187055  37.5595547   6.0638397  22.0021756
  36.6531302   4.8789947  21.7462094   7.9455960   6.1290264  70.0456095
   7.8900796   5.2279294  70.3636885   8.7095165   6.4940238  70.4921913
  79.9347568  19.5902984  18.2756360  79.5290471  20.4379146  18.4577783
  80.4651047  19.7417800  17.4933274   3.1077076  64.2964844  10.7034238
   3.9675642  63.9644817  10.4452546   3.1860424  64.4588856  11.6434892
   6.0867238  61.3041639  68.4689856   5.5051160  60.5560637  68.6043024
   5.9356809  61.8655872  69.2293978  36.4428879   2.0194738  34.8243650
  35.5050636   2.1748893  34.7122510  36.5018536   1.4574640  35.5969556
  71.4502621   3.4509389  33.0951245  70.8942509   3.2074945  33.8352712
  71.9858933   4.1723840  33.4250386  86.0753918  39.6312802  17.9323609
  86.3554383  39.8812488  18.8128884  85.2519131  39.1622644  18.0670484
  37.7527357  21.9961994   6.4706166  37.8735281  21.1427419   6.8868526
  37.0467020  21.8570678   5.8394368  15.9224296  60.0037471   0.3618653
  16.0600735  59.2604116   0.9490092  16.0887791  60.7731417   0.9064706
  52.2546412   3.2997911  41.7584355  52.9007841   3.6745803  42.3569806
  52.5896574   2.4250238  41.5615018   7.7397228  76.9327239   6.2106116
   8.0461956  76.9174985   5.3039296   8.1257845  77.7266244   6.5806325
  14.7504545  62.6338390  10.4621156  15.0997711  63.2821683   9.8506673
  15.0210644  62.9480604  11.3248284   8.8745094  54.7650424  17.9907640
   8.0838085  54.5307533  17.5048287   9.0836693  53.9818732  18.4998162
  11.1650778  24.3752210  50.2683671  11.4483477  24.8643701  51.0408433
  11.2298847  23.4566133  50.5295022  85.1690722  52.7849583  30.5419858
  84.4293976  52.2838668  30.1984437  85.3295708  52.4114446  31.4085610
  82.8571272  64.9345592   2.6075824  82.1421147  64.5334915   3.1016858
  82.8701640  65.8453444   2.9017432  16.4861156   2.4530046   6.6638024
  16.4541389   1.5883605   6.2544091  15.9851982   2.3533647   7.4733623
  51.4827585  61.6183949  67.1754074  52.1337366  61.9987917  67.7651167
  51.9799614  61.0068083  66.6322803  74.4119120  36.0306404   3.0156835
  74.1811705  35.2212534   3.4716256  73.6026049  36.5417451   3.0105956
  30.6463599  20.5966234  44.9340487  30.9486008  21.3652992  45.4178047
  29.8623395  20.3113508  45.4032612  81.5781975  17.2269361  32.8769143
  81.4298392  17.2852390  31.9330724  81.5152598  16.2919347  33.0719502
  81.7903948  45.5636547   1.9818290  82.6190043  45.7644523   1.5467198
  81.7508078  44.6073279   1.9920095  80.9171391  30.5756712  59.0501547
  80.8485317  29.6367526  59.2232323  80.0732899  30.9325790  59.3272161
  56.0156298  40.7945701   6.7829497  56.0038352  41.0570965   7.7033694
  55.4296852  40.0387809   6.7419274  12.7949595  27.4786592  48.3892488
  12.6874328  27.1272969  47.5053835  13.7320113  27.6596999  48.4626675
  72.2819519  37.0348219  14.8764737  71.9650841  36.7653388  15.7385762
  71.8339396  36.4517868  14.2636235  73.3270741  13.8452796  34.0196069
  72.7337599  13.2962660  33.5069688  73.2123757  13.5449604  34.9212106
  77.2467709   8.4184615  23.8335832  77.3434306   7.4686067  23.9018663
  76.3219691   8.5791890  24.0210469  67.8566051  32.0973704  16.5948518
  67.1143580  32.2702817  17.1739896  67.6858187  32.6330338  15.8201726
   3.7331485  53.6283218  31.2337184   4.3921137  54.2616354  31.5181661
   3.7407207  52.9535424  31.9125748  -0.2713703  57.2664968   2.6895984
  -0.0192427  57.9205600   2.0377811   0.3845192  56.5749708   2.6011212
  81.8139839  12.8818333  69.5585203  81.7074776  13.1054711  70.4831171
  82.3961163  12.1220016  69.5614052  20.3185749  73.9612817  65.8280802
  19.5766782  74.0706866  66.4229298  20.2584934  73.0520486  65.5349636
  36.7755079  76.3489800  48.5623693  37.5700569  76.6417550  48.1160402
  36.5047741  77.1018093  49.0878963  25.1517928   9.4658235  24.4972928
  25.6000018  10.0420026  23.8781388  25.1874936   9.9355582  25.3305467
  61.0309649  31.5032569  12.5972207  60.5633450  30.6726209  12.6844342
  61.6508341  31.5068779  13.3265908  67.4284888  38.0199150   5.5207522
  67.2234941  37.1977726   5.0754531  68.2622409  38.2967437   5.1406797
  65.9866047  41.7036724  54.6910763  66.0493565  42.5599051  55.1143503
  65.5681849  41.8828487  53.8490248  36.3895392  25.1082015  69.4841385
  36.3208294  24.3122506  70.0113678  37.0284367  25.6487942  69.9486828
  42.3228002  69.0547208  30.9056027  42.6112223  68.5377816  30.1534017
  42.2824216  68.4264759  31.6266568  66.0268784  68.5941115  20.6309064
  65.5677032  68.1457749  19.9207051  66.2367439  69.4568768  20.2733739
  83.4507703  70.6813370  65.4740095  83.9826225  70.4708587  64.7065067
  82.7178406  71.1889481  65.1256227  36.3051271   2.4880455  56.9884396
  35.8392882   1.6693704  57.1587229  35.8787417   3.1290209  57.5572777
  86.6700148  78.1464159  66.8632555  86.5658020  77.3058077  67.3090649
  86.0351776  78.7231945  67.2881508   1.0636879  74.7247962  15.0106748
   1.9903255  74.9268011  14.8811753   0.5999781  75.4598597  14.6095689
  70.2063608  51.1590052  57.4866486  69.3710136  51.5943336  57.6566935
  70.7960796  51.8661451  57.2250652  55.6632138  70.6401638  11.4711793
  56.4256907  70.3197054  10.9893449  55.9201289  71.5109614  11.7743905
  37.8596425  33.3035088  64.5754671  37.0140719  33.7130356  64.7585773
  38.4507108  33.6700392  65.2331305  51.5484000  52.6548807  24.1535981
  52.2137475  53.3416561  24.1969998  51.8972111  51.9487575  24.6976216
  52.1243334  29.3252635  64.9157381  51.3296509  29.8257637  65.1006937
  52.0440722  29.0804338  63.9938688  26.5993525   6.9190900   1.5452369
  26.8661381   6.2492626   0.9156402  26.9522883   7.7351634   1.1907085
   2.8974653  70.3858928  23.7122281   2.5599695  70.7682852  22.9022248
   3.8229967  70.2212409  23.5318978  86.9036246  65.8434323   6.3211949
  87.0118189  65.9361724   7.2677262  85.9853173  66.0619978   6.1625369
  57.6072216  58.5262755   0.3542073  58.1237388  58.4690443  -0.4496352
  57.7360416  57.6799599   0.7824405  43.8903522  16.9946921  71.1080790
  43.8593674  17.6244736  70.3879070  44.4960642  16.3170719  70.8077908
  48.8830757  25.9963894  62.5141382  49.0870237  26.4395738  63.3376837
  48.1708813  25.3962326  62.7350998  63.3428383  77.0686535  23.0312665
  62.6064659  76.9861511  23.6372216  63.9584852  76.3902453  23.3087094
  62.7554655   1.2657411  58.1193972  63.5570574   1.7860296  58.1740236
  62.9581070   0.4625405  58.5990191  53.1174660  36.3238192  57.1044254
  53.2854271  36.3828731  58.0449247  53.9006519  35.9053159  56.7470741
   6.9681503   4.5864217   2.1468432   7.5456501   4.0710704   1.5836938
   6.2187506   4.7992675   1.5906699   1.4444424  36.5312306  21.0690911
   1.9379497  35.7985715  21.4377244   1.5334583  37.2301260  21.7170556
  42.9848480  20.3434229  49.0374899  42.7683926  20.2474618  49.9649477
  43.0860233  19.4457316  48.7210321  70.9653235  45.2075831  15.8652432
  70.8898735  44.3122844  15.5351193  70.0635529  45.5266274  15.9005673
   6.8908239  49.1450611   1.9261678   6.3622928  49.0554724   1.1331590
   7.2142483  50.0455252   1.8979867  73.5163927  50.2404437   3.5647042
  73.8636494  51.0397915   3.1688674  72.5936032  50.2286915   3.3106216
  54.6148420  55.8805255   3.5390075  54.3144393  56.7067019   3.9177163
  54.4950700  55.2386478   4.2389186  79.6919728  53.6417142  51.5058740
  79.8947859  53.3152083  52.3825105  78.9351082  54.2138485  51.6325410
  55.1168537  66.8208317   6.7270120  55.2368236  66.2685970   5.9544356
  55.5719281  66.3541726   7.4279912  83.4264875   0.1761644  10.4968389
  82.9809285   0.8881728  10.0377591  82.8006435  -0.1079114  11.1630567
  62.0441604  55.7509903  17.3759683  61.7733312  55.1262788  18.0487378
  61.9242454  55.2811722  16.5506681  17.0780112  13.5392492   7.1943028
  17.1083809  12.5851409   7.1236451  16.6467787  13.7037055   8.0328877
  72.1837855  42.7257002  22.7389653  72.4288750  43.1007268  21.8930848
  71.5561724  42.0361681  22.5224431  86.0302496  72.8641013  19.9399217
  86.1358500  73.5034779  20.6443914  85.9367800  73.3935431  19.1479714
  59.3645549  70.7168464   8.2605393  59.2427087  71.6653923   8.2199414
  60.2817655  70.5827550   8.0218442   9.3162943  59.1993240  40.3166993
   8.6914993  59.6695355  40.8687528   8.8822866  59.1337386  39.4660790
  13.1867624  77.2495011   3.6106332  12.9931188  77.2811869   4.5475085
  14.0800596  77.5858811   3.5391887  41.8570829  64.7292641  22.2187551
  42.7466131  64.4102315  22.3710092  41.8469263  64.9785498  21.2946446
  20.3379370   6.2906186  16.1957105  19.5090271   6.7620103  16.1124642
  20.0828577   5.3735940  16.2968858   5.6698824  54.4333164  13.3769734
   4.9829889  55.0996534  13.3971532   5.3057648  53.6989395  13.8712819
  67.8458524  61.3664464  28.9961942  67.6730657  61.9500402  28.2574208
  67.6488757  60.4915730  28.6614926  67.5356818  59.0138785  32.6190885
  66.7240358  58.6471502  32.2684033  67.3195768  59.2562989  33.5195096
  82.1337033  57.0003811  37.7114804  81.2814427  57.1632210  37.3072942
  82.7665234  57.3564688  37.0877965  13.6207939  12.3330943  38.7286504
  14.3775631  11.9179647  38.3148797  13.9568545  12.6702897  39.5590718
   8.6871196  10.4821937  13.0126508   9.0654041  10.7803266  13.8398393
   9.4191838  10.4950301  12.3960908  20.4825331  74.7486500  42.0826943
  21.2277485  74.3988661  42.5711091  20.7305027  74.6489767  41.1635621
  81.2156677  22.3793602  53.7149620  80.6421757  22.1674800  52.9784536
  80.8916473  21.8375039  54.4344282  54.3517399  33.2561326  68.6575985
  53.7972164  32.9050446  67.9608393  54.6649981  32.4829388  69.1269302
  43.1619835  33.3602929  54.5591831  43.9227295  33.5137677  55.1194954
  42.4228239  33.3159566  55.1657391  82.9702664  31.8792782   7.1594413
  82.2779513  31.2470100   7.3522218  83.2107735  31.7013077   6.2502034
   4.9119116  45.6219120  38.6338742   5.2506519  46.4676151  38.3401521
   5.3805996  44.9784774  38.1023152  80.6887913   2.9181305  57.5711250
  80.9436703   3.2165727  58.4441662  79.8628855   2.4541178  57.7082634
  44.8112774  17.1857905  60.4348135  45.4180861  17.9228818  60.3661680
  45.0444126  16.6146660  59.7029018  74.7275782  55.8632282   0.5901225
  74.1473627  55.1812867   0.2516921  75.5436516  55.4052190   0.7913335
  37.6109695  67.3855375  66.4141655  37.4045753  68.3069276  66.5712404
  38.5637378  67.3368346  66.4922190  75.0808192  77.7670244  10.4105886
  75.6231261  77.2285084  10.9869035  75.5722142  77.8097109   9.5902665
  79.9790383   8.2979791  45.5478604  80.6745935   8.5816114  46.1411508
  80.3538943   7.5529401  45.0781472  32.1519971  21.7352295  59.8545885
  31.3527322  21.4966416  60.3241444  32.6047778  20.9036088  59.7144890
  86.2098598  39.2962956  67.1209621  86.4063644  40.1275873  66.6890287
  85.2536964  39.2542458  67.1358204   6.9465339  15.6790102  65.3435707
   7.4511892  15.7996845  66.1479282   7.3131597  14.8886776  64.9470949
  24.9450922  11.5081155  68.5112762  24.3971300  11.7778146  69.2483187
  25.5412745  12.2443032  68.3740759   4.8728586  72.2194628  19.9945195
   4.1783596  72.8687743  19.8836072   5.6205679  72.7215008  20.3187402
  28.0379677  19.0240419  65.6726217  27.3908281  19.6202755  66.0493803
  27.6587224  18.7569952  64.8353100  69.3101168  65.5316905  45.2780278
  69.6639204  66.3513378  44.9327214  69.8064041  65.3763107  46.0816415
  66.2463713  47.5759730  10.2637322  65.4728675  48.1264434  10.1416524
  66.9379568  48.0230788   9.7758420  58.0124938  66.9564306  65.2212572
  57.5434809  67.2250210  66.0112667  58.4821863  67.7425550  64.9426365
  56.2748266  16.4556626   3.6692985  55.3830099  16.1698655   3.4712632
  56.7854596  15.6464580   3.6952432   8.1337190  80.8739165  30.1688417
   7.7051092  81.5511969  30.6921228   7.4124742  80.3649715  29.7986920
  27.0475674  13.5057807  68.2695532  27.9553151  13.3851492  68.5482597
  26.9844770  14.4365644  68.0553246  44.8238182  16.0956728  51.5292978
  43.9516163  15.9936178  51.9101954  45.2339554  15.2374768  51.6366196
  63.2937193  32.7598786  66.3537407  62.3877954  33.0142808  66.1782122
  63.3988333  32.8838563  67.2970390  34.3472315   6.9088476  57.1800931
  34.3036629   6.0717170  56.7179807  33.9602209   7.5385825  56.5719064
  83.2650900  63.3842853  17.4074872  83.7094689  62.5706080  17.6455815
  82.5735760  63.1118826  16.8042977   4.7301507   8.1573015  48.8267565
   4.1375566   8.2238859  48.0780029   5.2740598   8.9430702  48.7723494
  31.0974502  79.6959127  50.8923817  31.1835718  78.7856351  50.6091690
  31.8113374  80.1534851  50.4482841  61.5221691  78.5146525  53.3856916
  61.9262504  77.7337342  53.7639904  61.8811416  78.5648166  52.4997711
   3.1330419  25.9764671  67.8929234   3.1192995  26.8865991  68.1890678
   2.5432802  25.9609318  67.1391487  44.9250841  40.6886816  68.0318260
  44.3805933  40.3534079  68.7441158  44.3258238  41.2092209  67.4968910
  42.9241562  29.8860860  56.7597914  43.6912155  30.4438138  56.8893766
  43.2691669  29.0980577  56.3400126   8.3485342  44.5351896  30.3236421
   9.2876745  44.6964041  30.2327760   8.2362343  43.6208091  30.0637754
  59.6585941   9.4551700  63.7845278  59.9155712   8.8901985  64.5132303
  60.0676155   9.0563738  63.0164814   2.9324032  76.4020661  45.6645997
   2.3148561  76.2974004  46.3884194   2.7211738  77.2578291  45.2913983
  47.4895096   8.2494265  48.2740164  47.8395653   7.3939723  48.0252314
  47.9888535   8.4952837  49.0527582  40.0348974  20.1129548  15.7815488
  39.3124033  20.2635066  15.1719792  39.9531962  19.1913383  16.0268624
  76.4042855  56.0127500  26.3992055  75.6874991  56.3923827  25.8909448
  77.1637392  56.0660104  25.8190091  38.5508275  19.7713363  68.7669659
  38.6971998  18.8563001  69.0067911  37.6924896  19.9810588  69.1350746
  27.5865554  67.5532686  52.4933720  28.3280277  67.7880131  51.9353914
  27.0368194  68.3368002  52.5033665  64.8882294  60.5941514  13.8422998
  64.4413877  59.7516183  13.9241632  65.6178904  60.5392388  14.4593938
  70.8269358  51.1258411  53.6967039  70.0366163  50.6005049  53.5715914
  71.5418339  50.4894257  53.6854362   7.5355221  77.9596070  11.8609746
   7.8106142  78.7773875  11.4464887   8.3058143  77.6670340  12.3480924
  50.9478712  29.2608452  56.9102716  50.4852390  29.8747134  57.4806833
  51.6316938  28.8865852  57.4657393  63.3719302  78.2461814   6.6546138
  63.9347673  78.7337378   6.0531695  63.8780618  77.4643973   6.8756898
   0.8883882  38.9536854  54.2375024   1.2378336  39.7961876  53.9471467
   0.0467802  39.1691450  54.6393807  28.4793306  51.4790562   1.0782702
  28.3501745  50.5399177   0.9457334  27.6354242  51.7934707   1.4025958
  47.8326750  16.3311899  42.1039772  47.7143478  15.7007015  41.3935423
  47.1291542  16.1311030  42.7214336  61.0560226  11.6219521  61.8188429
  60.8180189  10.9177268  61.2158060  60.8457375  12.4256837  61.3434172
  85.6004715  76.3957719  26.8965276  84.9859190  77.1149472  27.0426114
  86.4515639  76.8234757  26.8019708  63.2210112  38.7683916  68.3796692
  63.5918283  38.9186811  69.2492294  62.2867775  38.6326885  68.5378695
  67.0410419  78.2392219   6.4746268  66.4740062  78.4453396   5.7315143
  66.5354801  78.5051826   7.2426827  71.4297056  21.8639493  35.9444141
  71.7390347  21.0094857  35.6436849  70.8948040  21.6678953  36.7136168
  72.3822880  62.7354268   5.6834682  72.0025158  62.2185353   6.3939794
  72.7802849  62.0874480   5.1021321  26.2842727   6.7870629  61.0874176
  26.9401407   6.1582440  60.7863283  25.4525089   6.4368433  60.7684422
  52.4163151  33.5759912   9.6010430  53.1006146  33.5830174   8.9317735
  52.1316004  34.4878278   9.6620591  38.6336446  21.9891143  63.7119150
  38.2783890  21.7466545  64.5670366  38.3477497  22.8932500  63.5813951
  71.8549633  23.2029176  70.7337141  71.1374855  23.5333204  70.1930761
  72.5868702  23.1024623  70.1250648  38.7098956  29.0904784  61.0004520
  39.0631819  28.3120775  61.4311647  37.9614758  29.3441916  61.5405750
  12.3793865  42.3010983   5.3595431  12.6328159  41.3810123   5.2857478
  11.4602161  42.2757631   5.6254800  72.7012539  58.8252250  17.0268949
  72.1790123  58.4713451  17.7467950  72.1862126  59.5613757  16.6966661
  83.7792683  25.3587103  60.0000668  83.5892105  25.7410932  60.8567429
  83.4710026  24.4550133  60.0674295  28.2262325   5.4485989  69.8562574
  28.4199023   4.5302188  70.0441456  27.3864985   5.4272574  69.3973207
  56.9159412  13.0940533  63.6606312  56.6399145  13.2243836  64.5678520
  57.8189087  12.7835071  63.7272692  39.8654581  52.8585616  12.3979505
  39.0514685  53.2571439  12.0900662  40.4552294  52.9066137  11.6455586
  73.3585262  11.7041147  57.4757290  72.7664995  11.5569758  58.2133532
  74.2332077  11.6908717  57.8643084  21.0294081   1.6439359  18.4040101
  20.5642534   0.8090513  18.4572347  21.4875962   1.6097228  17.5642903
  79.4132233  44.7991327  11.1108907  78.6976719  44.2950935  11.4983972
  79.0681935  45.6891520  11.0398133  57.5635124  69.3580655  42.2965272
  57.7063632  68.9687041  41.4338430  57.3127747  68.6210207  42.8534158
  74.2213107  64.5120434  28.5404618  74.2426443  63.6021475  28.8368924
  73.7482167  64.4820074  27.7088960  33.1536747  25.4850976  20.2745374
  34.0496231  25.1765315  20.1392587  32.6384760  24.6854417  20.3810914
   9.9679829  16.5533750  14.2186196  10.5109669  16.5413349  15.0068124
   9.6836950  17.4637763  14.1375001  84.8229981  61.1594609  30.0671323
  85.5976963  61.5409116  30.4801305  84.0861559  61.6191701  30.4695828
  13.4678436  67.9036883  15.9334691  13.1058241  67.7298907  16.8023522
  13.4766985  67.0491103  15.5023606  19.9431181  20.9736633  57.7950239
  19.9314737  20.0315118  57.6263571  19.7864258  21.3721919  56.9389582
  79.0978194  48.1676987  24.1478665  78.5386563  47.7476320  23.4943326
  79.9861431  48.0595670  23.8081296  25.4498984   0.7142036   7.6470979
  24.6309258   1.0241334   8.0336984  25.1753594   0.1654737   6.9124158
  22.6111199   8.9260690  27.5158818  21.7565895   9.0298383  27.0972665
  22.9901720   9.8049800  27.5076516  71.1758423  59.6479511  63.5265732
  70.6838989  59.5895720  64.3456078  72.0789766  59.8077679  63.8005066
  67.9343701  43.9163456  41.1338170  68.2055307  44.7632158  41.4880975
  68.6845065  43.3416504  41.2863095  37.0375753  23.9626554  15.1475938
  36.8657137  24.7971073  15.5839284  37.9132772  23.7136940  15.4432042
  79.0167046  48.4334264  49.0450318  78.9512444  49.3508855  49.3100198
  79.8360253  48.3842323  48.5525640  17.2299314  71.4542106  56.5575059
  17.2574306  70.5452613  56.2587007  17.7968670  71.9245271  55.9462579
  40.8923817  58.5537640  18.0536397  41.8167127  58.8001267  18.0197461
  40.8955539  57.6000539  17.9720433  19.8398472  69.6166972  13.6071427
  19.7856975  69.9394897  12.7076371  19.3852020  68.7745980  13.5871919
  83.5993624  50.2774642  27.5684484  83.3955241  49.4031540  27.9005082
  84.5489693  50.2726386  27.4482377  68.1317282   5.1568846  11.2249501
  67.7788759   6.0224680  11.0188134  67.3587346   4.6034006  11.3361676
  80.6012011  39.7949798  11.2155374  80.6892395  40.4462204  10.5195745
  81.4684391  39.3950865  11.2804635   6.2865449  13.3131950  17.1867784
   5.5264784  12.8314512  17.5130494   5.9460260  13.8334768  16.4590486
  21.4809681  61.9991807  16.5354379  21.6739632  62.1115378  17.4662145
  22.2212625  62.4072651  16.0863622  21.9141651  -0.0303729  30.8604081
  22.6685406   0.5524080  30.9470876  21.3993765   0.3485601  30.1479276
  44.1516710   1.4293306   5.7694324  43.5014702   1.9703834   5.3214009
  43.6390568   0.8827464   6.3650020  26.1887146   1.5895812  15.1540502
  26.0131146   2.4558608  14.7866853  26.0436560   1.6942899  16.0943826
  61.3214016  79.9816634  24.7247219  60.9362793  79.2225852  24.2868686
  60.6511879  80.2649825  25.3466415  37.6261210  64.5950031  70.2822113
  37.2000527  64.8388577  71.1039352  37.0927668  63.8778496  69.9394894
  37.4118544   5.0687139   7.8282579  36.9476486   5.8850972   8.0133565
  38.1041409   5.3201454   7.2169002  61.8162227  43.4322036   4.0025981
  62.7455259  43.2481313   4.1395028  61.5015865  43.7252972   4.8577769
  20.0534082  22.8943602  11.6958077  19.3890072  22.2472314  11.4591058
  20.3084064  22.6604048  12.5882562  65.5515909  48.3286810  66.0471964
  65.5378342  47.3878860  66.2231112  66.4493179  48.5960865  66.2442112
  64.2666937  66.4491848  22.9416307  64.0192819  67.3668031  22.8276189
  65.0655485  66.4801363  23.4680303  18.5011698  72.8152469   6.4481957
  18.3741213  72.6925520   7.3889573  18.9108110  72.0017866   6.1537297
  66.6054678  13.1895459  50.0262499  67.4645233  13.1128287  49.6110678
  66.3130569  12.2852933  50.1405001  43.4276593  79.6337608  10.9743341
  44.2875111  80.0342206  11.1028607  43.5598004  78.7096361  11.1859067
  36.4180970  15.9459388  58.8202000  35.9342599  16.5726018  58.2822180
  37.0765948  16.4750147  59.2704153  49.3469429  15.9163344  64.3930960
  49.3310499  16.0718369  63.4487438  48.7321854  15.1950490  64.5274448
  66.6577864  72.6517490  16.9790967  66.8719364  72.6159266  16.0468514
  67.4161268  73.0736617  17.3830064   4.3548894  66.0292124  44.1315413
   5.0708913  65.4039203  44.2437029   4.5186543  66.4302730  43.2779837
   2.2302223  41.9557514  21.1548646   2.1946216  41.2628660  20.4954179
   2.3841215  42.7562527  20.6531270  66.3079095  73.9980558  21.1621411
  65.3622294  73.9328412  21.0292180  66.6171432  74.5275477  20.4271348
  86.6832686  68.4427146  31.4267476  86.1530161  68.5568503  32.2154458
  86.1998129  68.9075116  30.7437642  79.2556858  16.5409505  45.5300903
  79.2558479  16.4942575  46.4861488  78.3595610  16.7887807  45.3025484
  14.5001484  62.3465828  16.5841611  15.2080656  61.7873339  16.9040425
  14.2243839  62.8467921  17.3522599  65.9934807  24.7031188  52.7050686
  66.5855789  25.1810384  53.2857943  66.1574841  23.7808752  52.9020500
  25.1599241  22.9380100  16.1238893  25.8626009  22.9054277  15.4747232
  24.9074150  22.0233219  16.2496408  34.4792699  78.1075244  68.8875771
  34.7111129  77.5683247  68.1314373  33.7869310  77.6157265  69.3291950
   7.0920444  64.6707395  18.1609853   6.6934467  65.4320172  18.5826619
   6.3565088  64.0865830  17.9766400   2.5223947  19.9427775   5.9451850
   2.9258037  20.7419089   6.2841256   3.2393289  19.3096331   5.9082635
  80.4679680  53.3624697  54.1102791  80.0141239  52.7280951  54.6650982
  80.3880405  54.1923428  54.5805502  59.3115473   2.5905752  63.5652971
  59.0501976   1.8367383  63.0364704  59.4777346   2.2269681  64.4350100
  25.4194809  16.4376848  26.5591462  25.0439335  17.2598617  26.2441476
  25.6570841  15.9623496  25.7630094  43.4936882  28.3664958  16.1076005
  43.0802990  27.6070802  16.5182431  44.1551377  27.9932897  15.5249913
  36.9001960  73.0723094  60.0633049  37.0123624  72.7190130  59.1807938
  37.2108650  73.9755439  60.0009823  45.6791044   2.6756017   2.0714171
  45.5769516   1.8855159   2.6020415  46.6259505   2.8011386   2.0085652
  67.9010153  38.4817100  64.5433664  68.4959841  38.6564279  65.2725601
  67.6262379  39.3488526  64.2453909  19.5796324   7.6154153   8.5477479
  18.7274672   7.2830646   8.8298734  19.5383145   7.5995128   7.5915750
  40.6085039  32.8774313  33.7667878  40.8419443  33.8021771  33.8479360
  40.0615335  32.8364257  32.9823335  53.5671831   5.2530782  24.4168408
  53.8337923   5.9954278  24.9591191  52.6171423   5.2070110  24.5242150
  26.2106539  28.0506103  22.3268064  27.0076777  28.4965293  22.6134141
  26.3952471  27.1208827  22.4600823  55.3686166  79.9191216   3.3294519
  56.2639451  79.7674302   3.6321147  55.1415801  80.7820014   3.6760409
  37.8569544  75.8885864  13.2649930  38.4385908  75.1305846  13.2069715
  37.1352321  75.5946902  13.8208421   6.6805078  29.8229139   8.3837636
   6.0043670  30.4747598   8.1989320   7.0288826  30.0750511   9.2389234
  66.9212961  56.0320473  68.1628847  67.7444077  55.5862474  67.9629278
  66.4088726  55.3836012  68.6457634  17.8754354  71.0953093  65.8974695
  17.4253488  70.2537823  65.9715128  17.3536897  71.5912819  65.2665758
   3.9284254   9.0275741  55.3374243   4.3539548   9.5345438  54.6459484
   4.5099664   9.1170180  56.0924339  78.7925863  20.1230407  56.0139799
  79.5787382  20.1016164  56.5596342  78.3340597  19.3090940  56.2224865
  15.4295231  81.7498664  17.4444039  16.2958027  82.1243409  17.2845300
  15.5422426  80.8116773  17.2916539  38.8907458  29.1541784   3.3309157
  38.4523321  29.4224708   4.1384061  38.2490040  29.3254487   2.6416667
  24.8175264  63.3925489  29.1179212  24.3996931  64.2473773  29.2223676
  25.5965639  63.4374122  29.6722920   2.6360918  76.7007212  23.1719239
   3.0290867  75.8362774  23.2924302   1.7438961  76.5191439  22.8765519
  79.9591351  50.7458019  67.8374386  80.1609325  51.6237879  68.1609392
  79.4581175  50.3393030  68.5445261  78.4773254  26.6265035  66.4335871
  77.8148413  27.2644877  66.1684084  78.4283972  25.9398842  65.7684612
  11.2579704   2.6641290  34.4468244  12.1780564   2.8902070  34.5830758
  11.2655617   1.7224138  34.2755063  77.9899549  19.9937487  53.3901644
  77.1954918  19.4628572  53.3334875  78.2566977  19.9285305  54.3071318
  27.3870970  73.7713507   4.7492202  27.1172453  74.6689299   4.9435504
  28.3074118  73.8471679   4.4972356  56.6209437   8.0553453  20.0852140
  57.3697973   7.8667228  20.6507810  55.8791472   8.1269185  20.6859143
  56.0604620  26.1699343  57.7406979  55.3953695  26.5812731  58.2926846
  56.1888218  26.7869353  57.0202398  32.0971419   6.5974538  24.4076665
  31.3553215   7.2008531  24.3646939  32.2247769   6.3100307  23.5036023
  79.9975824  46.4954710  59.5147085  79.4450951  47.2062969  59.8398495
  80.8725357  46.7029238  59.8428106  25.7149006   0.3205793  35.9817346
  25.3306366  -0.0551636  36.7738088  24.9732805   0.7064502  35.5155500
  55.4464365  16.5496843   9.7868569  56.1191012  17.2122924   9.9439939
  54.6351553  16.9544999  10.0937589  13.3466602  73.4679178   1.0023053
  12.6461054  72.9432658   0.6147559  12.8904701  74.1389898   1.5100272
  56.3508678  63.3015374  40.8328183  57.2065091  63.5035709  40.4542764
  55.7628179  63.9582208  40.4597314  43.7165451  19.4966590  55.2682018
  43.9024973  20.4333067  55.2022600  43.0168104  19.4365942  55.9185791
  13.4467865  45.0875077  13.1167443  14.0083576  45.2236513  12.3536332
  13.4946466  44.1463361  13.2844861  17.5883747  71.2246636  24.9279340
  17.4935366  72.1728472  25.0184091  16.7285086  70.9250263  24.6328385
  86.4351178  67.8107289  34.6324666  85.5239773  67.6207022  34.8559411
  86.9249106  67.6051740  35.4287561  68.7774659   2.5454013   9.9962552
  68.2017136   1.9998519   9.4604238  68.3298720   2.6093547  10.8399423
  79.3807983  34.4109631  51.5694141  79.6510220  33.6923957  50.9976816
  79.0551043  33.9791679  52.3591661  65.5222273   9.2941153  57.4831104
  65.2986670   9.3738997  58.4104156  65.1620245  10.0845671  57.0810270
   2.3791815  80.5499152  18.1259854   2.5251222  80.4104284  17.1903165
   1.7166925  79.9014381  18.3643563  65.5752039  53.4895182  68.9555550
  65.6478977  52.8735209  68.2265139  64.6834946  53.3697844  69.2822742
  55.8642794  10.3523891   8.0951865  55.5787207  10.2186124   7.1914228
  55.2077414  10.9399431   8.4693273  25.9080721  21.1276214  35.1782926
  25.5314757  21.2077825  36.0546334  26.1659933  22.0196502  34.9459203
   8.2124115  53.0768565   6.7227347   7.5137211  52.5357596   6.3549312
   8.5315920  53.5920302   5.9818252  44.1780354  11.5506999  13.7296899
  44.6236778  12.1494405  14.3289788  44.6863342  10.7410543  13.7780603
  70.8623505  25.8698344  53.9121056  71.4394474  25.5530834  53.2172203
  71.4563847  26.1380076  54.6131325  46.1097622  18.4496605  52.6668310
  46.0770273  17.9577541  53.4873104  45.6935787  17.8737116  52.0254993
  86.4410925  50.8630071  19.6246083  87.0372391  51.6041163  19.5169099
  85.6553698  51.1152057  19.1395696  49.3698931  11.0313416  57.0904303
  49.1207504  10.2508092  57.5853300  48.5606432  11.3127697  56.6636419
   2.0897413  44.8461962  62.1092844   2.7619291  45.5213261  62.2020006
   1.2706495  45.2926922  62.3236799  57.1978855  76.7178302  38.5791731
  57.5039386  76.5674191  37.6847768  57.9465675  76.4893799  39.1301060
  35.0451876  14.5922582  14.6700700  35.1724650  14.7967069  13.7436612
  34.9987866  15.4463832  15.0996621  39.7743773   9.9568057  68.9941835
  40.0625563   9.4266665  68.2511282  38.9032888  10.2653754  68.7447405
  46.7469835  17.5695848  45.2270842  47.6245594  17.9386914  45.1278210
  46.3654613  17.6198554  44.3506432  43.7364365  15.3873031  45.0157865
  42.9115893  15.3355615  44.5329030  43.4801747  15.6483571  45.9003289
  46.1899830  25.7105129  32.2479280  46.4747692  25.8966653  33.1426271
  46.7738606  25.0125234  31.9510682  67.0957422  24.5484138  50.2542019
  67.6299429  25.2914906  49.9736691  66.7305470  24.8203015  51.0961866
  85.3854800  43.2562862  32.9594739  85.1830531  44.0473375  33.4589704
  86.3241673  43.3183042  32.7826913  68.1193399  35.6992221  65.9913683
  67.7149296  36.4813328  65.6158829  68.8006306  35.4572082  65.3640699
   0.2851129  80.1912526   9.3552812  -0.3509401  80.2075771  10.0704034
   0.4834343  79.2629365   9.2322858  84.9623824  77.6956967   5.0712092
  85.0054646  78.5554866   4.6527131  84.6870947  77.1025876   4.3721564
  33.7496210  68.8586644  27.6677640  32.8185678  68.6832002  27.5314649
  34.0272165  68.1987504  28.3031304  37.7972342  36.6872184  17.5476773
  38.2015825  36.3396947  18.3426412  37.6004673  37.5999706  17.7583821
   8.2482887  77.7165512  28.5519441   7.5666405  78.2326392  28.9823373
   8.1335283  76.8317107  28.8985284  74.1458130  68.2192592  26.3618405
  74.3485546  67.8551892  27.2235711  73.7901974  69.0885071  26.5467103
  73.4617663  81.0080794  17.5823148  73.8233900  80.3965787  16.9408067
  73.4424162  80.5126194  18.4010728  14.8371458  79.5860199  64.5431137
  15.6948948  79.7313157  64.1438723  14.2928218  79.2565422  63.8279963
  73.8352442  62.1180010  61.6747618  74.3809938  62.4727631  60.9729481
  73.4287548  61.3403845  61.2922525   5.6137873  69.6546964   4.9786408
   5.5295683  70.3668526   4.3446286   6.5056730  69.3293933   4.8563750
  51.7836882  21.0082357   1.6837724  52.3925425  20.7973068   2.3916133
  51.6532255  20.1784293   1.2248262  65.3705120  57.0408392  66.3075066
  66.0037231  56.6432667  66.9051790  64.6697998  56.3927603  66.2351942
  60.1839686  47.0639453   9.2342504  60.7334280  47.6389108   8.7015803
  60.5980826  46.2038705   9.1634496  12.5376392  81.8499926  29.4277413
  12.7796865  81.3025025  30.1746686  11.7620684  81.4254884  29.0609677
  20.3725792   3.9296787  59.5387586  21.0330464   4.0959804  60.2113374
  20.5270411   3.0240218  59.2701371  79.1912127  10.4713798  48.4724522
  78.5939455  10.2719343  49.1933727  78.6528254  10.3882360  47.6853991
  11.5943170  50.3079557  65.6594372  10.6428266  50.3972101  65.7135010
  11.7535711  49.3705082  65.7692575  35.3556086   3.6260240   9.3014367
  35.5862261   2.6987188   9.3576558  36.0576988   4.0163057   8.7808784
  75.8008099  80.0582794  40.7300981  75.5042029  80.0605658  39.8200162
  76.6893530  80.4123596  40.6933148  35.9900309   4.5192306   5.5060943
  36.5336443   3.8129155   5.1570447  36.4648081   4.8278539   6.2778266
  78.1698036  34.8882222  55.7676172  77.8592300  35.6856060  55.3387165
  77.8281307  34.9475169  56.6597891  15.3833986  61.7815904  24.4422086
  14.5945621  62.2644857  24.1956742  16.0895611  62.4237970  24.3705400
   6.3759447  27.1819656  19.5379193   6.7428876  27.2625224  18.6575254
   7.1208645  27.3246019  20.1218637  49.8980570  21.1768007  51.6089773
  50.4198265  21.2389922  52.4090528  50.4025936  21.6614985  50.9557199
  17.2351004   4.3363111  25.3179391  18.0394102   3.9733856  24.9469884
  16.8224074   3.5970228  25.7644399  22.3719574   8.9911764  38.2688554
  22.9450251   8.4336917  37.7425225  22.2333742   9.7694890  37.7291806
   3.8784433  68.9061785  61.0215521   3.7726236  69.8575115  61.0203934
   3.3558393  68.6079645  61.7659855  83.3484555  62.1387009  24.5596345
  83.0146790  62.1490339  25.4566987  83.5608864  63.0530933  24.3725808
  74.1076040  13.0346489  64.6216440  74.8385382  12.4988568  64.3135977
  73.4888029  13.0382276  63.8913631  84.7155285  25.2168417  55.1473141
  84.4474220  26.0846615  54.8452473  84.5266151  24.6373892  54.4092226
  21.2436653  79.7133116  13.6434110  21.4226032  80.0189141  12.7541287
  21.5095878  78.7938050  13.6387380  66.5175368  12.6013248  12.5737985
  67.0372130  12.4261062  13.3583100  67.1317507  12.4855535  11.8488343
  34.8547006  60.4521076  20.9192975  34.0176130  60.9133676  20.8667691
  34.8116518  59.7975723  20.2221807  69.2850685  64.4357967  55.4394197
  68.5838556  64.0272379  55.9469795  68.8536215  64.7506237  54.6450853
  18.8766028  10.6819837   1.1668761  19.2226196  11.3139026   1.7971023
  18.5945345  11.2149875   0.4235251   2.8426815   7.8220976  42.2126007
   3.6935402   7.4181021  42.3830748   2.2461201   7.0830286  42.0938063
  43.3769728  65.8989624   4.1831668  44.2730738  65.6400851   4.3981488
  43.2378603  66.7096189   4.6727737   8.9442945  30.6971852  27.7751859
   8.1271530  30.2183882  27.6363881   8.7189365  31.3763229  28.4109624
  55.7475686  52.7590791  19.0374883  55.9993434  51.8430261  19.1544850
  56.5008021  53.1611136  18.6047872  79.8710562  29.1207664  10.0128778
  78.9184309  29.0484445   9.9537976  80.1996733  28.3890931   9.4904836
  42.0593096  45.4650644   9.3252500  42.1637083  44.7530118   8.6941274
  42.4443937  46.2270740   8.8924821  57.5772286  78.4000067   8.9853890
  57.2122622  78.8565520   9.7434171  58.3072877  78.9507750   8.7027295
  51.2415720   4.5392864  33.3899243  51.8879057   4.1481225  32.8021462
  51.3271357   4.0433137  34.2041238  81.2511635  52.9212371   3.0293973
  81.8319273  53.4439401   3.5823234  81.1666966  53.4296910   2.2228177
  67.7535677  36.0608482  53.1109953  67.3282290  35.7665205  53.9164066
  67.2309780  35.6734824  52.4088049  33.6154819  16.8157172  60.0565529
  34.4780421  16.4273834  60.2028990  33.0940056  16.5305471  60.8068705
   8.9687658  71.5038899  11.0647996   8.6694074  72.4127320  11.0398706
   9.9186111  71.5672449  11.1648877  47.3016859  11.4831416  20.0817140
  47.3490931  11.6550367  21.0221513  48.0338122  11.9758622  19.7109635
  44.6852423   4.2661731   6.2129434  44.9389578   3.4562175   6.6554769
  43.7761332   4.1212051   5.9507640   9.7623087  69.0616850  12.3631509
  10.6876875  68.8877825  12.1909078   9.4922758  69.6453194  11.6541513
  51.9598604  78.9330105   0.4620011  52.6629949  78.6648706  -0.1295535
  52.1985651  78.5508493   1.3065179   3.5889913  13.6480300   3.1952174
   4.4386650  13.8088004   3.6056359   2.9549552  14.0400474   3.7956746
  82.2561741  71.3273124  36.6600259  82.8115178  71.7449883  36.0017140
  81.8265009  70.6115750  36.1917050  74.1413546  19.0842402  61.3649940
  74.9226427  19.3153441  60.8625937  73.8892651  19.8970532  61.8031931
   4.2704035  67.7374104  14.4211705   4.5927025  67.3919443  15.2536424
   3.4385372  68.1564359  14.6417268  79.1508389  46.6199875  35.2050161
  79.0610981  46.7169809  36.1530519  78.3099985  46.2620640  34.9202132
  29.1225983   1.5943448  13.1648667  28.7696291   0.7096689  13.2597192
  28.8916136   2.0334165  13.9834626  29.4398142  81.2854794  47.3518308
  30.0065924  81.5128878  46.6147550  29.1388441  80.3978304  47.1575769
  42.3458744  11.1024587  18.2339223  42.8676010  11.5445869  18.9036687
  42.6631237  11.4635007  17.4061425  50.0885296  22.6191902  65.8414316
  50.4277754  22.7067733  64.9506617  50.7257843  22.0606446  66.2865877
  79.9992419  71.7883924   4.5565208  80.0605440  72.1093611   5.4562171
  80.8893919  71.8661932   4.2132886  30.7039572  52.9484168   4.1651567
  30.5377889  53.0264179   3.2257207  31.6083456  52.6403705   4.2236503
   5.8094073  19.4103639  11.0460504   6.1270214  19.7028844  11.9003232
   5.2077438  20.0998561  10.7652791   0.3714252  37.3158271  16.7975553
   0.0233103  38.0879346  17.2435411  -0.0992607  37.2878460  15.9645494
  40.4459501  10.2855222   1.8886836  40.4017998  11.0798375   1.3563808
  41.0958792   9.7378986   1.4483007  56.1873270   8.3023279   2.3286326
  55.6606699   9.0949647   2.2257407  55.6432749   7.6042621   1.9640191
  22.3740984  71.0195283   5.8826287  21.4619804  71.2800363   5.7545407
  22.3604894  70.0640897   5.8261855   0.6177164  28.6789536  67.4045038
   1.3992811  28.8506413  67.9297829   0.6716180  29.3056679  66.6830063
  28.7416387  80.9503249   3.0754645  29.1368318  81.8210868   3.0327352
  28.5118128  80.7468561   2.1688159  74.8850203   8.4958380  52.7966166
  75.0162315   9.3630791  52.4133301  75.2470875   8.5670447  53.6798286
  27.0885206  75.2712921  27.0325406  26.1866785  75.1933197  26.7213758
  27.0877100  74.8303870  27.8821500  16.9544769   7.4057929   9.2748006
  16.4481569   6.6756027   8.9188560  16.6044069   8.1785791   8.8315328
  55.4333687  23.6409402  57.4428034  55.6333303  24.5643663  57.2894049
  56.0957336  23.3536386  58.0712652  13.6260916  65.5591873  11.6268762
  13.9326454  66.4624075  11.7071851  12.9726292  65.5892757  10.9280808
  69.8475075  24.7093725  47.6600981  69.8745775  25.6546164  47.8084612
  68.9429283  24.5333600  47.4012661  34.4456125   5.0450485  18.5304387
  33.7070347   4.4963329  18.2665475  34.0415980   5.8453815  18.8658078
   7.1903348  43.7864351  33.9377117   7.7479959  43.0853462  33.6004925
   7.7711797  44.5445299  34.0020180  44.3368053  31.1149979  59.9178410
  43.3931637  31.0041404  59.8017359  44.7249126  30.6660128  59.1668320
  78.3630562  18.4049586  30.9693273  78.9881325  19.0603761  30.6595929
  77.6319218  18.4617261  30.3541501  53.5349035  45.9986496  65.4988956
  53.0197668  46.5685368  64.9278498  53.4494352  46.3901520  66.3681793
  12.1027447  70.0854567   5.6768592  11.5921951  69.4100598   6.1234124
  13.0143953  69.8455099   5.8428510  54.7844053  10.9002750   2.5727637
  53.8877035  11.2327735   2.5326665  55.2914835  11.5142362   2.0415814
  38.7914921  40.2976768   0.8504136  38.9166237  39.4215743   1.2151225
  39.6660305  40.6867568   0.8563836  41.5830208   1.6436355  27.0807775
  41.0248162   1.5040176  27.8457196  42.3237444   1.0520952  27.2136338
  72.1014786  77.1756748  30.3624280  72.2636986  77.3769287  31.2840589
  72.1453810  76.2206844  30.3144868  48.9627790  80.6763554  60.0671291
  49.3583155  79.8742294  60.4082584  49.6315336  81.0470486  59.4912958
   0.3089500  17.4710501  63.4661055   0.1593853  16.5260638  63.4366655
   1.2407184  17.5599421  63.6664438  28.6737657  62.3882178  12.1205934
  28.7492872  62.0636705  11.2232717  29.4764257  62.8901700  12.2620900
  17.9993035  15.8027093  36.5793450  18.1155707  15.2438943  35.8109506
  18.2233168  16.6813295  36.2726338  66.5500713  30.7314221  34.4099553
  65.6836486  30.3591648  34.5741780  66.7555619  30.4726974  33.5115846
  14.7982193  73.7129024  13.8589223  14.1868425  73.0859593  13.4724076
  15.6642795  73.3644799  13.6473210  56.4515186  71.6142444  18.1818421
  56.1102629  72.0612410  18.9564164  56.3790489  70.6830577  18.3913072
  26.3626267  40.0088565   5.3185161  26.3429381  39.0571420   5.4189475
  27.1753002  40.1828163   4.8436149  52.5025870   9.4619863   9.1936238
  52.9916025  10.2694051   9.3523057  52.5739123   9.3203561   8.2496532
  14.6376278  11.8622796  18.7178453  14.1704132  12.0448224  19.5330937
  14.6295311  12.6948230  18.2455762  33.1307532  24.2714803  23.8790448
  32.3251225  23.7863653  23.7005456  33.6619879  24.1514747  23.0918820
  34.9468685   3.0879657  38.0809720  35.8876826   3.1229989  37.9081281
  34.8693062   3.2582347  39.0197118  48.4451818  61.8234396  65.2519274
  49.1831398  61.3743591  65.6642103  47.9853964  62.2449684  65.9779787
  71.7843819  72.4379591  15.4584439  70.8431197  72.2643784  15.4698785
  72.1365595  71.8955044  16.1640962  63.0896498  14.9336688  34.9220021
  62.3857714  15.4518907  34.5318349  62.8155543  14.0250699  34.7972806
   8.9131857  80.7977299   5.2774747   9.8293138  80.5779079   5.1083072
   8.8059927  80.6686906   6.2198623  60.0400759  33.9253347   0.4786571
  60.1564909  34.6107070  -0.1793258  59.6588160  34.3778913   1.2310298
  48.1445194  14.6365516   4.0668614  47.9986788  13.7208335   3.8293250
  49.0968109  14.7329633   4.0756829  83.5015965  59.0429632   0.7251103
  83.6619139  58.1026713   0.6452354  84.0306473  59.3132273   1.4756425
  31.8802811  12.8745954  17.9798921  31.4896561  12.4006765  18.7140878
  32.1066595  12.1924226  17.3477300  70.3015661  42.1116543  57.0414114
  71.1503172  42.4187136  56.7227268  69.8066044  41.9092035  56.2475252
  63.7249756  49.1872779  20.0193437  64.4121027  49.7780523  20.3276856
  64.0459752  48.3121965  20.2371152  48.9074541  17.8228776   9.1223605
  49.1397549  17.5504367   8.2346471  48.0042101  18.1312530   9.0496095
  49.3396759  73.8077116  58.1222153  49.3526459  73.7484503  57.1669388
  48.9876699  72.9652834  58.4096909  81.2281824  12.2784059  18.7603410
  81.7322636  11.5630739  19.1481908  80.3927422  12.2633712  19.2272981
   3.5525632  35.6205392  39.0614390   3.2194639  35.9108806  39.9105406
   2.8384328  35.8001041  38.4498811  11.7169404  43.1042433  56.4134789
  12.2953344  42.9671717  57.1637487  11.2006879  43.8757706  56.6468477
  60.1292826  29.9263303  40.0151284  60.2545477  29.2506759  39.3487771
  59.4891478  29.5507829  40.6196435  13.6226726  79.0669946   7.4547418
  12.8350998  78.7580112   7.0069821  14.3225075  78.9583162   6.8108066
  46.7313696   1.0442607  17.1520455  46.5891386   1.9381778  17.4633630
  47.6214768   0.8316867  17.4326737  86.5146732  54.4454193  65.7062483
  86.6964531  55.1603031  66.3162708  86.7380619  54.8016739  64.8463583
  35.6137587   8.6982839  25.5999215  35.0562073   9.4739978  25.6601842
  35.2646233   8.1004398  26.2609132  78.0797148  63.4168339  61.9128370
  78.9702129  63.4576464  62.2615147  77.9651880  64.2471790  61.4506245
  62.8511953  53.1740856  69.3006277  62.6534986  52.5080347  68.6422014
  62.1431255  53.8125467  69.2155647  37.3883940  74.8036603   6.8003448
  37.3170591  74.1557530   7.5013192  36.9838835  75.5925373   7.1612771
  76.0663033  60.9835005  55.3245115  75.1689148  61.0791492  55.0054884
  76.6101742  61.0832596  54.5431757  33.7989975   6.1421268   6.7208608
  34.5219589   5.5990522   6.4068111  33.3960129   6.4882676   5.9246047
  47.6263024  11.9909112  14.3242772  47.7003123  11.2897031  13.6769326
  48.3974243  11.8849294  14.8813851  73.2719542  44.2588203  35.3631146
  73.1847120  43.8147704  34.5196469  72.7698542  43.7171810  35.9720071
  48.9777733  24.3173568   2.4203332  48.0911423  24.6252220   2.2323497
  49.2002178  24.7245328   3.2575687   7.6442457  57.2309160  41.9848537
   7.4493814  57.8803062  41.3091707   7.7985311  56.4199829  41.5002823
  76.0733652  50.1282740  34.6771193  75.6977701  49.2488861  34.6342397
  76.7713213  50.1228189  34.0220976  51.2370420  78.2220248  40.7065137
  50.3946615  78.2526807  41.1600431  51.6571165  79.0539030  40.9250291
  20.6415201  47.8140879  58.8337088  20.2647138  47.3632145  59.5893240
  21.0856462  47.1244955  58.3402967  46.0207201  28.1120126  15.0181516
  46.7522217  28.2928960  15.6084188  46.4220978  28.0498426  14.1513951
  36.2556721  22.9938905  48.2233842  35.4193093  23.1367366  47.7802976
  36.0142161  22.7045696  49.1032823  65.8604670  38.9954805  57.8738928
  65.9165859  38.3072710  58.5368061  66.5342760  39.6267295  58.1263494
  71.0850741   4.9981563   2.0084937  71.1945654   5.8712976   2.3851426
  70.3468729   5.0881355   1.4058335  66.5160322  71.0418415  55.3395224
  67.0587111  71.7635584  55.0219584  66.0570145  71.4030123  56.0978699
  58.7288309  52.5919406   5.6297620  58.0560328  51.9112556   5.6454356
  58.2508208  53.3966033   5.4291328  53.3884668  57.9737473  41.2102699
  53.6544180  57.5631332  42.0330048  53.8637638  58.8044119  41.1925411
  82.8743172  47.1897984  60.3231144  82.5851250  46.8486691  61.1694145
  83.3427811  47.9965401  60.5374718  72.0548201   2.0674896  56.9459534
  72.7078819   2.2658543  57.6170635  71.4355135   1.4809844  57.3803520
  36.9640375  75.8359412  16.8347962  36.3703752  76.1356810  17.5232442
  36.9276834  74.8808197  16.8862851  70.2091217   0.6186785  53.0110025
  69.4031525   0.8271021  52.5385618  69.9129438   0.1753260  53.8059521
  14.7652460  51.8276453  58.8214302  15.6487775  51.6492128  59.1435528
  14.1885782  51.4001656  59.4546366  21.5264249  13.9522433  34.0211296
  22.0775438  14.2854714  33.3129883  21.4955354  14.6669233  34.6571398
  46.2124932  67.5298861   0.2120097  45.2585185  67.6060466   0.1929792
  46.4923334  68.1847004   0.8516486  57.4675751   8.3837718  48.0356359
  56.7792606   8.5830611  47.4010181  57.0498991   8.5057592  48.8882160
   2.7966715  41.3377010   4.9696000   3.5179973  40.7086072   4.9822696
   2.3055101  41.1550961   5.7706340  70.9151841   6.9817976  15.3857739
  70.6913376   6.1697773  14.9310811  71.7439509   7.2556738  14.9928792
  66.9461679  27.7035785  60.5810261  66.8776560  27.2355103  59.7488880
  66.6343594  27.0774102  61.2344170  81.6529465  67.6252989   3.7855371
  82.6068545  67.7035335   3.7725003  81.4684010  67.0714406   4.5441039
  38.4925508  74.3255579  54.2737913  37.7910947  74.7011690  53.7417078
  39.1087246  75.0468408  54.4015265  78.0270767  35.2789593  47.8611135
  78.8063335  35.8347750  47.8692579  77.4024487  35.7502961  47.3098326
  79.1405297  53.0804900  11.4616235  79.8690224  53.2338802  12.0632871
  78.4691286  52.6617602  12.0002492  68.5532856  73.9021424   3.8711436
  69.1889143  73.6100892   3.2177575  68.9271140  73.6275271   4.7084458
  84.1575026  80.2199416  52.5207186  85.0468778  80.3538743  52.8482914
  84.2005395  79.3918314  52.0425797  64.4079781  27.2134519  66.1324024
  63.6429453  27.7436996  65.9092712  65.1402617  27.8295946  66.1133385
  82.4886202  52.2768771  61.0758591  81.9013237  52.8685009  60.6054401
  82.0185255  52.0636641  61.8819523   1.6260458  57.5226144   6.8124803
   2.1184278  58.0500523   6.1835130   1.1365534  58.1620125   7.3299726
  56.5629959  63.8565258  26.0959943  57.1500993  63.5126880  26.7692788
  56.2275243  64.6734527  26.4652093  65.1332617  25.4376125  59.0713882
  64.5575857  25.7534623  59.7678566  65.4835272  24.6120763  59.4061136
  21.8698336   9.0086715   8.2098134  22.1358324   8.6582773   7.3596938
  21.1193634   8.4724300   8.4656938  20.9201122  56.6451339  21.9576009
  21.6521812  56.0900537  21.6889222  20.5279423  56.9389430  21.1353334
  76.6470433  52.8836325   5.4841312  76.6558361  52.0160953   5.0797399
  75.7233239  53.1344262   5.4929526  35.4653883  23.9696789  67.1951056
  35.7773948  24.3712449  68.0060482  35.3566098  24.7038913  66.5906763
   0.6014943  63.6577307  63.6354446   0.6041050  63.6625325  64.5926285
   0.2046942  64.4943367  63.3928156  24.4974352  40.5896181  20.3460630
  24.2310072  39.6879688  20.5257161  24.5495916  40.6382802  19.3915303
  55.4981995  25.6598163  61.7909431  56.3382769  25.6242108  61.3335180
  55.0548840  24.8490930  61.5410805  19.2872095  75.8227556  56.6140270
  19.3992996  75.3279155  57.4256897  18.9676571  75.1781308  55.9826946
  18.3762241  21.1766473  10.0649865  17.8150774  20.4741505   9.7365888
  18.7113405  21.6038290   9.2766698  29.5153236  52.0937644  63.2710409
  28.7581110  51.5375148  63.0881548  29.5137643  52.7401577  62.5650644
  11.6598796  73.8804327  63.1792593  12.1730184  73.3389150  62.5795269
  12.0001650  73.6646478  64.0475178  85.5908203  11.9817066  57.0297432
  85.4199028  12.5702286  56.2944460  84.7402763  11.5879726  57.2241068
  32.3194837  66.6855012  55.0406694  31.9158792  66.2842380  54.2710400
  32.9290723  67.3307334  54.6824694  36.7136312  35.7421342  20.1799043
  36.9907976  36.5489650  20.6139978  35.8113504  35.9131674  19.9099668
   6.2952971  62.5524854  53.9060259   5.5966735  63.1592189  53.6610126
   6.5994811  62.1890425  53.0743933   7.4667811  77.1986010  62.1650553
   8.4207153  77.2031828  62.2439432   7.2436499  76.2807160  62.0103598
   7.5694299  13.0588055  70.1135969   6.8816781  13.7229609  70.0674534
   7.1606946  12.3219085  70.5676365  53.5244846  19.8549187  43.3289623
  53.8356924  20.7600880  43.3220291  53.8487864  19.4964719  44.1551447
  40.9516907   0.7084448  44.7049141  41.2398195   1.4376426  44.1558409
  41.7454243   0.1959126  44.8583078  73.4017467  10.2587175  41.4162874
  74.0351105  10.8083797  40.9548187  73.7809753   9.3803221  41.3873148
  78.6337805  20.5133561  23.3665975  79.4590760  20.4679636  22.8838380
  78.1568337  19.7274188  23.1000360  82.9730534  63.4692251  53.3320570
  82.2031926  63.9869403  53.0964375  83.4343671  63.3355509  52.5040770
  34.5640945  74.6931898  58.4771824  35.2992248  74.5343213  59.0692759
  34.8483896  74.3284058  57.6391268  48.8440466   4.3347612  53.4905100
  48.3443642   4.9641877  52.9705381  48.1991863   3.6802471  53.7588310
  86.2711167  80.3008169  31.0086489  87.0294069  80.7001080  30.5822754
  86.5852045  80.0611725  31.8805170  17.0149946  75.5456172  58.7665176
  17.0136499  75.2972965  57.8420877  16.1294603  75.3451817  59.0696478
  19.8503376  49.9470160  17.7430661  20.4630161  49.3683103  17.2892316
  20.4055000  50.4990850  18.2937367  82.7071858  18.3147482  13.8259061
  82.8445149  17.8442744  13.0036958  83.5894299  18.4704474  14.1630109
  15.7867075  51.5868727   3.8914378  15.4175020  50.9865645   4.5391639
  15.1796223  52.3267893   3.8771995  65.0449324  36.4343381  59.8899364
  64.8298550  36.4588690  60.8223391  65.9944868  36.3159275  59.8662090
  34.3355871  23.4208170  14.0159257  34.0145326  22.5887326  14.3634828
  35.2614809  23.4401897  14.2579587  59.5744801  13.0996513  33.4433794
  59.4894218  12.5308740  34.2085528  60.2131414  12.6561725  32.8851056
   5.8894897  26.2908260   9.8881753   6.1322523  26.1899582   8.9677795
   6.6911198  26.0891322  10.3708108  37.3460197  76.8259486  45.1930857
  37.9023552  76.8108999  44.4143057  37.8208160  76.3001906  45.8368111
  11.0026002  45.9016991  70.0954580  10.7670808  46.4695072  70.8291912
  10.2737737  45.9894419  69.4811678  13.7909437  39.4698133  29.5564206
  14.3744112  38.8311153  29.9661382  13.3092810  39.8574883  30.2871354
  23.5667467  59.0767728  63.2481194  23.9710235  59.2838227  64.0906858
  24.2109394  58.5269963  62.8020287   2.3064161  60.0314466  11.6413911
   1.9265247  59.4394556  10.9921868   3.1763531  60.2363244  11.2986501
  66.9925857  61.5716127  31.7522939  67.1786428  61.6379742  30.8156999
  67.2626114  60.6840066  31.9878228  85.7112646  34.9023995  10.6498845
  85.5724001  33.9606778  10.7504209  85.1066399  35.3017775  11.2753137
  11.0876394  65.0659827  29.7855599  11.8402744  64.7062949  30.2550252
  10.5281187  65.4288319  30.4722245  81.4425946  53.8977555   0.6325849
  81.8686247  54.4356243  -0.0348203  80.6504059  53.5703698   0.2065690
  33.4498812  70.3881744   8.3456643  33.2851339  71.3258556   8.2464440
  33.9357973  70.3159789   9.1671975  45.6350088   0.4865701  48.0308390
  45.6918335   0.5224494  48.9856768  45.9036589   1.3587028  47.7419710
  64.9583101  24.5771861  64.3115330  65.1119375  25.1528502  65.0606966
  64.0554237  24.7590852  64.0508890  81.5208912  31.5262389  62.6907778
  82.2622395  31.8635702  63.1936264  81.5139675  32.0530772  61.8916416
   2.1436191  51.4913312  21.7721589   1.1939693  51.3979415  21.6967900
   2.4611307  50.6001273  21.9176705  35.2165199   2.4223821   0.2923663
  35.2723767   3.1135194   0.9522470  34.3575979   2.0244949   0.4343780
  71.5889120  32.8398395  56.5498686  72.0985413  33.5935736  56.2525463
  71.0433912  32.6080370  55.7982683   6.8982817   4.1394190  13.2508882
   7.1249510   3.9978985  12.3317464   7.7006794   3.9325408  13.7300427
  49.1752100  61.2018119  68.4164000  50.0889539  61.2952267  68.1469965
  49.2216396  60.8150589  69.2907572   4.7338987   3.4194943  64.0537548
   5.1416231   3.1253293  63.2392263   5.3026796   4.1233262  64.3657446
  46.4497947  62.0037185  58.9610147  46.7950105  61.4295494  58.2773590
  45.5007124  61.9770597  58.8394976  71.0806513   9.0656239  20.2933049
  71.0875654   8.4607911  19.5514417  70.9539986   8.5046697  21.0584974
  83.9923716  75.9063462   3.1887706  83.9555455  76.3546947   2.3438676
  83.1352044  75.4893926   3.2762178  82.1813583  30.7923150  52.0569134
  82.8360844  31.3497305  51.6363668  82.4033356  30.8224177  52.9875374
  19.5975637  77.6028796  46.1709785  19.8185300  77.8319614  45.2682447
  20.1230383  76.8245073  46.3560390  16.6253973  58.3027772  28.5994466
  15.9970356  57.5980071  28.4423192  16.0938240  59.0296916  28.9238771
  11.6934228  39.1324592  65.8583164  12.6322294  39.2863226  65.9641552
  11.6282487  38.5719633  65.0851202  83.6807632  33.6203933  42.1802330
  84.4185925  34.1118979  41.8193007  83.9581871  32.7053261  42.1364260
  32.5888634  16.1447966  38.6450934  32.9988933  15.2803731  38.6154294
  31.8447256  16.0367167  39.2373848  18.1840826   1.2113778  24.6589692
  18.6273457   0.4684179  24.2493852  18.8943459   1.7832248  24.9500878
  52.0471668  10.5536640  69.6652889  52.3831749  10.1609063  68.8596392
  52.7907610  10.5375993  70.2678156  58.0253315  77.1385070  61.5835190
  58.1688404  77.7817016  60.8893013  57.9507923  77.6607599  62.3822212
  82.9570628  80.9207944   5.5778535  82.7162266  80.0021676   5.6976588
  83.6779929  80.8992843   4.9485429  48.7204456  16.4454412  56.8196154
  47.9422760  16.4830744  57.3757315  48.6871719  17.2526038  56.3061857
  50.8722401  13.0307853  58.6514664  50.3570795  12.4776185  58.0642223
  51.6760302  13.2133067  58.1648111  63.8014746  32.0032517  10.6787332
  64.7574854  32.0047644  10.6310304  63.5928440  32.6777617  11.3250573
  59.3280602  20.9932899  46.0530996  59.7029781  20.6638432  45.2363157
  59.0128851  21.8704796  45.8353043  67.7409077  16.5202582  67.9535532
  68.3898687  16.5935278  67.2537565  67.5507355  17.4255371  68.1995916
  34.8505783  71.7975568  56.1793518  35.0231313  72.1036219  55.2889729
  34.0006828  72.1771233  56.4026070  78.3210754  24.8198199  57.5837851
  77.9219580  25.6312490  57.2699118  78.1405544  24.1815424  56.8936825
  34.0368391  20.5358962  32.2651132  34.5522428  19.7422627  32.4090989
  33.1765295  20.2166489  31.9927342  19.1224122  15.5327904  65.3023148
  19.4840456  16.2361288  65.8415461  19.1232419  15.8878982  64.4134188
  64.8867989  35.2953720  68.2070637  65.1560974  34.5916128  68.7973452
  64.9214554  36.0860157  68.7455034   2.0855165  28.8705087  51.2904835
   1.6765142  29.7352743  51.3241720   2.9723955  29.0372849  50.9713364
  48.1087494   9.8239082  54.4432735  48.7763453   9.2911732  54.8754120
  48.5158157  10.6846476  54.3449974   3.0630089  59.9885634   8.3071693
   3.9540268  59.8097972   8.0065663   2.8896690  60.8858458   8.0224450
  17.0690775  76.3554614  46.5888929  17.6830816  77.0897659  46.5836096
  17.6102829  75.5921607  46.7906475  10.3581380  76.0556274  53.8839769
  10.4575204  75.2732985  53.3414698   9.4229531  76.0904055  54.0851021
  12.1246744  49.5807049  12.8824647  12.3810745  48.8142095  12.3696549
  11.7277742  49.2173991  13.6741193  17.4361730  19.6030191   0.3919967
  18.3602310  19.4272522   0.5693372  17.1385265  18.8410548  -0.1050441
  81.5748978  44.5892525  57.9306602  82.3866844  45.0386810  58.1656885
  80.9328175  44.9068737  58.5655594  12.7578283  28.4533191  66.7801762
  12.4167371  27.7589893  67.3439121  13.5843873  28.1055975  66.4453363
  60.2659750  48.4642223  18.6481507  60.6131959  48.9127461  19.4191869
  60.3630066  47.5332991  18.8486417   8.1482244  49.0102307  17.5367005
   7.6888729  48.2174364  17.2597440   7.9812313  49.0675185  18.4774812
   6.6022516  16.8922952   5.8844073   7.0128561  16.9420985   6.7476304
   5.7610823  16.4641503   6.0436328  39.1917658  21.2474322  60.1016378
  39.9596310  20.9545422  60.5923843  38.4806800  21.2394881  60.7423639
  73.5290361  68.8006166   1.6520436  73.4392000  68.6590437   0.7096417
  74.1557813  68.1350068   1.9355615   1.1798168  44.1609333  32.4744828
   1.5652920  44.2490203  33.3461888   1.8370701  44.5286430  31.8836816
  36.0378958  43.3790613   3.5290320  35.6477190  42.7325565   4.1172631
  35.6306196  44.2080615   3.7802489  37.3081159  71.6993307  62.4217129
  37.2447586  72.1101891  61.5594959  37.8763437  70.9413301  62.2846556
  36.1928939  79.1320314  49.2868137  37.0929527  79.4077226  49.1132593
  35.6816721  79.5236461  48.5786343  42.7620029  10.9934819  63.9830589
  42.1905947  10.2563059  63.7679005  42.1719027  11.7448974  64.0412664
  12.2374655  40.3937500   9.1450341  12.5590254  40.0644869   8.3057340
  12.4636770  41.3238224   9.1399844  18.7393284   6.1657673  58.7504435
  19.1918206   5.3228688  58.7187290  18.2015789   6.1788714  57.9586840
  17.1134067  26.5505937   8.2644923  17.7350736  26.3015417   8.9484056
  17.4827982  27.3472813   7.8836186  53.3077335  38.7621188  61.4021587
  53.4745646  38.3140159  62.2313786  53.5152769  39.6795273  61.5796804
  35.3392601  81.0578879  47.3472357  36.0051679  80.5415768  46.8931198
  35.4815387  81.9538911  47.0420027  19.3059136   1.4768712   1.2873967
  19.0444828   1.6362445   2.1943076  18.4801127   1.4169376   0.8070882
  59.4788218  12.5984097  64.1929579  60.1064110  12.7029014  64.9081182
  59.9330950  12.0492601  63.5539722  43.0354643  73.9522641  39.3114734
  42.9501819  74.0744465  40.2570057  43.2599830  74.8205881  38.9770508
  67.3808313  52.9030124   2.3392184  66.6668463  53.1151918   1.7380221
  67.7684737  52.1055082   1.9787343  68.3865356  11.2983310  33.6013842
  67.6617002  11.7216742  33.1413555  68.8594866  12.0189202  34.0176773
   2.5340105  16.9718937   0.3740151   2.3183037  16.9339756  -0.5577914
   1.7135216  16.7589954   0.8186563  72.7798939  25.2743387  62.8126431
  72.6188517  25.8286309  63.5762262  72.9774237  25.8901978  62.1070004
  11.2053657  34.2483327   7.6756890  10.7765938  34.8386232   8.2953198
  10.6396795  33.4766213   7.6494153  83.9386988  61.5141348   2.5396712
  83.9564276  62.4082879   2.8808578  83.1039477  61.4514211   2.0754560
  73.9896417  22.0405320   4.6824296  73.6697603  22.0079664   3.7808497
  73.3581854  22.5950257   5.1407273  84.1789914  81.6819648  30.0225289
  83.3898306  81.1494902  29.9228986  84.8812819  81.0461024  30.1592572
  81.8200779  33.0144787  60.1030016  82.6726532  33.2226253  59.7208595
  81.5780830  32.1773005  59.7070217   3.0213714  50.7439236  16.7519982
   2.2172714  51.0588185  16.3390954   2.9634024  51.0532168  17.6559957
   3.9944959  13.9783418  57.5401402   4.3826128  14.5962548  58.1596422
   3.1759572  13.7057447  57.9547787  68.9841605  48.5916874   5.6373532
  68.3238125  48.0416755   5.2158578  69.8155213  48.1583396   5.4442723
  63.4528685   5.2467281  40.5606127  62.7937126   5.9292263  40.4343367
  64.1291904   5.6628847  41.0950565  33.1917024  68.4155754   0.0579961
  34.0469385  67.9898433   0.1176293  32.9865957  68.6681513   0.9582027
  85.7560253  45.2766943  70.3569603  85.8027077  46.1999512  70.6052637
  85.8782005  45.2775288  69.4075871   8.5632063  60.4779772   0.4348119
   8.1316782  59.6356801   0.2914556   7.8819300  61.1282805   0.2639134
  53.5428190  10.9852874  53.8017559  53.9907360  11.7154002  54.2290020
  53.8486338  10.2090716  54.2710114  77.5808239  22.9642180  24.1424878
  77.7796269  23.5831372  23.4398873  77.9858208  22.1439353  23.8608010
  11.5170742  29.7740439   8.3207496  11.4858986  29.1426340   9.0394815
  12.3490978  30.2319828   8.4401639  28.0989194  15.1602125  62.8601789
  28.7945700  14.6096575  62.5007534  28.0754137  14.9391139  63.7911987
   5.7987714  15.1060641  69.7469997   5.3360868  15.9246469  69.9260950
   5.1053644  14.4790220  69.5414877  38.7763334  13.7722938  14.4444402
  39.5730187  13.8800924  14.9639733  38.9059664  12.9480283  13.9753850
  40.2626657  74.7900253  44.7215843  40.3654623  74.8754435  45.6694078
  40.1118517  73.8554012  44.5802879  17.3343206  69.9378947  59.8442777
  16.6733433  69.7838763  59.1692861  16.8342377  70.0093464  60.6573232
  45.5194569   9.5286262  60.0190163  45.1665831  10.0543928  60.7368469
  44.7515202   9.1140866  59.6257544  64.0469075  64.3539480   0.6380637
  63.1333137  64.3895177   0.3546699  64.2384100  65.2414922   0.9410842
   4.0542436  10.5583739  62.7093840   4.9380708  10.8284461  62.9586840
   4.1889406   9.8672885  62.0609283   1.4125181  41.5129519  57.5598526
   1.4144063  41.2978125  56.6271448   2.1318460  42.1359110  57.6634169
  31.5420532  64.7007226  65.4784489  31.2790537  65.3605758  64.8368454
  32.0165062  65.1934515  66.1480331  52.2553660   8.6291997   3.9493211
  52.3243357   8.3180110   4.8518975  53.0791308   8.3633630   3.5407146
  11.4728570   9.3658412  32.4714541  11.0430932  10.1261091  32.0796323
  11.1042428   8.6155826  32.0051169   9.7224642  44.1861815  16.2073548
   9.9193931  43.4458218  15.6334909   9.3026281  43.7916646  16.9717629
  80.0300121  12.9972768  49.8615980  80.3353214  12.0932198  49.9371004
  80.1119709  13.2007313  48.9298677  50.5112124  68.5053328   4.8765977
  51.1010194  67.7593807   4.7674354  49.8464418  68.3863238   4.1982539
  80.4610491  23.7200466   5.9166368  80.1592780  23.4771160   6.7919334
  81.3556910  24.0331689   6.0500558  45.6189537  12.6827800  17.1101022
  46.5399647  12.9138613  16.9893980  45.5397081  12.4950373  18.0453587
  75.9068727   4.6359318  65.0308561  75.3186989   4.2406455  64.3874025
  75.7997465   5.5788636  64.9058151  25.5168867  76.8265467  57.0027590
  26.2021541  76.1726152  57.1406364  25.6576156  77.1359478  56.1079454
  51.3582420   7.0884001  50.3919744  51.2735939   6.1561060  50.5917072
  51.8379736   7.4503690  51.1370039  14.7775913  56.3355819  11.6543420
  13.9885593  55.8145288  11.5054639  14.4746185  57.2430590  11.6239293
  70.1239204  81.5144372  70.3323984  69.3561840  81.1704698  69.8757792
  70.7915210  81.5951587  69.6512079  45.2206446  66.5371374  10.9458764
  46.0497976  66.5816954  11.4220651  44.8407102  67.4101786  11.0442861
  79.5862723  40.6319525   6.5608151  79.5999670  39.8503498   6.0084184
  80.4338885  40.6258510   7.0054944  82.3622942  57.2754685  17.3349603
  82.0290661  57.6538745  18.1485971  82.2528458  57.9699425  16.6853746
  85.0071621  72.8451279   2.6168855  85.8262349  73.0871252   3.0490716
  85.0898028  73.1993154   1.7314704  22.2297311  25.9443831  54.8510456
  22.8066946  26.0732412  55.6038666  22.7759958  25.4976749  54.2043066
   4.4102074  56.1578802   3.3183177   5.1552130  56.4882199   2.8162511
   4.7684646  55.4317132   3.8287767  22.7049065  19.4107890  38.9639521
  23.2774973  20.0068402  39.4467521  22.3520637  18.8235986  39.6324897
  32.1731783  18.3549694   5.8733733  31.7202974  18.0975965   5.0703271
  31.6285921  18.0045942   6.5782817  76.6270733  10.7092404  46.5798998
  76.4425087  10.8994281  45.6601191  76.6072273   9.7538686  46.6355896
  69.2517328  32.0202565  65.5319309  68.4631491  32.0693111  66.0722637
  69.9742937  32.0904255  66.1557961  59.4325733  58.3739196  20.3438401
  59.8744678  59.2125904  20.2112103  59.9576950  57.9290806  21.0091209
  20.0577522  51.9588605  24.2995389  19.3991066  51.6183642  23.6941655
  20.1668239  52.8749386  24.0443261  58.6579681  41.0631405   5.7455905
  57.9175973  40.6418122   6.1821302  58.7453032  41.9090453   6.1849626
  86.4045954  72.5923446  14.0534337  86.7187310  73.4062532  14.4472631
  86.9582606  72.4701361  13.2822354  17.6335430  67.5717627  49.6508789
  18.0475998  67.2258281  50.4415226  18.2659530  68.2017719  49.3053722
   8.9917065   3.0988005   0.7842238   9.0734983   3.5765199  -0.0412051
   9.8882509   3.0337790   1.1131795  46.2658383   8.5335319   2.4289353
  46.1917759   7.6692121   2.8335364  45.7327725   9.1037814   2.9829104
  51.1576509  22.8601813  49.7383118  51.9762325  22.4675632  49.4349909
  51.2779760  23.8000083  49.6023703  70.1948643  64.3162397  21.0863240
  69.6391583  63.7772445  20.5233796  69.9667931  64.0473036  21.9762071
   6.1352421  63.0315737   6.5954240   5.3083397  62.7914242   6.1773379
   6.3952518  63.8446978   6.1624654  50.7237864  36.9200397  58.3063555
  51.4181900  36.9836044  57.6506186  49.9139929  37.0384145  57.8099155
  60.0269461  15.7587647  70.5854893  59.3165445  15.1780272  70.3129005
  60.6949711  15.1708531  70.9380960  27.8028894  60.3662208   4.2139562
  27.6513887  59.8942021   5.0327809  26.9304205  60.4760114   3.8358291
  67.8792882  50.9320763  14.8522981  67.8336501  51.3891558  15.6920751
  68.7867070  51.0426728  14.5684178  28.3185221  71.0745100  17.3030694
  28.8092352  71.8442777  17.0151551  28.9618612  70.3657488  17.3008950
  67.7550589  52.3180973  70.4083586  67.2768884  51.7256819  70.9885550
  67.0720177  52.7849423  69.9269629  24.1469694  54.8479489  29.1214784
  24.2121912  55.5377630  28.4610780  23.8076616  55.2917889  29.8987229
  82.1606827  24.7713685  50.9685135  81.4231110  24.2208242  50.7056093
  81.7607021  25.4893398  51.4591932  78.3000803  53.7327099  57.9347944
  78.6497593  54.5803022  57.6599407  78.6213493  53.1162930  57.2767353
  19.7603632  60.0838438  15.5475648  20.3481985  60.8372287  15.6031640
  18.9436699  60.4424075  15.2001794  52.7976942   4.4907779  37.0712399
  52.5508690   4.5438981  37.9945421  52.1336365   3.9245477  36.6779900
  74.4043160  64.9984769   5.8158668  75.1126957  64.5751909   6.3009055
  73.7114573  64.3390373   5.7796128  67.0684242  40.1642609  41.3220215
  66.9873142  39.2530704  41.0402584  68.0120564  40.3207922  41.3578367
  67.3301315  44.9712610  47.7915668  67.9011250  45.6630468  48.1256771
  67.6802492  44.1664124  48.1734991   8.7733388  34.8452306  70.8747149
   9.0886999  33.9471483  70.7735825   7.8463865  34.8014379  70.6400347
  69.7527743  58.7068490   0.9623464  69.4341421  58.9037708   1.8432124
  70.6509209  58.4034923   1.0947784   7.1800924  79.8813868  65.3717661
   7.2055555  79.1757727  66.0180569   7.5770021  80.6293964  65.8180571
  72.8080082  18.5831201  33.3918190  73.5409784  18.1248593  32.9807448
  72.8457737  18.3191574  34.3111300  81.9384480  36.9336295  38.7026072
  81.5738201  36.7337012  39.5647597  82.1724129  36.0801888  38.3377337
  72.9710960  26.0207343  55.9118605  73.3580208  26.8515444  55.6356764
  73.0821800  26.0090756  56.8625212   2.9282594  15.8024848  44.6174097
   3.6258722  16.4298594  44.8070669   2.2112394  16.3373303  44.2767334
   9.2772461  78.8345555  24.4156964   9.8682857  78.8841084  23.6644013
   9.8187710  78.4860400  25.1238759  32.8964925  69.0018368  65.5144358
  32.8689599  69.5947027  66.2654209  33.6447263  69.3028784  64.9989271
  65.1592279  70.9255937   2.8521855  65.6910826  70.1617411   2.6288207
  65.7548738  71.6686586   2.7557738   1.1279607  41.5062428  50.9528875
   0.8202005  40.6007004  50.9917402   1.5679861  41.6458511  51.7914104
  77.0115805  23.7057042  43.4334135  76.5647078  24.0903234  44.1874695
  76.9046116  22.7613854  43.5476494  69.7905470  17.3539226   6.5744098
  69.5169378  18.2110660   6.9010242  70.4335905  17.0479839   7.2140439
   6.6075826  41.6557873   4.2195209   6.5941168  42.6114965   4.1678460
   6.1515165  41.4536485   5.0364526  22.2482038  64.0408710  18.2355817
  22.5494028  63.2643989  18.7073930  22.4144865  64.7663525  18.8374551
  34.8087527   6.8966501  11.5816625  35.6748463   6.5490835  11.7945417
  34.5866467   7.4578397  12.3246129  79.8778772  59.0376043  42.5379372
  80.5532360  58.8388252  41.8893957  80.3066254  59.6288013  43.1567144
   4.3774248  18.0735636  61.0226774   4.0962911  18.7435770  61.6457987
   4.1762567  17.2440648  61.4559126  36.5429331  77.1683768   7.9350265
  36.1228491  77.1680359   8.7951215  37.4759222  77.2682408   8.1242021
  71.9165325  47.1272993  25.9879565  72.0166302  46.3783169  25.4003882
  70.9715366  47.2735500  26.0307240  18.1210352  73.3822516   0.6037314
  17.4639726  73.8511542   0.0893100  17.8230739  73.4691767   1.5092118
  34.7693086  63.4313539   7.8095420  35.3689886  62.6860002   7.8422959
  33.9383531  63.0846719   8.1344255  83.8708163  74.7626332  15.4193147
  83.6976862  74.6701292  14.4824536  83.3771086  75.5406669  15.6784375
  67.4318361  71.1098623  60.4245996  67.1880674  72.0197964  60.2547979
  68.3879280  71.1223030  60.4688740  58.9702654  51.0267973  67.2040415
  58.8595343  51.1750269  68.1431866  59.8761368  51.2801552  67.0267439
  24.6220804  58.5022358   8.4351953  24.7496248  59.2232398   7.8186591
  24.1558386  57.8355054   7.9309018  32.3567129  30.0729465  34.9329710
  33.2957578  29.9150610  34.8355007  32.2379423  30.9841180  34.6648407
  50.5324198  11.2528961  28.7652238  50.5342365  11.3558833  27.8135808
  49.6420361  10.9701841  28.9738401  12.5816274  58.1789748  37.2260411
  11.7618156  57.7283601  37.0233472  12.7904440  58.6663274  36.4291032
  81.5680170  80.9098080  17.2111257  82.4470091  80.5699328  17.3787053
  80.9965611  80.3809837  17.7679093  69.6277167  29.3239276  14.3389638
  69.8304583  29.9922054  14.9935754  69.5429159  28.5139339  14.8419030
  65.8454704  62.1155453  65.1856947  65.3417301  62.5772715  65.8559847
  65.6298971  61.1923122  65.3176165  59.4762135  45.2092981  70.3581667
  59.8363924  44.8233986  71.1566544  60.0276947  45.9737635  70.1917410
  85.2921486  33.7028790  26.4312840  85.2677250  33.9708877  25.5126953
  85.9122372  34.3064427  26.8404722  76.8207455  12.6451039  48.4213305
  77.0291901  13.5164404  48.0843544  76.7554426  12.0955670  47.6403189
  62.1252180  57.4112157  14.1814740  63.0579782  57.5706819  14.3255265
  61.9495798  56.5884510  14.6380361  40.7502104  65.9381417  25.6056340
  40.2684999  66.4133266  24.9285920  40.0702597  65.5739263  26.1724122
  49.1605497  33.8374648   7.1327670  49.9378324  33.2843814   7.2113116
  48.4890962  33.2573656   6.7737897  18.8210035  37.6434326  50.7609701
  18.2469106  37.8009057  50.0114059  18.9997030  38.5153699  51.1131382
  27.1968485  13.4644334   8.2426293  27.8923441  12.8278320   8.4077199
  27.2545935  14.0776698   8.9753230  51.1294676   6.2891977  13.9807828
  50.9756590   7.2312276  14.0526040  51.5009333   6.0419195  14.8275979
  15.9486700   9.3176109  14.3206048  15.1098466   9.5182484  14.7357476
  15.7214761   8.7516952  13.5828018  40.0965929  27.6893115  66.7402315
  39.5542431  26.9438410  66.4826202  40.8085060  27.3027229  67.2500944
  46.9507408  78.0033257  43.8729525  46.2403917  78.1985264  43.2617807
  46.9633865  78.7499331  44.4718266  70.1589918  -0.2760850  70.4126549
  69.7456360   0.2196158  69.7058010  70.1886177   0.3353919  71.1484909
  82.3206997  52.7575997  27.0017751  81.4204693  52.4751476  26.8404229
  82.7416277  51.9978753  27.4041017  68.1898642  27.4063277  57.1599388
  68.6393499  26.6365790  57.5087643  68.6350918  28.1490183  57.5678778
  79.6171570  31.1889410  47.3276567  79.9388123  31.6190624  46.5353394
  79.4708157  30.2803731  47.0643711  73.7122726  45.8227873  59.5141172
  72.9935265  46.3315201  59.1388416  73.8940096  45.1470757  58.8609505
  63.8709831  48.0128860  31.0275531  63.6933374  47.4337387  31.7686749
  64.4159365  47.4895430  30.4398704  53.4933519  75.3100348  54.5148802
  53.9107752  74.4668007  54.3389606  53.0980825  75.5604553  53.6798477
  18.8631035  35.8810452  24.4574578  19.5754124  35.3076164  24.7403462
  19.0839458  36.1097778  23.5546048  78.9190508  15.6249826   0.9328063
  78.6902453  16.3166301   0.3119119  78.2940794  15.7306640   1.6500743
  33.2768704  19.4389741  38.6039670  32.3776032  19.1235082  38.5143502
  33.7280823  19.0989892  37.8312810  84.0117312  70.3685478  12.2466214
  83.7763596  69.6571926  11.6509660  84.1153431  71.1320833  11.6787274
  68.6897993  20.6503391  57.9256487  68.5398102  20.1414824  57.1289062
  69.6406746  20.6486416  58.0354786  60.0192213  20.0282049  43.5954142
  59.3054342  19.6583927  43.0758190  60.8139277  19.6705449  43.1994867
  13.5465932  38.8217735  70.1845360  13.5585332  39.7142863  70.5302382
  13.4617353  38.2659793  70.9592152  11.2431074  19.9813795  33.0926251
  12.0494867  20.4512215  32.8799367  11.4509798  19.0617824  32.9272127
  58.2266331  27.5245547  64.5291138  58.1332445  28.1294394  65.2650642
  57.4062824  27.0314550  64.5187807  23.5328604  76.2001208  35.0196488
  23.7733389  76.2665681  34.0955289  22.8972841  75.4850725  35.0509198
  75.9562922  81.9543675   9.3063958  75.1130200  81.7906979   8.8840993
  76.5505648  81.3176040   8.9093955  42.4938656   3.3052461   4.8522409
  41.7863823   2.9074399   5.3596385  42.0917917   4.0691440   4.4386800
  49.4923449  29.7997808  47.3554707  50.1488876  29.1036201  47.3320770
  49.9639034  30.5833244  47.0727587  39.8357035   7.4837435  61.6743803
  39.2634035   6.7337264  61.8361664  40.5629373   7.1248187  61.1659145
  30.8516049  16.0795093  60.9622383  30.0106311  16.3615179  60.6024265
  30.8275700  15.1242161  60.9068584   9.3802429  64.6446804   9.4885285
   9.9844623  63.9023618   9.4780286   8.6325670  64.3376879  10.0013288
  69.2199612  16.4667332  40.6370783  69.2108870  17.3771679  40.9324741
  68.4268713  16.0849690  41.0132408  85.8784342  57.0591775  11.0345204
  85.7105446  56.2954680  10.4824384  86.7064572  57.4124698  10.7092698
  71.9719267  76.6032580   4.6751817  71.1295224  76.8856601   4.3190463
  71.8328238  75.6892756   4.9232038  10.4841877  24.1262759  45.2047348
  10.9694362  24.9500788  45.2507019  10.7779241  23.6322440  45.9701681
  73.5015440  21.4262128  50.5471420  73.2779932  21.4113235  49.6165323
  74.1456079  20.7256150  50.6499863  80.0081062  34.9666429  63.5597420
  80.4863453  34.9991894  62.7312136  80.6067467  34.5287228  64.1647911
  13.7986923  76.2341241   6.8320640  13.8979221  75.2854041   6.7525943
  14.6920610  76.5600876   6.9410451  79.4036388  48.1032372  67.2323179
  80.1645756  48.6837673  67.2183132  78.9825201  48.2398367  66.3836527
  57.4518156  58.6262369  49.5371151  57.2344303  58.7375498  48.6115980
  56.9115448  59.2739773  49.9896288  13.0965829  34.4683313  24.8820972
  13.4983850  34.9804211  24.1802788  12.5140310  35.0851274  25.3252959
  11.0471940  31.4738369  55.8757019  10.8565355  30.6927752  56.3951492
  11.4012933  31.1343050  55.0537729  81.5338064   4.5036666   0.8755143
  81.7078043   5.2047317   1.5035756  82.3660780   4.0367429   0.8011134
  68.9633560  13.0652440  68.7220812  69.4232273  13.7808359  68.2831335
  69.0089560  12.3361504  68.1035566  79.7886419  16.9637811  55.5333471
  79.2724419  16.1645091  55.4287672  80.6534481  16.6565180  55.8052397
  84.8225021  12.2165942  28.0137849  85.4385376  12.4317515  28.7140965
  85.1479244  11.3916039  27.6536155  77.0862128   2.1429603   8.7957032
  77.9495074   2.2619788   9.1916879  76.4907957   2.0580308   9.5403417
  43.4724308   5.0980203  10.4557641  43.4634615   4.3443887   9.8656877
  43.7639929   5.8272378   9.9085267  86.8666411  50.0567195  38.7098535
  86.3005543  49.3657640  39.0538819  86.3839245  50.4125420  37.9638036
  68.4164047  77.1248722  29.5664668  67.9240465  77.9282522  29.3979597
  67.7731514  76.4236021  29.4631386  77.7855825  17.5534010  15.5376422
  78.4852266  16.9038785  15.4679930  77.8944254  18.1065631  14.7640812
   9.4602514  70.0542120   0.5398019  10.3824497  69.8026875   0.4896195
   9.3680549  70.4552416   1.4040406  82.1985149  66.8785524  57.5633335
  81.5171242  67.5380373  57.6937962  82.7592468  66.9576120  58.3350563
  36.7154814  11.0891883   4.3811019  36.5934588  11.7543332   5.0585444
  36.6810204  10.2572744   4.8532851  24.4767786  62.5650358  69.8938274
  24.3491579  63.4784460  69.6376419  24.2465616  62.5423861  70.8226538
   6.0685373  77.1121053  14.0453847   6.2760139  77.8248385  13.4410699
   6.8604303  76.5746693  14.0627797  10.3297067  37.8811336  67.7454996
   9.4188810  37.7408981  67.4867582  10.7319665  38.3035588  66.9865656
  80.0463009   0.9554806  41.6765594  80.9658909   1.2000599  41.7803001
  79.5694923   1.7828432  41.7425919  14.6841550  27.4224186  69.6396399
  13.8951517  27.2721863  70.1603365  14.8531557  26.5823603  69.2130566
  63.9074898  24.2431521  67.4399519  64.0857649  23.8436699  68.2913399
  64.6012735  23.9116526  66.8698549  81.5435886  41.9836998  66.2015152
  81.0754585  42.0775604  65.3718901  80.9963417  42.4428988  66.8386078
  79.9757719  46.9800613  14.2251618  80.0046015  47.4627326  15.0512536
  80.6373215  46.2954394  14.3245633   1.2050176  70.5618600   5.4916652
   1.5896059  71.2655166   6.0143407   1.7585398  69.8014430   5.6694634
  85.9967709  36.8569303  47.4894333  86.7023373  37.4933529  47.6050711
  85.3747082  37.0593762  48.1882048  85.1206112  26.4736652  57.7242613
  85.0182438  26.2231302  56.8061209  84.6454525  25.8000350  58.2107592
   8.3216930  59.3213335  10.0506242   7.8938938  59.6420554  10.8445771
   8.0908657  59.9625484   9.3784745  86.5696526  68.1708336  55.3932047
  85.9216118  67.4804401  55.2530813  86.6401863  68.2435274  56.3450289
  43.0928112   1.2339227  19.4036420  43.8608576   1.4146726  19.9455579
  43.4326578   0.7220762  18.6696466   2.8633428  58.4298900  20.3700765
   3.3712650  57.6589052  20.1174291   1.9531847  58.1341676  20.3501638
  79.1685915  31.7677832  35.2313185  79.4424868  32.3229885  34.5012760
  79.7154188  30.9857917  35.1557970  22.4060178  17.1194398  40.7784271
  22.3343492  16.2242651  40.4471302  23.3354402  17.2261989  40.9809256
  77.1327734  55.3636646  54.6370602  76.3324881  55.7613039  54.9800825
  77.8383780  55.7807636  55.1314116  76.7236067  41.0043018  26.5319856
  76.8853117  41.1699359  25.6031926  76.3961626  41.8376605  26.8704255
   8.2286001  72.1312574  25.2899297   7.8108192  71.4620665  25.8320363
   8.5080028  71.6624049  24.5035775  15.6052281   2.3036401   2.1071704
  15.0270535   2.9630773   2.4906905  15.5105282   2.4225728   1.1621221
  37.8697897   2.5609271  11.6013463  38.6284138   2.8329675  12.1177896
  37.1558214   2.5037210  12.2363313  78.2634830  33.1036663  66.7484093
  79.0935755  33.4220529  66.3937140  77.8300238  32.6851273  66.0046530
  14.4999910  65.9985495  69.9364853  14.5895982  66.8100786  70.4361105
  15.2724481  65.4851341  70.1730013   3.2790018  23.4041953  56.5669632
   3.8500524  22.7709699  56.1320305   3.8365007  23.8152122  57.2276402
  33.6094093  70.1426863  47.6110601  33.5923481  70.6185459  48.4414196
  34.2342186  70.6262540  47.0706797  77.5994778  26.3726068  54.5773411
  78.5342360  26.1883307  54.6695471  77.3407602  25.9065437  53.7823009
  84.3661023  51.1447803  50.6866582  84.2890406  51.1075333  49.7332986
  84.8649979  51.9440297  50.8555825  78.0304718  46.2238550  30.7060981
  77.8604364  45.6540966  29.9559689  78.9162159  45.9931278  30.9861970
  83.7317467  20.9935784  33.8997102  83.7154865  20.7793522  32.9669333
  84.6613979  21.0010791  34.1275692  68.4229231  29.1264391  35.9452438
  67.9253864  28.5482955  36.5235496  67.7579594  29.6602178  35.5103445
  51.8466711  14.6445429  48.5720110  52.7631283  14.5363677  48.3177662
  51.8663883  14.6835923  49.5282078  76.1118317  47.7625656  55.7197809
  76.6069365  47.2729778  56.3766003  75.3893137  48.1562853  56.2088394
  18.2569815  52.5022010   3.1369384  17.3685003  52.1544889   3.2139285
  18.7600828  52.0215587   3.7942870  66.4776278   6.5267181  53.1245470
  66.8977261   6.8926185  53.9029217  66.7595863   7.0973176  52.4096012
  65.6255150  25.9223723  43.7124491  65.8866358  25.0072336  43.6096430
  65.8007240  26.1195135  44.6325970  52.5548363  31.6246295  53.8052607
  52.7743387  31.0038710  53.1104851  51.7780256  31.2522411  54.2225361
  42.3960425  11.6735809  22.6475175  42.5205017  12.6089780  22.8080686
  43.1353832  11.4253681  22.0925458  19.6242368  13.2229018  69.9807310
  20.5665708  13.2188773  70.1487255  19.5504916  13.3284461  69.0322304
  46.1020828  21.7438524  17.7157910  46.3999582  21.4753024  18.5849221
  46.4806820  22.6141183  17.5911553  86.8589592  77.1099976  13.0743344
  86.7126608  77.1991757  12.1326001  86.0116339  77.3162917  13.4689458
  21.8582464  76.7273501   1.9840606  22.1053577  75.8027319   1.9683106
  20.9905363  76.7502741   1.5805944  15.5606294  37.8460789  30.9716916
  15.7102323  37.6970434  31.9053078  16.3511968  37.5138617  30.5464149
  83.8707734   3.2387103  39.6449471  84.1604281   4.1502894  39.6082187
  82.9320002   3.2781447  39.4622350  12.5517774  15.5559516  33.0253339
  11.9992376  15.6784117  32.2533584  12.1968294  14.7764635  33.4527063
  81.6390991  58.0995226  40.4194689  81.8253517  57.6730204  39.5830250
  82.0040321  57.5071716  41.0768604  13.6686540  12.2198796  59.5323038
  13.9198423  13.0564964  59.9237204  14.0118814  12.2604203  58.6396742
  56.1122824   8.4502046  39.4211228  56.7948271   8.0696552  39.9738915
  56.2660338   9.3938987  39.4662030  11.5705991  39.0103912  54.2178059
  11.3148714  39.0408468  53.2958984  11.4017415  38.1064296  54.4834614
  53.2007265  15.7903326  59.0840101  53.3976841  14.9422812  59.4818115
  52.2446823  15.8225441  59.0497112  57.4174023  66.9691706  59.0238237
  57.6951551  67.6676512  58.4311962  56.9301558  67.4198771  59.7135258
  12.3471332  60.2698294  31.3123830  11.8923260  59.4275836  31.3146241
  13.2568765  60.0513140  31.5144857  42.3338223  10.0996327  60.9457636
  42.7760553  10.8906317  61.2539530  41.4016342  10.3107131  60.9977484
  59.0077114  81.2569957  26.1485410  58.0864143  81.1940700  26.4004970
  59.0079116  81.8313381  25.3827977   6.1038328  53.7148523  67.5926304
   5.4896379  54.3147612  68.0158472   5.8085084  52.8436518  67.8572559
   8.2520748  68.4222559   4.6143420   8.7885881  67.6408438   4.4809945
   8.5085893  69.0126590   3.9059241  30.3829695  78.1272820  35.7429345
  30.1683737  78.9910296  35.3906282  31.0850073  78.2929257  36.3721688
  84.3906403  43.8880777  52.8799438  83.8125706  43.7309027  53.6265135
  85.2735996  43.8398266  53.2463837  46.6774965   7.8160513  64.7361135
  46.3990141   6.9813002  65.1127625  46.9294668   7.6013888  63.8379669
   1.8637205  24.1498804  50.4482508   2.4771429  24.3048000  49.7299623
   2.4102235  23.8261294  51.1643171   4.1707349  43.5394669  49.9344444
   5.0958181  43.7676477  50.0259829   3.7068391  44.3685579  50.0512505
  86.3267708  66.5503740  59.0487099  85.3708458  66.5665865  59.0953207
  86.5804386  65.8042860  59.5920706  76.1296940  68.1481266  62.8697395
  75.7963371  69.0162754  63.0964994  76.8544436  68.3194065  62.2683859
  38.8917757  76.5653733   9.3485864  39.8202444  76.4163116   9.1697820
  38.7527204  76.1928419  10.2192815  39.8166109  24.4460170  26.3980802
  38.8698031  24.3489091  26.2962945  40.1507975  24.4877117  25.5020841
  17.7615667  39.0949774  55.1367188  18.1509328  38.8730049  55.9825039
  16.8195749  38.9926434  55.2724552  49.0066839  44.0438370   2.8259070
  49.0587545  43.5202161   3.6254962  48.6027933  43.4604490   2.1834453
   9.5368172   8.6262263  57.4826765  10.2718855   9.1929949  57.2488403
   9.3112636   8.1779517  56.6675615   6.6438604  46.0341549  63.8016367
   6.0739732  45.6621504  64.4747496   7.3449827  45.3906345  63.6989832
  83.6627007  40.1976156  66.7795658  83.3905983  39.4070530  66.3135147
  83.1609154  40.9020805  66.3694811  74.3281031  53.3061028  54.3855715
  73.7613249  54.0175724  54.0875769  75.1474047  53.4365749  53.9081287
  13.5230852  45.8281088  69.4660568  13.5964609  45.0723839  68.8831997
  12.5987554  45.8507490  69.7136879  77.4271775  80.1351050   7.7916892
  77.0742131  80.0451139   6.9065030  78.3494234  80.3553323   7.6605495
  67.4555683  46.7876530  52.2720289  68.2040215  47.0242405  52.8198195
  67.6724672  47.1353626  51.4069939  27.0189119  77.8636412  12.6117547
  26.9632746  78.4512643  13.3653005  27.8212572  78.1272320  12.1612008
  10.5965854   2.2352044  37.5397332  10.8688118   3.1500451  37.4676927
  10.7428695   1.8722789  36.6661676  63.0496813  54.6528701   6.3023408
  62.2931791  54.0901164   6.4673837  63.4457231  54.2948643   5.5078490
  80.5538940  60.4074287  51.4914894  80.9255600  60.5416775  52.3633099
  80.3178310  59.4799948  51.4719677  84.1926384  61.6189909  64.0173101
  84.9698257  61.3456202  64.5046282  83.5723591  60.8990765  64.1322517
  19.3583442  14.7391431  16.4959271  19.3694832  13.7931602  16.6416390
  18.8520099  15.0884931  17.2292836   3.3968473  53.7162209  50.5821848
   3.8011098  54.4754505  51.0021639   4.0916849  53.0583525  50.5567551
   6.1025358  33.3702779  19.9252880   6.6502595  33.9844966  19.4364464
   5.2266145  33.7552047  19.8965025   5.4024625  70.4992533  67.8480673
   4.8113084  69.8581362  67.4534321   5.1425577  70.5297422  68.7688017
  62.3807455  29.6898095  15.1104196  61.7212511  29.6226709  14.4199117
  61.9920946  29.2353170  15.8578237  83.9770222  37.6982331  49.5587349
  84.2725658  38.2828212  50.2566862  83.2483482  38.1641269  49.1486025
  16.5636564  37.0967197  68.0246067  16.0439897  36.3261247  68.2534456
  17.4706007  36.8237162  68.1629896  21.5048242  54.2021847  43.6766481
  20.7191396  54.4992495  43.2176399  22.1177412  54.9334288  43.6002254
  18.7404466  77.3751307  32.5116301  19.2112852  76.8182230  33.1316280
  19.2971063  78.1475401  32.4129248  12.9335190  74.5353273  11.4023049
  12.3581529  75.1599339  10.9606488  12.5585724  74.4421247  12.2780641
  28.4400392  23.2723522  27.6852918  27.6104665  22.8549743  27.4532747
  28.2226015  23.8448834  28.4209275  75.6027222  61.0135508  31.7038774
  75.9934187  60.3102255  31.1853027  76.3452196  61.5560913  31.9695449
   6.4841867  47.9533148  61.8482161   7.0707345  47.5240898  61.2253475
   6.6222883  47.4830437  62.6704073  62.6313400  51.3216639  52.0692301
  62.1078062  51.7755604  51.4088345  63.4691000  51.7846823  52.0704842
  67.9516935  38.4994531  45.0153160  68.0412531  38.6467671  44.0737677
  68.8432264  38.5750556  45.3554392  56.6511631  63.5956907  67.0119286
  56.7152452  63.1047297  67.8311253  57.3987913  63.2966709  66.4943743
  82.2869968  37.4931026  65.8862305  81.9916534  37.5235224  66.7962170
  81.6414928  38.0130053  65.4074144  27.0393873  19.6792285  26.5488370
  27.7742220  19.8176591  27.1463998  27.4212671  19.2171018  25.8026250
   4.0240074  59.5559207   2.1158298   3.5860658  60.1798359   1.5368922
   4.5730043  59.0322665   1.5322002  34.3161226  59.3442086  18.1504853
  34.5526052  58.4207717  18.2375081  35.0802351  59.7495285  17.7405294
  21.1589265  29.6459866  40.9975386  20.3973699  30.0325060  41.4298153
  21.8976331  30.1785254  41.2924194  30.4693842  75.1756953  14.9326658
  30.5860328  76.1062442  15.1242483  29.5750427  75.1103657  14.5978320
  60.0426340  25.5553293  41.5080309  60.4650116  24.8354650  41.9766712
  59.4964695  25.9828091  42.1677208   3.2886434  24.6086550  35.2369118
   3.1889368  24.2093468  36.1011147   3.4482408  25.5349159  35.4180217
  74.9316597   4.2794874  43.4542608  75.4591084   3.4857145  43.5434437
  75.4102850   4.9422836  43.9521074  19.0658451  50.8388469   4.9789222
  18.2773710  50.2961663   4.9726470  19.2685152  50.9561209   5.9070380
  81.6440821  41.6961113  18.9638551  80.8160115  41.9879173  19.3451436
  81.5839529  40.7408019  18.9631017  60.3016210  47.0819608  12.3180993
  60.1012731  48.0179486  12.3138173  60.8165098  46.9435928  11.5231355
  14.1260506  44.8003731  36.5243085  14.3267656  45.4130576  35.8167966
  14.5018555  43.9689407  36.2349542  59.5512867  71.5730821  21.3772440
  59.0711689  70.7997178  21.6732574  60.2617073  71.6711413  22.0112133
  76.3393450  23.6884046  48.2287884  75.7681179  23.6536169  48.9960670
  76.1458921  22.8827786  47.7494431  61.2612915  30.3005134  19.3260694
  61.6006851  29.6125185  19.8985243  61.2853431  29.9163782  18.4496582
  25.8182932  69.2128352   5.9820302  26.1718679  69.4370631   6.8428071
  25.6656767  70.0574855   5.5583509  84.3351841  10.0459695  44.3148994
  83.5949612  10.6371379  44.1777277  85.0805473  10.6268430  44.4674063
   6.3747907  79.9472407   8.7633069   5.8774019  79.6912030   7.9865964
   5.8013607  79.7284106   9.4978269  60.0508022  10.5738926  21.0846877
  60.8975887  10.1794541  20.8758736  59.6291161  10.6998503  20.2346587
   2.3595357  57.3255062  52.6328993   3.1131387  56.8356752  52.3036861
   2.5962377  58.2440376  52.5044584  81.2918091  33.5200572  56.0516405
  81.8104839  32.9719043  55.4627943  80.4250908  33.5531354  55.6467581
  76.7143250   0.7338604  26.1441422  76.3389874   1.5753950  26.4033175
  76.3068199   0.5396276  25.3000784  14.2018629  49.5077453  16.0561116
  13.6254669  49.9502347  16.6791661  15.0848699  49.6782974  16.3838990
  57.1939373  78.7777071  49.3528986  58.1438923  78.7193327  49.2508268
  56.8853378  77.8785347  49.2411566  64.3241072  43.9398575  52.7659941
  64.1680956  44.7828293  52.3402071  63.7637854  43.9560938  53.5418844
  15.9759165  57.5355033   1.5784677  16.5032459  56.8215040   1.9367488
  15.3323150  57.7239851   2.2614654  21.7914987  56.9018844   4.3107637
  22.1166254  56.0146312   4.1580995  20.8413626  56.8019501   4.3697866
  59.6808124  21.7619852   7.6089891  60.0082541  21.2960652   8.3783610
  60.1702571  21.3880841   6.8762715   8.0990530  18.3502698  59.8555231
   7.3400903  18.6543298  59.3577766   8.7752271  18.2018852  59.1944599
  12.0560670  19.6211493  54.1430712  12.1263242  19.3464899  53.2288170
  12.1653963  20.5717182  54.1166639  80.9894038  67.1679286  15.0262292
  80.5180931  67.9918627  15.1496347  80.9447718  66.7363504  15.8794435
  13.4526777  75.6233506  51.7504692  13.0735254  76.3455348  52.2513962
  13.8619566  75.0632738  52.4100399  59.4747352  77.5298422  48.3087158
  60.2179050  77.8239067  47.7819777  59.0255832  76.8919389  47.7541304
  84.9272919  16.5737295  43.5017490  84.8009014  16.5311539  44.4496107
  84.8633957  17.5057518  43.2932186  15.0775171  42.1457529  45.3007078
  14.6137453  41.8238497  46.0737085  15.6584287  42.8282356  45.6368589
  73.5178280  38.2081795  48.7283373  73.9964533  37.4826407  49.1292620
  74.0664244  38.9756393  48.8904285  59.3916512  24.0476727  47.7596331
  58.9543962  23.2973218  48.1621408  60.2524185  24.0757155  48.1773996
  63.6735535  17.8165936  43.9254618  64.4572163  17.2927558  43.7590361
  63.9652061  18.7226641  43.8244438  84.0151501  36.3342905  61.9709301
  83.6977291  36.8140793  61.2058926  83.3164024  35.7109952  62.1696186
  71.6573095  30.6835842  60.6755733  71.9906759  31.3105488  61.3174582
  70.8273697  31.0595608  60.3822041   1.0539270  26.0384345  44.3878841
   0.3989816  25.6447077  44.9643040   0.5558992  26.6418219  43.8364172
   4.7192741  38.7176848  10.0556596   4.7063185  37.9585130  10.6385167
   4.9152828  39.4575975  10.6304200  56.2915134  14.6434021  61.4280224
  56.6986465  14.2213786  62.1845722  55.4449797  14.2060804  61.3365936
   8.8261438  19.6454954  62.0591831   8.5393548  19.3652844  61.1900091
   8.0172086  19.7222602  62.5651121  45.6583811  29.5631532  18.3153947
  45.5992533  30.4693774  18.0129178  44.9688078  29.1048590  17.8350862
  21.8573761  69.1408419  67.3590803  22.3280096  68.7340020  66.6316080
  22.5408983  69.5595550  67.8822565  12.2292829   0.5452128  66.8333912
  11.4975191   0.0014539  67.1250677  13.0026365  -0.0032392  66.9651365
  72.2311640  27.5106072  21.1131525  71.5880394  27.4909735  21.8218398
  72.9913950  27.9521060  21.4917803  34.1661573  65.0689486   5.4685290
  33.2627893  64.9020914   5.1995976  34.3371607  64.4188432   6.1499627
  58.5695982   4.8046029  26.8658304  58.9906979   5.0010914  26.0289907
  58.0480433   4.0207404  26.6932940  74.8335959  14.3152969   1.5545781
  74.7482325  14.8612993   0.7730182  74.3163897  13.5340564   1.3586171
  81.4011002   3.1009188  38.1083703  81.3400078   3.5682619  37.2752500
  81.3154888   2.1773812  37.8717685  40.2024078   0.5848905  52.9998712
  39.5919990   1.2992879  52.8174762  40.9010601   0.6963178  52.3551206
   0.1540876  27.8199697  40.0363064   0.8629251  28.3817124  39.7228932
  -0.5788683  28.0100226  39.4507456  53.1028318   2.8948218  32.2038794
  52.7743912   2.0068538  32.0629191  54.0218782   2.7750868  32.4431515
  -0.0046229  36.5845162  35.1931222   0.9154774  36.8483753  35.1887639
  -0.4794335  37.3666958  34.9120839  38.3286714  62.6855444  66.0403061
  37.6893615  62.2421943  65.4826736  37.8365755  63.3971213  66.4498615
  57.2324944  73.9342642  43.4571886  57.1624947  73.4245253  42.6500368
  57.3516273  74.8366594  43.1610060  49.6525313   8.2612006  20.2210458
  48.8592125   8.1374280  19.6999295  49.4394232   8.9815109  20.8143170
  81.9212818  33.0155659  29.3937898  81.9009495  32.0888615  29.6326137
  81.2761784  33.4255910  29.9699473   4.7866083   7.4449122   4.3639976
   5.1611066   7.8464937   3.5799590   4.5251203   8.1856745   4.9109206
  81.1077690  74.5582907  41.1117220  80.5226421  74.7060805  41.8547010
  81.9165897  74.2309265  41.5052509  73.0581331  47.0246363  47.5293064
  72.3049927  46.4405584  47.6180124  73.2232571  47.3392248  48.4181261
  29.6833540  65.8223704  13.8225301  30.1563383  65.1173285  13.3804544
  29.2303396  65.3897909  14.5463307   6.3303400  35.1905966  69.5708752
   6.2039686  34.4194174  69.0181160   6.2416578  35.9318376  68.9717627
  78.8796806  24.0302444  50.8307171  78.7099981  23.8033032  49.9164200
  78.7557936  24.9786186  50.8690596  52.8577041  72.8832643  68.0945301
  53.4215164  72.7508514  67.3324251  53.4501934  72.8240245  68.8439846
  45.5250835  22.7564311  52.8828526  45.4026985  22.7374816  51.9336987
  46.2819290  23.3272648  53.0154085  62.7244854  36.8040037  26.8147779
  62.4566889  37.7041626  26.9997835  62.5627804  36.6937804  25.8777952
  27.0507646  77.3088316   2.1932777  28.0041242  77.2526816   2.2579320
  26.8866278  78.1746129   1.8194945  61.6752840   3.5730426   8.3190187
  62.0107866   4.4480865   8.1241592  62.1927572   2.9891460   7.7644761
  80.4365349   4.4088686  47.4766493  80.9862709   3.6325979  47.3697329
  81.0174370   5.1430464  47.2772169   5.0139261  16.3842607  29.1642714
   4.3954015  16.8267322  29.7455382   5.1290346  16.9894516  28.4316540
  23.0699182  78.6417829  46.2689066  23.8108087  78.6824219  46.8736124
  22.3813558  78.1971454  46.7632866  82.6076698  13.6393440  28.6629128
  83.3486843  13.0784583  28.4336829  82.9227638  14.1633952  29.3993378
  77.7717781  70.6011449  53.3125019  78.3773994  70.6492840  54.0521908
  78.2628822  70.1433133  52.6302671  79.6573877  17.8642666  27.4480057
  78.9653826  17.3970532  27.9160523  79.2210436  18.6326981  27.0801091
  52.6762342  26.6954303  68.9915037  52.6577568  26.8160796  69.9408865
  52.7354860  25.7476163  68.8716221  57.4038219   6.8729299  34.2481494
  56.9455338   7.2001320  35.0221920  56.7075014   6.6874319  33.6181045
  62.7894592  16.2557268  50.7140970  63.3724594  15.7633746  51.2919664
  63.3784628  16.7587435  50.1517105  30.1609445  80.8902124   6.4484866
  29.8326898  80.8448080   7.3464950  30.7369638  80.1302699   6.3653215
  76.2677002   9.5290256  57.2226191  75.4586506   9.0373582  57.3638201
  76.1742592  10.3069770  57.7724266  23.4350896  14.9179494  52.6689196
  22.9234338  14.1110456  52.6110840  22.8035856  15.5828428  52.9434013
  46.3620233  76.2303274  48.8008928  47.1963405  75.8194601  48.5743284
  45.7393980  75.8732080  48.1676149  86.1467934  39.2639518  37.7409124
  85.2418041  38.9525938  37.7239299  86.3721657  39.2945170  38.6707020
   2.0628286  38.6098003   9.6870488   1.8174386  38.0244207  10.4035318
   3.0199934  38.6013365   9.6879709  14.4833303  32.4881601  42.8285933
  14.4042707  31.5966797  42.4891233  15.0907255  32.9201579  42.2280264
  77.2974396  30.0443196  26.1880922  78.1895590  30.1556396  26.5166616
  76.9469595  30.9337807  26.1405921  23.5329462  58.4712139   2.7555020
  23.4143091  57.9172782   3.5270675  22.7182699  58.9695720   2.6908954
  60.5390978  16.8519962  49.2801189  60.7206154  17.4581647  48.5618973
  61.3926744  16.6978168  49.6849251  78.8569927  45.9663010  19.9904191
  79.2127514  46.1765003  20.8538318  77.9740667  46.3358974  19.9987113
  10.9596420  71.0311703  20.6828149  11.7991091  71.4701585  20.5456288
  10.3062178  71.7193846  20.5577882  36.9109441   9.1450898  19.6136983
  36.7667676   8.2960098  20.0314363  36.1006833   9.3165796  19.1337998
   7.0775402  28.2330966  70.8275557   6.8806523  28.9638472  71.4136171
   7.1160704  28.6282659  69.9565840  27.1589703  67.8603629  14.7117360
  26.9682958  68.7062124  14.3062528  27.8469202  68.0501965  15.3496392
  79.3293715  72.1350674  34.1491826  80.2861500  72.1137384  34.1679891
  79.0954924  71.6792086  33.3406480  75.9345532  63.3875135   3.2093318
  75.9451151  63.7784628   2.3356755  76.8070889  63.5638574   3.5612090
  73.8488816  76.6021406  62.8084183  73.7760781  77.4486609  63.2492542
  74.7506045  76.5755235  62.4883890  39.7599399  57.7794019  33.7026914
  40.6259382  57.6846699  33.3060773  39.1598165  57.8287045  32.9586156
  68.7741483   6.5957038  31.8894036  69.4883538   6.4044158  31.2814935
  69.1951705   7.0531146  32.6172383  56.6285992  67.3568610  14.2501863
  57.1774054  66.6540793  14.5982392  57.0950771  67.6619676  13.4720262
  84.5141888  74.2360143  12.6621850  85.0564146  75.0217298  12.5923951
  84.9966145  73.6643485  13.2594235  67.4946809  68.0250529  43.3966096
  67.7453137  67.8306297  42.4934896  66.9215036  67.3006061  43.6473592
  70.7723308  35.1929252  31.4332707  71.5926421  35.1700179  30.9405263
  70.9596313  35.7562177  32.1841653  51.7832804  75.2452949  57.9586156
  52.0490623  75.5484752  58.8267549  51.0318613  74.6757201  58.1234868
  54.4101382  68.5468081  42.3834737  54.5900321  69.4771317  42.5189908
  54.2951012  68.4604768  41.4371331  56.7505908  60.7041136  29.8555978
  56.0052896  60.2740387  30.2748807  57.4150229  60.7556120  30.5427011
  85.0685931  60.8297042  22.7125485  85.7000256  60.7338897  23.4255345
  84.2640305  61.1196259  23.1424935  81.4866877  21.7370479  13.8193925
  81.7672230  22.1224372  12.9893239  81.3174821  22.4887054  14.3873818
  48.7783480  81.1641578   4.8822625  48.4607697  81.4141206   5.7499583
  49.5998788  81.6446999   4.7802957  42.7601529  75.6929234  21.9337304
  43.2353533  76.0525159  21.1846574  41.9338715  76.1759356  21.9474729
  18.2552935  29.6579473  34.6233781  17.6465584  30.3966443  34.6242841
  18.5995222  29.6301668  35.5161126  59.2319155  72.3574690  18.8483079
  59.2126370  71.8552474  19.6629460  58.3170700  72.3967985  18.5694821
  14.0502239  78.4806923  37.3448403  14.2658449  79.1700939  36.7167790
  14.0086342  78.9301423  38.1889375  55.7391525  76.2631062  19.6076043
  55.1538897  76.8473963  19.1256173  55.5936075  76.4838199  20.5275662
  67.7213401  11.7532937  21.4284070  68.6720467  11.7878549  21.3226064
  67.3758871  11.9770305  20.5642064  48.4664750  81.5621833  28.5355981
  47.9858148  82.0994595  27.9058869  48.0310965  80.7102732  28.5051377
  80.3780437  18.4979789  38.4263738  79.8860455  18.7625472  39.2036660
  81.0752416  19.1494863  38.3509763  45.0158834  62.5772619  70.2655506
  45.5430841  61.9346714  70.7402802  44.4050503  62.9163027  70.9198999
  82.9095841  80.0481824  32.4943860  82.1698428  79.6078519  32.0759042
  83.1986857  80.6949285  31.8506654  34.4792652  59.1528654  68.6227798
  35.3060293  58.8695192  69.0131712  34.7284222  59.8447275  68.0100155
  80.9403587  19.6513002  53.6642964  80.3110743  20.1703660  53.1634934
  80.4636050  18.8538806  53.8946374  39.8719288   1.0111110  55.6386025
  38.9463879   0.8781974  55.4338105  40.3307797   0.7891862  54.8283895
   8.8231636  39.3127220  18.0528768   9.2572643  40.1134841  18.3471139
   8.4310414  39.5479839  17.2119744  36.9290091  10.4265277   1.4854749
  36.0903479  10.7990281   1.2132342  37.1210076  10.8535116   2.3203691
  23.3101059   7.7448289   2.1185430  23.3056236   8.3738630   1.3970645
  24.2378260   7.5780885   2.2851642  75.6678820  66.2503651  22.4210389
  75.2253628  66.9929270  22.8321488  76.5759135  66.3195161  22.7158769
  51.8101979  16.2045209  27.1363862  51.9101227  15.4959123  27.7720960
  51.3072891  15.8153169  26.4209588  53.2662249  67.5718526  23.7109502
  53.3408952  66.6464976  23.9441426  53.8034201  68.0264620  24.3597825
  30.0436808  11.9334953  53.4721215  29.4785477  12.3945157  54.0920575
  29.4441153  11.3930528  52.9576524  49.9834108  74.1771126  63.1034565
  49.2305040  73.6326027  63.3333921  49.7810888  74.5084429  62.2285175
  14.4037605  20.7901351   7.3125442  14.1260124  19.9856155   6.8745549
  13.8695170  20.8276336   8.1058915  72.6255716   4.3382709  30.4682859
  72.4292029   4.9831741  31.1478169  73.0969370   3.6428802  30.9270604
   7.5479771  73.2330397  36.4969857   8.2444692  72.6006488  36.3203176
   7.9877735  74.0831474  36.4855226  43.3424616  62.1015767  10.9423955
  43.3444202  63.0109600  11.2411531  42.9525590  62.1372656  10.0689347
  29.4361734  12.4934494  65.9305954  30.3925633  12.5308251  65.9430361
  29.2342210  11.5645742  65.8181810  19.2839253  50.5276060  68.8065672
  19.4737959  51.4430475  69.0118647  18.8923573  50.5541754  67.9335260
  38.3792424  16.6143394  60.8359241  39.0049577  17.1331155  60.3303671
  38.8662744  16.3433623  61.6141272  58.2905984  65.8456758  28.8634904
  57.3538828  66.0136179  28.9663919  58.6153269  66.5964130  28.3663209
  14.3895699   9.0148561  23.1945832  14.8829199   8.7113778  22.4325212
  13.9437987   8.2321756  23.5185273  81.6748906  26.1585300  43.8976987
  81.7013241  27.1151607  43.8779290  81.6586233  25.9385698  44.8291333
  86.1420393  81.4961747  15.2769692  86.4233351  81.7400817  16.1587937
  85.3747750  82.0436791  15.1102956  55.8285857  68.2922725  35.2089055
  56.6096020  68.1491808  34.6743329  55.0973821  68.1389073  34.6105321
  28.0910708  18.7371032  14.7253068  28.9323164  18.2810705  14.7492536
  27.4939085  18.1163232  14.3078549   6.7380453  44.4113128   6.2371333
   5.8897330  44.1327636   6.5821107   6.5614725  44.6428172   5.3252872
  34.5825602  40.2267520  28.5884889  34.6390988  41.0842483  29.0100797
  34.2212416  39.6516101  29.2629560  17.8311135   9.4264047  32.4218972
  17.8521754   8.4924667  32.6305802  17.6775385   9.4574230  31.4776071
  56.7097736  80.4683975  10.9658082  56.0106182  81.1217383  10.9894784
  57.4798084  80.9294776  11.2985070  43.1510353  54.1985273  70.5025053
  42.6362801  54.1364479  69.6978903  44.0542793  54.0536022  70.2207661
  25.6009127   2.1215694  20.5460675  25.7454373   1.1788766  20.4643663
  25.3306128   2.2444599  21.4560445  69.5852531  11.8485896   6.2171729
  68.9497197  11.3410346   5.7124694  69.4317246  12.7556007   5.9526141
  21.5352893  39.3271518  54.7745562  20.5894709  39.3007803  54.6297693
  21.8488121  38.4774995  54.4646788  41.6777588  19.9106519   7.6413234
  41.2937428  19.9206035   8.5180600  40.9334589  19.7730892   7.0553811
   3.4985305   1.5238683   0.8829816   3.7322260   2.4387185   0.7259353
   4.2712356   1.0290782   0.6103213  10.5724264  20.5302446  27.8445180
  10.9273316  19.7035138  27.5177320   9.7870303  20.2783840  28.3302720
  59.3354631  80.4028848  33.8725884  59.1457844  80.6067995  34.7883828
  58.9770770  79.5247415  33.7435468  79.3769646  74.1181234  28.7316163
  79.4608403  75.0477437  28.5194810  78.7095356  74.0881494  29.4170888
  48.8470114  75.8260754  12.7026971  48.3248985  75.6603626  11.9177278
  49.7438646  75.6157116  12.4426301  77.9742909   7.8056733  49.9660237
  78.3620048   8.1486623  50.7711728  77.4990798   7.0225446  50.2437242
  76.2451328  32.0340793  60.1907380  75.7838751  32.8122585  60.5036481
  75.9100342  31.3218372  60.7353910  77.1397508  28.2055585   9.9817021
  77.0627022  27.3254220   9.6133931  76.3347865  28.6487071   9.7135861
  35.5591077  75.7949046  21.1940320  34.7193337  75.3750161  21.3803323
  36.2117696  75.1230148  21.3910802  10.6451584  21.4719646   6.8336757
  10.5799724  20.5848234   7.1871741  10.9272243  21.3485210   5.9273465
  56.7352367   4.8298968  68.0069876  56.9979763   5.3961028  68.7326670
  56.5513540   5.4331721  67.2869349  55.2435780  35.0417471  61.3069391
  54.9453688  34.9735069  62.2139359  56.0578394  35.5421925  61.3595438
   9.9804712  12.3508470   6.7291434   9.6102716  12.3031347   7.6105674
   9.2912961  12.0067041   6.1609586  50.7803560  29.4366805  53.9954408
  50.8624447  29.5049445  54.9466641  51.5567536  28.9478557  53.7224992
  24.9273182   4.7198789  12.1507581  25.4552103   4.3401162  11.4483769
  25.2854754   4.3387191  12.9524262  21.9524695  10.3714959  30.5928262
  21.7228152  10.5740850  31.4997132  21.3995386  10.9523694  30.0702508
  60.9880162  70.7519153   2.8378804  60.7206750  71.2895397   3.5833486
  60.9701562  69.8547224   3.1709846  11.3723684  63.1349043  21.5487416
  11.4675260  62.2533587  21.9093640  10.6587911  63.0588130  20.9152921
  75.8532095  46.1861515  66.7338467  75.3537273  46.5016890  65.9807301
  76.0673952  46.9775867  67.2278023  68.1676210  35.6907813  47.9605134
  67.9685093  34.8504846  47.5476201  67.7205957  36.3377158  47.4147351
  25.7649494   4.6677368  27.2179826  25.5242277   4.8415296  26.3079961
  25.2833296   5.3232686  27.7225240   1.9396950  16.7084758  26.9587930
   1.8919731  16.4164464  27.8691037   2.5836159  16.1271732  26.5542157
  14.5221592   9.1237418  30.8047994  13.8832499   9.8234670  30.6691392
  15.3695561   9.5385139  30.6431897  20.0003457  45.5758190  64.9028683
  20.4799557  44.7492933  64.9581671  20.6796122  46.2494850  64.9346256
  13.8585591  53.0282736  70.5612659  14.5317352  52.7025604  69.9637890
  14.3173265  53.1576586  71.3913441  16.5861536   3.9603870  10.9334882
  16.1406923   3.1216209  11.0529264  17.4886776   3.7239330  10.7195314
   2.9837013   7.1730106  33.3553823   3.0424882   6.2407653  33.1463655
   3.8886048   7.4833457  33.3225949  53.6920691   9.2325343  64.5169115
  52.8404355   9.6657313  64.5743322  54.2244339   9.6610678  65.1871204
  33.9545370  48.7109439  26.0164388  33.4247519  49.3454997  26.4990361
  34.3149306  48.1366603  26.6921170  12.4038435  31.7235439  31.3208135
  11.7982699  31.0131423  31.5325769  12.8507878  31.4287488  30.5273564
   3.6177231  15.6237285  24.9688657   4.1086055  15.0058954  25.5106671
   3.0491735  15.0719945  24.4316705  40.9408833   0.2454917   5.4945167
  40.4802347  -0.3234656   6.1112197  40.8280445   1.1265199   5.8512958
  78.7764192   8.7896125  13.5829766  78.4792066   8.6968629  12.6778253
  79.7314072   8.7584750  13.5258706  33.6053824  22.0745111  67.7443647
  34.1630650  22.8191137  67.5190020  32.7974153  22.2230649  67.2530890
  46.6766143  51.0295085   9.4454415  47.2022391  51.5571467  10.0467237
  47.3160947  50.6296662   8.8560136  51.5393019  33.3481983  20.6974729
  52.0324946  32.5881914  21.0063108  50.7349730  32.9795048  20.3322919
  73.3004416   0.8311241   3.0060847  73.5258234   1.7545240   3.1190761
  72.7419985   0.6273477   3.7563165   4.5928383  29.2820597  50.2373838
   4.8431098  29.4216275  49.3240833   5.4242134  29.2415857  50.7100439
  62.7242923  48.1157515  10.4889901  62.2285390  48.8820533  10.7775052
  63.3776093  48.4670172   9.8839982  48.3955002  36.9707632  56.7696095
  48.0774641  37.4955440  56.0349751  47.7907181  37.1684551  57.4847269
  27.0529846  78.4057788  19.0612824  26.2060553  78.8072208  18.8668950
  27.2165054  78.6239628  19.9788220  61.2706995  56.3960973  11.6865666
  61.7195702  56.8549768  12.3966249  61.3076067  57.0035843  10.9477647
  56.1622787  60.6580285  19.1792806  55.9458661  61.4101271  19.7304185
  56.6052509  60.0482611  19.7693570  51.7577887  63.7495068  18.1463559
  51.6663981  63.7023929  19.0980180  50.8583379  63.7847761  17.8208192
   2.6392937  35.6576777  67.2530413   3.1635213  34.8936820  67.0127726
   2.0274714  35.3305483  67.9125071  43.3015633  59.5291547  25.2897485
  42.9011453  58.7300543  24.9472077  44.0061617  59.7273973  24.6729215
   1.2870909  58.1986610  34.4724591   1.5675140  57.3646013  34.0957101
   0.9916521  57.9754905  35.3551515  38.5612917  79.3975953  10.0809510
  37.7529401  79.4734958   9.5739587  38.6306870  78.4645013  10.2828153
  21.8848443  21.3252974  67.7782249  22.5780749  21.6560197  68.3494377
  21.4839578  20.6127119  68.2759619   9.3949867   5.0498931  22.9970105
   8.7175013   5.3660600  22.3992856   8.9786292   5.0619047  23.8588365
  49.2463017  37.9404069   6.0400374  50.0044108  37.5626860   6.4859422
  48.8381327  38.5040260   6.6972764  22.8714252  10.3680420  56.6957569
  23.6927128  10.3553963  57.1872425  22.2047186  10.1221347  57.3370552
  34.1697192  17.0916140  41.3394785  34.4249773  16.3008189  41.8145752
  33.6805058  16.7689276  40.5826569  20.8191776  14.7237527  60.1054668
  21.4576864  14.2532670  59.5695782  20.4673004  14.0590644  60.6975889
  46.2692380  66.3217310  29.0482839  46.0180343  65.7198337  28.3476766
  45.6011248  67.0068435  29.0264733  10.7895614   1.2835185  13.8214238
  11.5454413   1.3389461  13.2367833  10.9520150   1.9520109  14.4869741
  22.3382926  30.4348373  69.4850254  21.7169142  30.3703499  70.2102566
  21.8383694  30.1606202  68.7161875  55.0241304  59.2658810  16.5507730
  54.5400262  59.7861532  15.9095319  55.7429028  59.8344771  16.8269952
  21.6134179  29.6321408   6.4003594  22.1263636  29.7992710   7.1910461
  22.1920842  29.1090897   5.8455689   7.7904057  69.6038484  64.7252178
   7.2274994  70.3582167  64.5511580   8.6112189  69.9845075  65.0376272
  55.0276566  65.8761886  43.0968698  54.3304158  65.6170181  42.4944432
  54.9531031  66.8287758  43.1538995   9.3993831  16.2810326  39.6790314
   8.6312115  16.5238464  39.1621327  10.1444983  16.5438044  39.1386747
  21.6096234   9.8701769  53.8092852  21.8391895   9.2677373  53.1017590
  22.1975327   9.6326274  54.5263386  15.5304648   0.5923765  12.0169194
  15.4746033  -0.2228673  11.5184243  15.7717110   0.3163879  12.9011472
  73.9686155   0.7273219  46.6968775  74.1477871   1.1603887  47.5314903
  74.8137617   0.7139763  46.2476778  56.4095044  61.7034630   6.7022069
  55.6702376  62.2628859   6.4639552  56.0253048  60.8340684   6.8152316
  75.2060318  58.5843734  18.1246408  74.3968726  58.5278908  17.6164182
  74.9134493  58.6962715  19.0291341  49.3895293  72.4054054  39.4670327
  49.0759063  73.1406573  38.9404614  48.6215258  71.8447808  39.5770391
  18.5437275  12.9293840  10.6966622  18.3299710  12.3384349  11.4186891
  19.2981554  12.5231521  10.2699979  33.0356432   3.6986415  26.6492017
  32.4288775   4.3273084  27.0401509  33.4709812   3.2891671  27.3968919
  71.8470526   0.4806154   5.3803952  72.0627166  -0.1976569   6.0204490
  71.1568964   0.9946792   5.7995065  32.3289753   3.3702342   6.1297591
  32.0944906   4.1327255   6.6587670  32.6665522   3.7395208   5.3137334
   8.9901162   5.8245962   3.5603889   8.2437469   5.3997199   3.1377204
   9.0221382   5.4375903   4.4352801  17.9120207  71.4204148  14.6937974
  18.4231580  70.6749705  14.3786939  17.4370361  71.0815314  15.4525979
  73.4462441   0.0501125  14.7609075  73.0220986   0.6931178  14.1926797
  74.0517855  -0.4162390  14.1846498   1.4856530   1.1649101   8.2542022
   2.2174145   1.4188068   7.6918014   0.7902671   1.7859380   8.0374177
  33.4954453  65.9271288  57.8566551  34.0999484  66.5440655  58.2692099
  32.9906607  66.4606190  57.2428036  80.7157326  49.1825048   9.2671140
  80.9324503  49.9314246   9.8224385  79.8968029  49.4312022   8.8384660
  12.7480650  60.9476363  44.2071867  12.6749372  61.8100535  44.6159887
  12.8146267  60.3387653  44.9427652  22.4011898  36.0550618  67.1781683
  21.5158367  36.3003969  67.4468470  22.9312134  36.8302608  67.3635674
  69.8736788   8.5259883  29.1322263  69.9939276   7.5779979  29.1877873
  70.6747557   8.8450878  28.7166818  65.2814389  75.5585579   6.6628392
  66.0319353  76.0500411   6.3290246  64.9314714  75.1054672   5.8957274
  57.5067807  61.2645797   0.6439431  57.4583435  60.3304461   0.4407628
  57.6370454  61.2971119   1.5916808  72.3600817  79.2077378  28.2792028
  72.5401783  78.5465459  28.9474996  71.5126706  78.9540080  27.9134877
  49.1024065  66.5967941  68.6109352  49.1701031  65.7302570  69.0118885
  48.7527370  66.4291191  67.7358055  17.5997425  61.0623721  22.0077546
  17.6102472  62.0130161  22.1190961  18.3729149  60.8750085  21.4754708
   7.1192743   5.4011886  33.3705266   7.2866989   5.3932206  32.4281152
   7.6999189   6.0816448  33.7111981  62.4028921  37.1412468  59.5624399
  62.3056507  36.2605143  59.9244928  63.3442020  37.3115706  59.5963669
  27.2601724  22.1367145  64.5144081  26.4871502  21.7070937  64.1482162
  27.9669213  21.9156718  63.9078760  35.0164414  81.3187865   2.5104507
  34.1254092  81.4773158   2.8221591  34.9265194  80.6020335   1.8824323
  24.2640770  65.3270439  19.5914586  25.0625754  65.5450038  19.1107019
  24.2346984  65.9617976  20.3073247  35.9621787  52.1335411  66.7837048
  35.6135249  52.4542856  65.9519625  35.8707237  51.1821890  66.7308140
  59.0875721  72.8465108  36.3900502  58.9974666  73.6133102  36.9558461
  58.3422351  72.9012541  35.7919629  70.4618884  11.9090192  17.4292405
  70.5104542  12.8506248  17.5943215  71.0675598  11.7616575  16.7028268
   2.9910398  31.8189669  39.2082739   3.7875772  32.0473862  39.6874237
   2.4076391  32.5656462  39.3436933  10.9782268   1.2818734   8.1698068
  11.2764240   1.8468730   8.8826116  11.4513804   0.4602783   8.3014710
  47.8299082   5.0867908  28.8686212  48.1364841   4.7613590  28.0222543
  48.6287237   5.2104919  29.3812783  62.3942787   8.8808029  12.3028787
  62.9571868   9.4396512  12.8386529  62.7913586   8.0120008  12.3639997
  58.1276656  64.9816779  31.9759210  58.1809020  64.0746430  32.2770532
  57.5160694  64.9542431  31.2400945  10.7874824  29.8276203  39.7179349
  10.7027341  29.4480913  40.5925782  11.4959217  30.4658811  39.8014100
  62.3692847  65.1250914  34.4135888  62.0132709  65.3367881  35.2765306
  63.2936573  65.3671578  34.4698842  42.2280014  74.6765903  27.3718007
  42.0455361  75.5303625  27.7642377  41.7065132  74.6655301  26.5691979
  80.2928448  40.7325697  69.4999886  80.2744865  40.4397297  68.5888672
  80.1054478  39.9438214  70.0088978  62.8184700  58.9125899  34.4638570
  62.2027755  59.0633611  35.1810868  63.3480168  59.7093026  34.4313081
   1.8475653  41.8860954  10.7180818   1.4505316  41.0153762  10.7391007
   2.6559521  41.7929517  11.2221368  58.6796570  78.0565790  22.3185762
  58.5418034  78.9530138  22.0125802  58.4829355  77.5107173  21.5572770
  81.0579396  79.3016318  49.7879251  81.1119986  78.4759215  49.3067678
  81.7298079  79.8551897  49.3899377   6.2295867  13.4802692   4.2644246
   6.4708997  13.0660598   5.0929339   6.5895153  14.3651359   4.3252643
  45.0371791  19.1351573   0.6508382  45.2281965  18.6348550   1.4442142
  45.7267237  18.8828580   0.0367482  20.9471251   2.8035323  52.2895845
  20.9799076   2.9508703  51.3443597  21.1051012   3.6666219  52.6721414
   6.3594605  35.7472293  35.6512197   5.4970409  36.1526315  35.7412942
   6.3917829  35.4527013  34.7410329  60.3544664  42.0489359  58.2576561
  60.6247234  41.2031126  58.6151123  59.5331049  42.2475576  58.7072611
   5.3211666   6.0400312   7.7438958   6.0316707   6.0464351   7.1025117
   4.5235921   5.9871881   7.2172864  66.0232306  10.1239479  50.8940411
  65.2452946   9.6390682  51.1696100  66.7492914   9.5195776  51.0483408
  48.2867396  42.4555809  11.1696752  48.2996655  43.4126920  11.1714013
  47.4588812  42.2279900  10.7464917  67.7063013  14.8032348   9.0890534
  67.9447294  14.6884267   8.1691630  68.4070421  15.3447454   9.4523175
  45.0112152  12.3848414  70.0799227  45.2694702  12.6891994  69.2099190
  44.3120480  11.7523289  69.9146223   0.2982260  18.0235355   5.7365783
  -0.6322764  18.0806081   5.9537061   0.4490734  18.7529723   5.1354201
  43.8372922  50.8932457  12.8626378  44.7641933  50.9088127  13.1010564
  43.8360548  50.7625047  11.9144090  44.4152641  13.4333301  59.0231514
  44.1957808  13.2768238  59.9416113  44.8837042  12.6441944  58.7510109
  11.4405453  58.9017725  61.2914944  11.5493083  59.8474646  61.3918591
  12.2446036  58.6126614  60.8600569  59.8503876  72.2296671   0.9050210
  59.3382049  71.6193465   0.3745397  60.1774383  71.6992859   1.6316302
  63.0119801  72.5813202  22.3305543  63.8989497  72.3966268  22.6394303
  63.1319166  73.2135705  21.6219647  73.2109404  55.8819250  22.6998647
  73.2117081  55.1854328  23.3564694  73.9110232  55.6402127  22.0934899
  77.4787474  69.9597935  10.4023011  77.8749800  69.4462065  11.1061891
  76.8681002  69.3558601   9.9796804  43.9500523  61.8906096   5.9168847
  44.1718471  61.9207243   6.8475469  44.7156430  62.2592119   5.4761632
  75.0827074  73.7906698  11.5297540  74.2956114  73.7812761  10.9851201
  74.7906113  73.4583739  12.3785718  54.2350057  11.8061941   9.7348722
  54.9506167  11.5592258  10.3206571  53.5370959  12.1004693  10.3201612
  47.4532604  12.5976861  50.2016592  48.0763817  12.0278668  50.6524992
  47.2242975  12.1192205  49.4048643  12.7755858  17.3259942   3.7813695
  12.2228552  17.9808490   4.2078527  12.1702267  16.8145864   3.2445033
  56.6710497  18.1073730  56.9716485  56.3250471  18.8665359  57.4408944
  57.2208716  17.6588600  57.6141198  63.4509611  10.3520513  67.0707178
  64.3584251  10.6493044  67.1369362  63.1812668  10.6010592  66.1866951
  78.2447911  65.5382255  37.0992692  77.7551604  65.8088449  37.8759702
  79.0948487  65.2572063  37.4378903  78.1114483  73.8445858   5.5149491
  77.8038788  74.5703892   4.9719508  78.3316851  73.1541923   4.8895820
  37.3665215  43.6427085  18.5915883  37.5374581  43.3832996  19.4969686
  36.4329792  43.4726112  18.4658845  35.9241945  52.3372785  24.8922284
  35.6559521  53.2315413  24.6811040  36.8807149  52.3615292  24.8655446
  16.6557432   6.0712259  22.8870614  16.7247511   5.5299537  23.6735089
  15.7357718   6.0054700  22.6310189  79.8905849  60.1501989  64.6217251
  79.7941303  61.0905170  64.7724867  79.3701744  59.9788427  63.8368416
  27.4366260   2.8969800  49.9572563  27.9204965   3.4890079  50.5331087
  27.0649648   2.2404572  50.5463886   1.0989033  52.8896761  52.2225285
   1.7951259  53.3628750  51.7669106   0.3368331  52.9747915  51.6496086
  74.8950172  19.5060174  14.8300298  74.1004611  20.0195043  14.6842797
  75.5533124  19.9196832  14.2716725  40.2563858  20.4713631  70.7313633
  40.5563688  19.7338510  71.2626982  39.8923087  20.0668383  69.9439383
  60.1257627  16.4358156  16.0907682  60.2666069  16.3216178  15.1508935
  59.7953989  17.3300950  16.1765321  62.4313307  61.1904124   1.1979278
  62.1431899  60.4697982   0.6376393  63.1813503  61.5667299   0.7373984
  57.1311092  28.4405279  61.2930584  57.4835634  27.5606775  61.1593723
  57.4692535  28.7066388  62.1480846  54.2249489  23.6285043  60.6858206
  54.7479105  22.8923130  61.0032511  53.6478901  23.2451868  60.0252867
  66.4314199  17.4769132   2.9066642  65.6539661  17.7135150   3.4124501
  67.1662623  17.7652757   3.4480413  21.2627817   0.1288240   0.0302680
  21.9447209  -0.2344878   0.5952485  20.6625057   0.5689781   0.6320699
  59.5291925  76.6512755  14.6353849  59.5697832  77.5602273  14.3380769
  58.9210081  76.2280063  14.0294297  56.6005993  72.0868329  14.9074204
  56.2181855  71.9816641  15.7785829  57.0696998  71.2672118  14.7512277
   7.6323677   0.7913368   1.2591012   8.0380632   1.6572873   1.3012059
   7.3037697   0.7241218   0.3625854  30.8003616   5.3771412  57.8062105
  31.1649561   4.9110976  57.0538092  30.5234933   6.2226301  57.4530458
  39.6674705  34.5870709  66.0481262  39.3722630  35.3360295  66.5659523
  39.9392724  33.9388609  66.6978788  67.1941519  45.0609530  20.3941186
  67.0374322  45.0455201  21.3382752  66.3807750  45.4016385  20.0218518
  74.7115994  73.7327126   7.9969676  74.3011666  73.5435942   8.8407739
  75.6469441  73.5990909   8.1502803   6.4585830  -0.1648219  29.1835340
   5.9260942  -0.1262171  28.3890565   6.0827852   0.5035894  29.7564538
  63.2641602  74.0450600  16.0312875  63.5483647  74.5626835  16.7846330
  63.4519935  74.6003369  15.2745755  67.0534516  63.5900477  12.0784505
  66.1769247  63.2710675  12.2933515  67.3915220  62.9546527  11.4474137
  72.1360088  10.2096240  10.1420911  72.1822716   9.3212621  10.4955133
  71.8662513  10.7492893  10.8852132  33.3836007  58.7717143  15.5529435
  33.6679456  57.8854147  15.3296693  34.0520865  59.0923289  16.1583932
  17.8914953   2.1162765   3.6163457  17.0729948   2.2885816   3.1509479
  17.6901509   1.3762204   4.1890700  58.3749485  78.6198596   2.1361955
  58.8358021  79.4267157   1.9063552  58.1281615  78.2368759   1.2943824
   2.1133901  24.2379825  12.9685529   1.4298774  24.4853704  13.5913213
   2.3906757  23.3664386  13.2509645  58.2756520  68.2390884  12.3740132
  59.1627407  68.4443191  12.6692899  58.2134700  68.6388615  11.5065225
   2.8639723   1.6472881  60.6177171   2.8152324   2.5812642  60.8215364
   1.9509102   1.3724582  60.5339273  63.0986929  81.0496501  22.5669225
  62.3658109  80.9543065  21.9586213  62.7322221  80.8211354  23.4211476
  47.7244784   4.8438232  13.3459886  47.6146628   5.4462831  14.0816529
  46.8374516   4.5435922  13.1478055  12.0777537   0.6894414   0.6696399
  12.7370764   0.3396480   1.2689479  11.9105126   1.5762727   0.9887012
  64.1846276  58.1713275  27.6250299  64.8837328  57.6737002  27.2009404
  63.8212490  58.7163476  26.9270738  40.0232435  12.1018903  33.4325631
  40.6030775  11.3930003  33.1541665  40.0676466  12.0861547  34.3886121
  32.6568627  30.3533459  63.7279844  32.7511930  29.4546294  64.0436506
  33.1991172  30.8736062  64.3208790  69.4088793  70.7368616  41.1671002
  68.7055183  70.6790284  40.5204423  69.7310782  71.6349772  41.0908635
  25.8979392   6.4896619  54.4155455  25.7323527   6.5068203  55.3581572
  25.7323813   5.5822504  54.1597605  11.5395142  14.7096841  20.2792295
  10.6304527  14.8937480  20.0426801  12.0318676  14.8582809  19.4719251
  79.6477223  14.7957198  17.7205499  80.2816416  14.1786115  18.0860074
  80.0797201  15.6476466  17.7824433  41.4558506  33.9979720  56.9651270
  40.6905603  34.5361018  57.1675587  41.1579180  33.0981278  57.0983553
  27.9273583  14.7134654  10.4373868  27.7995659  14.0916793  11.1538251
  28.3970572  15.4457156  10.8366616  13.5154225   0.5612914  16.6415914
  13.4195973   0.3404920  15.7151444  14.2749239   0.0556915  16.9309934
  30.8217789   6.5580194  37.3268159  30.3949000   5.7192771  37.1521314
  31.6940476   6.3217084  37.6423104  46.8234384  78.2829861  52.2846635
  47.1779979  78.8894752  52.9348023  47.5723589  77.7471403  52.0234712
  10.3504539  73.6136535   0.6511672  10.0453878  72.8363017   1.1190208
  10.5183769  74.2570690   1.3396771  24.6384884  21.7454927   6.9547351
  23.7062575  21.8956773   6.7978271  24.6617342  21.0507457   7.6127751
  70.3579712  63.6517648   9.9316533  70.7853175  63.9152054  10.7466348
  69.5476103  64.1607980   9.9107202  38.3817793  45.2022617   6.4081557
  38.9071871  45.7998626   6.9401725  37.4885250  45.3144615   6.7333396
  35.7486941   9.6712940  10.2752145  36.0408760  10.3901880  10.8356221
  35.9015013   8.8835113  10.7970269  16.5843655  10.0766389   4.1844495
  15.7808472  10.4538934   4.5425876  17.0038487   9.6520059   4.9327500
  26.2940575  16.5524213   3.3198388  26.8905951  17.1663587   3.7481578
  26.0096718  17.0080726   2.5275405  19.0008570   8.7634198  18.9784272
  18.5486389   8.6008899  19.8062642  18.5717179   8.1800477  18.3525308
  14.3102051   3.0791824  31.6798337  14.1194941   2.1973436  31.3601239
  15.2038218   3.0232017  32.0182832  66.1961401  34.9662750  22.9718526
  65.2847774  34.7444455  23.1627400  66.3786048  35.7259862  23.5248216
  81.4864684  73.5781125  19.4100221  80.8429337  73.4102706  20.0984414
  81.9770241  72.7595118  19.3359883  84.8579336   9.6567886  21.1186536
  84.3121362  10.2561157  21.6277059  85.0467706   8.9359300  21.7194303
  12.9366661  15.1189153  12.5209268  13.0258299  15.9079139  13.0554994
  13.8225056  14.7591321  12.4753316  77.9519106  14.5217149  30.4441960
  77.6603294  13.6981647  30.8353265  78.3613420  14.9981420  31.1664327
  53.1847406  71.7498950  13.0737718  53.9950347  71.2630729  13.2242997
  52.7162791  71.2373689  12.4149163  28.6820817  26.6342187  67.6012278
  29.0175509  26.0738897  66.9014263  28.0113912  27.1702862  67.1780968
  73.7529516  60.0724649  64.6805286  73.9208794  60.3458309  63.7786913
  74.1941547  59.2267895  64.7605562  29.4727325  39.9969578  64.7668314
  30.0144148  40.1165247  63.9867544  28.5870695  39.8707461  64.4263792
  22.7350117  24.0398662  13.2714875  22.1322752  24.7281473  12.9900392
  22.1826483  23.4153383  13.7416871  55.9856510  34.7145104  66.7398405
  56.7177296  34.7548342  67.3552036  55.3151894  34.2078495  67.1981049
  70.2766943  78.2770590  12.9818185  69.5185233  78.0021623  13.4974225
  70.5719805  77.4779800  12.5453504  29.7531796  25.5315232  65.2433109
  28.8868237  25.6125188  64.8444414  30.3174663  25.2302122  64.5312548
  18.0723263  17.1908109   4.6525701  17.3431421  17.6154821   4.2007049
  18.1656100  16.3449113   4.2144092  64.3258524  69.5377663  49.6048387
  63.4397436  69.6462039  49.2594655  64.2882920  68.7256006  50.1100190
  58.2694174  18.3231466   3.4726794  57.4674059  17.8157680   3.5975011
  57.9845453  19.2359464   3.5159810  30.0920650  43.5574455  11.2249406
  29.7695852  42.6660339  11.3576921  29.7043035  43.8311154  10.3936894
  59.2068338   2.6792467  66.6163492  59.1197634   2.9418686  67.5326872
  59.1360664   1.7248109  66.6329718  14.1948366   9.2028141  57.5000381
  13.9592183   8.4582126  56.9466114  15.1479948   9.2591929  57.4326420
  73.8302755  57.8837776  60.4080153  73.6098576  56.9527912  60.3777456
  74.6326160  57.9231501  60.9285259  46.4747359  27.0298068  19.1096814
  47.3561503  27.2151010  19.4337209  46.1486937  27.8765695  18.8048490
  77.3657513  10.8063447  51.2624598  76.5269184  10.9047818  51.7129087
  77.1735287  11.0187149  50.3491259  86.2778998  70.5467109   8.1289371
  85.5778170  71.1168484   7.8110297  85.8728934  69.6816043   8.1904872
  72.1279467  33.0453269  34.8405679  71.9999743  33.9470784  35.1350148
  71.9033278  32.5105731  35.6020196  49.7345424  60.5743185  23.1115659
  49.0365672  60.8063272  22.4990018  49.8528839  59.6317664  22.9939969
  63.5114789  75.7115511  13.8344415  63.0498743  76.0947779  13.0885919
  64.3370748  75.3947047  13.4680589   1.1965252   2.1410339   2.6973088
   1.6962815   2.7245538   3.2682546   1.5042902   2.3479764   1.8148740
   4.9024225  72.2129778  12.7436193   5.1341844  71.8679861  11.8813642
   5.0652624  71.4856891  13.3442624  39.4006789  36.9740135   5.5750020
  40.2363980  36.8288664   5.1314481  39.2965091  37.9254834   5.5842479
   4.7050286  18.4101646  16.5797265   5.2030731  18.2535426  15.7774385
   4.9163152  17.6649825  17.1421178   0.8104564   1.1206548  17.7683957
   1.6975929   0.8952491  18.0484136   0.6967760   0.6585805  16.9378503
  62.8614498  75.8602337  10.8384927  63.7438512  75.7037190  10.5021890
  62.4748564  76.4783124  10.2182134  46.8484068  29.7895360  66.5855646
  46.1767340  30.3389049  66.1814785  47.6727247  30.2332878  66.3860321
  68.9071703  27.3707771  63.4627676  68.5291243  26.6202068  63.0045557
  68.2427692  28.0558801  63.3890390  41.9507742  73.6044554   8.1199201
  41.8294919  74.5038155   7.8154977  41.0872734  73.2018594   8.0276473
  18.1121184  13.1793659  38.7992509  18.8049723  13.8194768  38.9618619
  17.6399018  13.5247867  38.0416711  68.6186004  67.7356414  40.5488236
  69.3266201  68.3742908  40.4647477  67.9442764  68.0445794  39.9437841
  18.6848856  76.7713527  17.0965703  17.7603126  76.5753797  17.2482045
  19.0725303  75.9288887  16.8594773  61.0255552  52.0406643   0.9992106
  60.2125550  51.6497997   0.6790765  61.2004447  52.7602187   0.3926738
  73.5473013  70.8702759  46.1360772  73.5538149  70.3598670  46.9458135
  73.7072564  71.7705611  46.4191468  60.2003479  69.0713314  14.1855367
  60.6193066  69.4080666  14.9775727  60.8509040  69.2032031  13.4958871
  78.5859633  59.7233919   9.6484693  77.8409958  59.4802097  10.1981195
  78.2003498  60.2268187   8.9314635  64.2718363  81.3701848  55.6394609
  64.8818136  80.7574872  56.0502656  64.7799659  81.7814235  54.9402268
  17.6938654   9.1267650  11.6193994  17.6443411   8.3840339  11.0176309
  18.6293293   9.2331331  11.7921002  11.5573479  25.7184522  18.7176545
  11.9986845  25.2873771  17.9857953  12.2680403  26.0866802  19.2425950
  86.1325693  45.9064282  24.9697431  85.8260393  45.4319528  25.7424958
  86.7719460  45.3193919  24.5662435  62.5566054  59.5148269  23.1521924
  61.8065763  60.0985566  23.2659848  63.2077337  60.0476817  22.6957543
  19.0861441  19.4546239  42.7689298  20.0139261  19.6115033  42.5933202
  18.6284949  20.1091306  42.2412808  33.0232025  20.8516614   5.3080352
  32.7896286  20.0153034   5.7107480  33.8191487  21.1235158   5.7649739
  16.9957615  54.6333245  31.4431413  16.9907308  53.8622872  30.8759530
  16.1152912  54.9990479  31.3579972  65.8731890  66.7859391  27.5016339
  65.1839018  66.2461046  27.8885396  66.5725565  66.1670808  27.2915681
  84.4897283  10.7038760  18.5737896  84.4428959  10.5926418  19.5233500
  85.0762149  11.4499402  18.4486723   4.6614325  59.3388748  61.2464333
   4.5398456  60.2235174  60.9016895   4.8648733  58.8076687  60.4765844
  75.2077198  23.5456848  53.9277220  75.0233984  22.6147795  53.8025236
  75.0797987  23.6912203  54.8651028   6.2824285  57.8290462  59.1239595
   7.0205897  57.5178719  59.6479034   6.2715340  57.2529697  58.3595991
  80.2979231  79.4933442   7.9757770  80.3389311  78.6194638   8.3642133
  80.9909344  79.4947223   7.3154958  67.1825171  29.4982028  62.9794312
  66.2362814  29.4537210  62.8419685  67.5272608  29.8521757  62.1596241
   2.0166804   1.9099443  51.4855130   1.5979458   2.5804584  50.9457906
   2.0670057   2.3013942  52.3575528   1.8181206  11.1620347  17.3188432
   1.3183500  10.6559913  17.9594548   1.2020303  11.3171928  16.6028817
  65.3045941  56.7420963  25.3383668  65.9668875  56.0531322  25.3924592
  65.7468152  57.4650232  24.8933347  68.8602257  57.3766641  20.6406720
  69.4225073  57.1545032  21.3827737  68.3462048  58.1245545  20.9451039
  21.9964005   0.5983322  15.5901464  22.7753187   0.1059835  15.8492024
  22.3040606   1.1889140  14.9025472  78.6402846  72.2881607  17.5700410
  78.7654782  72.3643903  16.6241296  79.1880942  71.5458087  17.8250917
   5.2336098  14.3115394  14.9160703   4.2825581  14.2069070  14.8880418
   5.5628611  13.6817043  14.2748673  38.4784526  27.9263345  19.0289243
  38.0266238  27.4601606  19.7323163  37.9411000  28.7028686  18.8724645
  33.1411101  17.5210969   0.5457576  33.6578919  17.5970905  -0.2563588
  33.5614802  18.1234805   1.1594804  25.6267191  10.3422944  26.9556935
  26.0638977  11.1881702  26.8577512  25.4718233  10.2602737  27.8967126
  37.9699208  56.7245166   2.2892936  37.9328228  56.2257926   3.1054624
  37.1465660  57.2122733   2.2690185  77.5957018  29.8335886  69.4962168
  77.7101272  29.9265218  70.4419994  78.3777266  29.3645120  69.2052889
   7.7518297  66.6061667   0.2610381   7.0510174  66.6573767   0.9110101
   8.5521961  66.5165309   0.7783444  50.8816576  37.9761887  60.9759188
  50.6795406  37.7653384  60.0643682  51.7361832  38.4058714  60.9385586
  81.1398125  42.2264764  32.1075090  80.7144785  41.6327980  31.4887460
  80.5498505  42.2500691  32.8609212  16.1024845  42.3393488  65.2400875
  15.6977999  42.5108576  64.3897676  16.8654299  42.9169416  65.2631044
  69.7048998  45.0851504  30.1793702  70.1118231  45.4800675  30.9505208
  70.3564740  44.4623429  29.8572000  35.9820998  81.1218289   5.7667049
  36.0170746  81.9750575   5.3342660  36.0988760  80.4891375   5.0579770
   5.2094270  17.0619361   9.9032720   5.2461792  17.9919021  10.1269944
   5.7765962  16.9773691   9.1368564  29.6596791  23.2637851  14.5004685
  29.6607662  23.8818328  15.2313932  30.3815056  23.5521858  13.9418824
  23.1763626  24.6934764  16.5917714  23.9218928  24.0994518  16.5048345
  22.4268223  24.1837184  16.2842591  60.5831337  68.4571981  67.7358437
  60.7787180  69.3698168  67.9482269  60.0284004  68.5060501  66.9573116
  16.0126377  16.7646234  27.4605210  16.7171456  16.5465562  28.0707200
  16.4604546  17.1367805  26.7007859  13.5145355  50.5488304  26.7369969
  14.2057205  51.1276344  27.0586904  12.7029920  50.9466914  27.0521672
  17.5344254  18.2449882  25.3634294  17.3887516  18.9979188  24.7906240
  18.4694601  18.2754724  25.5659421  71.2516619  10.1300924  59.5867951
  70.6010748   9.4903962  59.2973836  71.6834761   9.7122209  60.3318818
  84.3002558  16.6714923  17.2965272  84.6074582  15.8786838  17.7361997
  83.4296633  16.8265359  17.6629479  41.8111695  37.4558275   4.2450221
  42.7225769  37.1674840   4.1957839  41.8112219  38.3210151   3.8355287
  42.3143768  72.9558516  56.7010450  42.7186728  73.7691116  57.0033455
  42.6176882  72.8586912  55.7983875  81.9568039  39.0836017  19.5298513
  82.5315548  38.6842983  18.8768132  81.1976195  38.5018937  19.5684274
  10.2248694   7.7049987   1.7005141   9.6727325   7.0465820   2.1222528
  11.0991169   7.5488155   2.0576318  62.4493051  67.0287780   3.9357884
  61.5485263  66.7293385   3.8126405  62.3618484  67.8864650   4.3516667
  78.5914755  79.7469596  21.1812146  78.6994791  80.2090958  22.0124848
  77.9763842  79.0404657  21.3781102   1.6297079  65.0433592   8.3194287
   1.3877941  64.4223026   9.0064462   2.4565721  65.4214743   8.6186965
  47.4863195  36.8937683  65.6091833  46.9592905  37.2400451  64.8890686
  47.2774458  37.4595499  66.3524818  40.1053333  61.1319971  68.0052185
  39.4305348  61.3559532  67.3643398  40.7918453  61.7848110  67.8682232
  15.0767924  37.8749196   6.6089280  14.5635630  37.0756261   6.7270883
  15.4260994  37.8061073   5.7203992   5.8075262  19.0129249  34.1749127
   5.4276348  19.6426885  33.5622914   5.1377155  18.9010637  34.8495038
  60.7411480  39.4518971  58.7965393  61.4944410  38.9103961  59.0322399
  60.0455427  39.1651702  59.3882704  74.2317725  54.1833536  14.5482286
  74.8057413  54.0167049  15.2958997  73.4716416  54.6273807  14.9241002
  36.2051868  61.5543985  64.0654278  35.4034901  61.2571764  63.6351109
  36.8241262  61.6939354  63.3487177  55.9639812  67.8854994  37.7208455
  55.0703645  68.0678920  38.0113824  55.9293771  67.9759315  36.7685540
  15.0435282   6.6994922  19.5532640  14.9320341   7.2182958  18.7566121
  14.1747404   6.6875856  19.9548753  42.0215702  61.4081860  64.2175484
  41.7171860  60.5123234  64.3624878  42.6371431  61.3369131  63.4880114
  73.8654709  75.4005575  67.9642868  74.3020296  75.5219078  67.1211290
  73.6870241  74.4611835  68.0086040  50.3456927  44.2184881  13.4402593
  49.9100614  43.8996795  12.6498063  49.6303916  44.4155974  14.0450128
  54.2888403  75.2392483  63.1027222  54.3147945  76.1880589  62.9789829
  54.9529743  74.9011087  62.5020361  51.7338587   3.8895051   3.4816869
  51.4972998   3.6446159   4.3762811  50.9994770   4.4225805   3.1771453
  29.2763067  33.0811136  11.2470468  29.0698982  32.6434009  12.0729001
  30.1737190  33.3944337  11.3597997   4.9816872   9.7425144  35.2936204
   5.2331377   9.2491357  34.5128663   4.3967296   9.1539781  35.7707818
  79.3757630  70.7059339  20.7269986  78.5586405  70.9495167  21.1619790
  80.0482130  71.2177543  21.1765416  58.7454462  13.7073922  39.5231819
  58.3080006  13.4617388  40.3383684  59.0170717  12.8748238  39.1368127
  68.0224014  66.3220791   3.8039811  68.5494995  65.9291200   4.4996722
  68.4234000  66.0083679   2.9934152  11.9624258  26.1459844  25.4588349
  11.2552429  26.3567560  24.8491605  11.9509531  25.1906793  25.5179246
  47.6945854  10.8988445  29.0070279  46.7644335  11.1247794  29.0089067
  48.0113007  11.1809032  29.8651441  47.3990465  64.2409580  11.2414105
  47.0882393  63.4148376  11.6117414  47.2712160  64.1435687  10.2977975
  46.8764067  58.2556152  69.4146872  47.3784590  57.9047251  70.1502466
  46.5665531  57.4812126  68.9450788   8.5360147   6.5800016  20.8369382
   8.0259014   7.3692386  20.6549581   9.0596915   6.4458434  20.0470098
  13.3217932   6.3914888  23.9713891  12.3926808   6.4638679  24.1898950
  13.7619950   6.3183610  24.8182138   8.1565691  43.7662817   8.5779746
   7.4548174  43.7168387   9.2270787   7.7034212  43.8945720   7.7446492
  17.0762920  53.9066172  69.1807079  16.6848505  53.5079765  68.4034777
  16.7396379  54.8026466  69.1856575  53.6007423   3.6447160  22.1889813
  53.7686906   4.2957847  22.8702577  53.7014238   4.1259830  21.3677247
  85.5319453  45.4928748  14.2373212  84.9068309  44.7809093  14.3735631
  86.3693810  45.1363151  14.5336278  67.9068184  78.6736802   2.6532252
  67.7440405  79.4689134   2.1459325  68.7005139  78.8662819   3.1524022
  22.1817709  22.3978441   9.8416265  22.8532673  23.0795972   9.8184903
  21.4608647  22.7883880  10.3356011  26.5656067  22.3967283  30.6343301
  27.4059845  22.5636546  31.0610993  26.1020161  21.8155925  31.2373193
  34.0033842  35.9222572  22.9736741  34.2527176  35.5220954  23.8067086
  33.0547215  36.0336320  23.0359109  11.6550614  17.6689594  16.3053353
  12.0061232  18.0770032  17.0968469  12.2360254  17.9658716  15.6049378
  57.6776815   5.9540785  45.2606392  58.5299254   6.3862456  45.2046013
  57.4919653   5.6736220  44.3644857  13.3241440  15.0958745  24.0087731
  12.4551035  15.4629438  24.1708310  13.7138869  15.0099103  24.8788007
   2.0890737  36.3681078  46.5596676   1.8309331  36.4232659  47.4797487
   1.4788747  35.7376099  46.1770916  13.3581282  33.7177102  28.3170350
  12.5831438  33.3944242  27.8575547  13.3504749  33.2546108  29.1547235
  55.7157446   7.3826377   5.5720599  55.4761339   6.6496150   5.0050529
  56.4333082   7.0458143   6.1086066  19.9476935  17.6640098   6.5506681
  19.4383646  17.3577325   5.8003266  20.7737089  17.1839874   6.4914496
  75.0318766  65.9050910  14.4224198  75.9067822  66.1531417  14.7211583
  75.1883746  65.3403251  13.6656030  15.0025345  46.0940902  21.3618691
  14.4432856  46.5111701  20.7064946  15.8736063  46.0889118  20.9650834
  61.5708567  14.1160457   1.9785007  61.0864855  14.7137992   2.5479777
  61.7196585  14.6170680   1.1765845  24.2010332  56.2874583  39.4421800
  24.2839266  55.6317762  38.7497647  23.7433267  57.0181898  39.0265210
  77.9287625  72.6936988  11.2865003  77.6731301  71.8495563  10.9146054
  77.1982956  73.2771019  11.0808404  80.7983685  28.3840489  65.8294964
  80.0618267  27.7761054  65.8939409  80.9375095  28.4928536  64.8887348
  28.0580401  22.8102899  68.9711905  28.9427161  22.9961777  69.2858744
  27.8031492  22.0107102  69.4315529  20.7110287  14.9316327  13.8043531
  20.9236742  15.2685754  14.6746858  21.2038923  15.4909770  13.2039674
  60.9482456   4.6299971  63.0369806  60.3610206   3.9197958  63.2958412
  61.7510891   4.4697608  63.5329628  13.4398676  27.4044816  19.9808343
  13.9364601  28.0290382  19.4521077  14.0965725  26.7856614  20.3002580
   7.4522949  22.8469198  10.5248960   7.5819541  23.7844198  10.6681188
   6.6511728  22.7927749  10.0038274  14.8506558  66.1050463  63.9840317
  15.0003695  66.3683891  63.0760288  15.6080651  66.4454699  64.4601345
  53.6865902   9.0144408  59.6940947  53.9666033   8.6955744  60.5520821
  54.3763685   9.6222603  59.4276619  68.7547541  34.8704068  22.0153554
  68.7865604  34.7506301  22.9644998  67.8311390  35.0351493  21.8255551
  36.0218168  15.6657951   9.2923673  36.9508244  15.8878248   9.2300923
  35.7131792  15.6704728   8.3863004  12.4646545  61.2710265   2.4952062
  13.2141615  61.8632368   2.5565370  12.5902963  60.6505386   3.2131465
  33.7272143  24.3935823  60.1747704  33.1447268  23.6377788  60.2502871
  34.5195031  24.1332531  60.6445980  84.0011597   2.4386279  12.4944432
  83.3169699   3.0420081  12.2045358  83.7769485   1.6053693  12.0801480
  24.9469709  65.4734039  64.8574591  24.2483234  66.0166121  64.4927025
  25.4336238  66.0636139  65.4328251  45.3350903  12.8661983   5.5407222
  44.4202067  12.9289357   5.8151086  45.3034521  12.3970907   4.7069533
  68.9148856   7.7964629  45.6683683  69.0148020   8.5141982  46.2937641
  69.2140150   8.1611575  44.8354530  41.6342379  23.3768098  28.4331639
  40.9930111  23.3773677  27.7224858  41.4121748  24.1467492  28.9567216
  50.8743168  19.0944164  16.6838868  50.7544733  19.8811500  17.2157891
  51.6119124  19.3029802  16.1105760  33.2295465  15.2685821  51.3571882
  32.9002357  16.0946536  51.7112970  34.1272974  15.4640210  51.0887194
  35.5064417  35.1374976   1.6130717  35.3740479  34.3273942   2.1054490
  34.8281409  35.1209800   0.9378942  50.6359698  25.0091951  19.3012746
  50.3430916  25.6268041  19.9713548  50.7167174  25.5377118  18.5073026
  50.2279520  68.5428790  23.4481843  50.0831294  67.6001290  23.3677037
  51.1258769  68.6206058  23.7705548  32.7918768  66.3668013  67.1288347
  32.9259300  67.3145628  67.1320486  33.4251475  66.0331774  67.7643585
  59.2233492  12.8271119  13.7410005  59.6373392  12.5624196  14.5624574
  59.9454809  13.1500070  13.2020219  40.9830856  26.9261551  63.8750648
  41.7967606  26.9082665  64.3789005  40.6176519  27.7951407  64.0410519
  21.8152310  30.7798831   1.5315087  21.1268641  31.0228746   0.9123691
  21.5036322  29.9668567   1.9291528  42.5208330  47.6710510  67.7467060
  41.9506407  47.1903324  68.3467197  42.5799417  48.5487700  68.1239986
  83.8875485  75.6075982   0.3737958  83.5868788  74.7472361   0.6663878
  84.8104287  75.4773787   0.1556905  36.9117404  37.4971025   7.4738868
  37.1014477  36.9108217   8.2063563  37.7592207  37.6329963   7.0501645
   7.9030706  27.6444166  16.8598111   8.4333135  28.3488719  17.2323926
   7.5486113  28.0135887  16.0509236  52.2463322  43.5959530  70.7735109
  51.8383789  42.8547430  70.3258324  51.5598536  44.2621183  70.8082294
  86.4991856  77.1106294  31.1475785  86.4146614  78.0640367  31.1373838
  87.2009421  76.9257025  30.5234178  14.9904943  80.7118276  35.9077867
  14.5241953  81.2398557  36.5558465  15.1314617  81.3064030  35.1710065
  73.4221125  67.1062851  56.9705963  73.3565950  66.6811275  57.8256845
  73.5815001  66.3884497  56.3577795  69.4852114  51.0879818  19.3298467
  69.7976494  51.9498066  19.0544065  70.1969719  50.4905520  19.1002782
  81.1785555  70.1238016   9.6373017  80.6177950  69.6580795  10.2576860
  82.0534468  69.7671036   9.7907861  73.4111977  67.7768043  15.3907617
  74.3172837  67.5069956  15.2409299  72.9465247  67.5056962  14.5990499
  82.8007412  76.7511109  11.7250951  82.3490906  77.3451785  12.3245366
  82.4231196  75.8912567  11.9102605  81.6476918  79.2251686  35.2478440
  82.1925164  79.9362139  34.9104817  81.2428570  79.5869569  36.0361608
  82.6167823  42.3697154   4.7632297  83.0889583  43.2008998   4.8123487
  82.6324082  42.1399181   3.8341554  42.1731592  25.5460994  19.5981153
  43.0178715  25.1076763  19.7004731  41.7858483  25.5270974  20.4732450
   3.2229902  28.3505170  28.8207181   2.4904777  28.7422578  29.2963155
   4.0024139  28.7302224  29.2263730  34.8411442  11.2067239   7.2909720
  34.1427304  10.6432979   7.6241382  35.3573443  11.4315002   8.0650838
  11.2557818  20.7753818   4.1426738  11.0933663  19.8528402   4.3395694
  10.8315946  20.9179847   3.2965262  74.0554095  73.9351896  20.6840165
  74.0524054  73.1052069  20.2072080  73.8842106  73.6897067  21.5932305
   5.0658013  21.3497131   5.7374080   5.9689928  21.6364639   5.8725007
   4.9431730  21.3834016   4.7886975  22.6169134  25.8336608  22.3456033
  21.7022921  25.7168262  22.6025899  22.6375271  25.5957239  21.4186795
  29.1473031  70.2040005  55.5630970  29.6146131  70.2658987  54.7300148
  28.8618565  69.2915773  55.6103802   8.4388953  77.4412394  66.1252117
   7.6350349  76.9269848  66.0504675   8.3650535  77.8792381  66.9731140
  28.7622381   3.2813661  11.0065015  29.1245056   2.6596038  11.6376908
  28.3574082   2.7324502  10.3349145  54.8721600  75.0083402  15.3293260
  55.1047564  74.0954641  15.4990037  54.8051048  75.0652365  14.3761762
  60.4463140  22.6703756  55.4178365  60.6029323  21.7284744  55.4851182
  60.4231293  22.8426759  54.4765504  42.9377199  22.2148101  13.1582768
  43.2182957  22.3869769  14.0570863  42.0153643  21.9715326  13.2377275
   5.3338267  16.1409681  17.6381906   6.1969138  16.2957923  17.2543366
   5.4315878  15.3227632  18.1252416   7.0742918  22.6340501  17.4992402
   6.3067771  23.0608527  17.8800233   7.6774598  22.5255649  18.2345326
   1.3754679  16.5028493  30.0629743   1.6471316  15.5924241  30.1793988
   1.5690280  16.9197910  30.9025701  -0.0059699  27.1234815  17.7079709
  -0.7462691  26.5201108  17.7722581   0.7654716  26.5697782  17.8284677
  79.1212726  23.8224857  27.6478799  78.5885144  23.0407064  27.7935632
  78.6441184  24.5236127  28.0917008  84.0039158  72.0884446   8.0249818
  83.9975071  72.2277025   8.9719756  83.1092930  72.2860197   7.7477820
  86.6654850   9.6972768  37.0994504  87.2175074   9.2944829  36.4291795
  86.3184190  10.4855935  36.6819127  74.3744564  23.6871243  69.5375347
  74.8417425  22.8606939  69.4155169  74.4800997  24.1472101  68.7048340
   2.9543472  18.5754506  13.3088716   2.6052834  19.0191333  14.0818723
   3.8239003  18.2775085  13.5759576  79.0642405  28.3637254  50.4537137
  78.3038092  27.8027026  50.3012975  78.6963559  29.1773145  50.7986291
  16.6919543  10.6776779   7.2468646  17.0822788   9.8520820   6.9600328
  15.8695532  10.4215162   7.6643260  72.8134632  64.5015363  15.1091416
  73.6064482  64.9997047  14.9110730  72.0966721  65.0718550  14.8313268
  25.4553223  68.6343002  63.8637209  25.7093167  67.8038025  63.4612370
  25.2287459  69.1991138  63.1248856   0.5723453  70.2450994  29.3157991
   1.0194469  70.3325251  30.1576360   0.7886387  71.0499624  28.8450082
  72.7271271  51.6362047  23.8855147  73.2027197  52.1844530  24.5095897
  72.4192858  50.8935976  24.4051290  41.9480826  28.6784665  21.1415227
  41.8476750  29.5491903  21.5262158  41.6152073  28.7711637  20.2488645
  12.1518589  28.4744136  22.0006497  12.3377491  27.9518573  21.2205060
  11.7389132  27.8601329  22.6075776  57.1753168  69.4541788  69.5424461
  57.4338484  69.4271374  70.4636765  56.6423368  68.6685658  69.4200945
  80.6869579   4.2485158  18.2376226  80.5868722   5.1991050  18.1866200
  79.8102809   3.9262693  18.4469731  26.7487074   9.1235511  11.8322309
  25.9018828   9.2212121  12.2676404  27.3662354   9.5788352  12.4045976
  57.4655390  49.1829777  66.2869406  58.1952953  49.5576429  66.7802095
  57.2066641  49.8755932  65.6790733  44.1424872  19.6150653  18.9355405
  44.0926148  20.1215141  19.7462495  44.9990154  19.1892640  18.9714368
  50.2884890  66.9224231   7.1706660  51.1777044  66.8134849   7.5077994
  50.1596142  67.8702991   7.1368440  23.6936260  29.3295591  27.7752240
  24.3264366  29.9757020  27.4617227  23.9052798  28.5320489  27.2900327
  19.1149164   0.5134647  47.2839387  18.2662893   0.9123103  47.4762471
  19.5907093   1.1860053  46.7965539  67.3433161  62.3364261  26.4876588
  66.3987804  62.1932820  26.4277108  67.6547051  62.2610811  25.5856736
  77.7048040  27.2899978  22.8619321  78.6403251  27.3008363  23.0642064
  77.2760010  27.4460189  23.7033685  20.4602648  14.1346423  37.0274480
  19.7962357  14.8079889  36.8794473  21.1046816  14.2772834  36.3341840
  23.4465147  28.2679908  23.2716210  24.2027594  28.5102432  22.7371724
  23.1522728  27.4337070  22.9060872  12.8350903  15.3885763  37.3809274
  13.0685307  15.0715797  38.2534249  12.3920561  14.6476142  36.9674905
  23.3656335  59.5834112  66.0972071  23.7023997  58.8940334  66.6695499
  23.5309625  60.3950405  66.5769577  78.2373190  48.6199379  64.9879408
  77.7827978  48.1571627  64.2840338  78.0911970  49.5467854  64.7986460
  24.2323900  12.3377292   0.5344041  24.7424008  13.0010192   0.0694640
  23.5454680  12.8330152   0.9805663  42.5486029  76.8552259  16.6930898
  41.5957344  76.8441085  16.6028150  42.7748037  77.7845553  16.7306455
  26.2823582  70.1314878  52.2585821  26.9365358  70.5852365  51.7271757
  26.0821605  70.7438993  52.9664707  83.0899382   0.9384267   3.0569203
  83.9994884   0.7342880   3.2743486  82.8609181   0.3108947   2.3713620
  28.3230950  36.5706031   2.8320630  28.4671761  37.4848525   3.0762418
  27.8530384  36.6162841   1.9994863  64.3453979  63.6918640  66.6426659
  63.6213446  63.1799078  66.2822771  64.2639112  63.5875845  67.5906706
   4.4330121  10.4132287  24.0663465   3.6111642  10.5813711  23.6053403
   4.9169470   9.8252122  23.4864457  83.0317021  15.9216345  53.0840015
  82.1307707  15.5985201  53.0963659  83.5219527  15.2462710  52.6151991
  32.6716543  10.2237261  67.6758003  32.0261694  10.2034033  66.9692802
  33.5159040  10.2739562  67.2275305   6.1128427  41.9528453  13.6516889
   5.5425502  42.2348564  14.3668588   6.7641998  42.6501052  13.5755761
  22.6509739  12.6446979  12.8054364  22.1812512  13.3453910  12.3530896
  22.0024182  11.9480054  12.9065545  33.4207560  27.2893684  36.7941697
  32.5908591  27.6217859  36.4521153  33.3089853  27.2988145  37.7447827
  74.4542551  66.2254337   2.8753646  75.2647448  66.2654356   3.3830436
  73.7927199  65.9340957   3.5028394  40.2248694  45.1823680  29.1440137
  40.4802490  44.2612331  29.0937074  41.0522295  45.6559150  29.2303880
  52.0202017  66.8432570  68.8428164  51.0789776  66.7211437  68.7186718
  52.3079062  67.3042440  68.0548096  11.0251166  22.3199909  47.1753915
  11.7254282  21.7513196  47.4953969  10.2326108  21.9817607  47.5922425
  79.3937159  76.8073872  29.0767701  79.1154576  77.3410682  28.3324655
  78.6662102  76.8626336  29.6963819  27.0883156  10.3571765  40.6574090
  27.8499676   9.7775667  40.6444390  27.2833754  10.9936492  41.3452180
  31.6372515  26.4248245   5.2702697  31.2970663  25.6564109   4.8119577
  30.9074904  26.7221515   5.8136638  53.1837774   5.5125110  12.2364266
  52.4421812   5.8132951  12.7615960  53.4791208   4.7141568  12.6741918
   2.3130513  27.0966165  12.8956349   2.9991461  26.8028896  13.4949906
   2.0451070  26.3036649  12.4312337  82.4838829  64.6036339  67.5015688
  82.7525997  64.8183393  66.6083050  83.2647228  64.7636366  68.0315828
   4.2089344  64.0026263  46.6501172   3.9201761  63.1618813  46.2951501
   4.9674202  64.2400316  46.1166699  69.4564820  63.8364700  39.6774419
  69.5138312  63.0490474  40.2186425  69.9254036  64.5050148  40.1768334
  43.2749773  13.4324901   8.1545384  43.5378958  12.6055066   8.5585197
  43.0865694  14.0108554   8.8936074  30.8388543  77.1988440  62.3021698
  31.5847111  77.1728182  61.7027950  30.2687478  77.8800964  61.9456530
  66.2653780  44.5143843  59.2093658  65.4354620  44.2729092  58.7980652
  66.1198425  44.3711329  60.1445293  51.8540764  64.9274591  11.4266809
  51.7126060  64.2379025  12.0753224  52.7453351  65.2341012  11.5936025
   1.9131924  72.8076271   6.7879136   2.2701193  73.6715678   6.9939168
   1.7319895  72.4136452   7.6412423  21.9445540  45.0697963  29.4587453
  21.0420347  44.7740047  29.5778878  22.1121002  45.6368320  30.2114995
  32.9973412  70.6541491  50.2304459  33.5734582  70.6439352  50.9947872
  32.5484228  69.8091841  50.2575779  46.9974924   2.6546447  42.4381192
  46.8339325   2.2130649  41.6047605  47.9383875   2.8305356  42.4353631
  83.5055972  23.3008354  28.4093507  82.7541280  23.2177846  28.9964040
  83.6115695  24.2443769  28.2879575  83.4326792  76.6498855  55.4913743
  83.1103421  75.8759145  55.9532197  83.6417151  77.2738437  56.1865075
   8.7624599  37.3823850  20.0065167   8.8021876  37.9671161  20.7633145
   8.5715247  37.9598825  19.2674096  73.4627581  11.9058741  69.3392229
  73.5512543  12.6345767  68.7249041  74.0215493  12.1463908  70.0782299
  37.0604826   6.2257545  31.5489228  37.1293999   6.9342677  30.9090074
  36.7936016   5.4637544  31.0347589  28.8781859   8.9388625  24.0597184
  28.3620239   9.7433631  24.1106065  28.8414074   8.6886899  23.1365235
  61.1678267  43.6757803  63.7118435  60.2837229  43.9139986  63.4328365
  61.0371923  42.9690886  64.3441057   4.9580361  51.8061893   9.2685350
   5.3398038  50.9410732   9.1200049   5.6056334  52.2651260   9.8035462
  71.2214851  62.7525902  55.9953356  70.6875324  63.5028553  55.7341242
  70.6690741  61.9916105  55.8165026   5.4903604   7.1166818  13.0417474
   5.5425454   6.1643808  13.1231340   6.3463069   7.3751228  12.6999982
  13.3670784  71.7291610  19.2571099  13.3505751  70.7746379  19.1874250
  14.2954375  71.9569366  19.2071565  57.3292589  39.0141559  59.5630980
  57.6900816  39.0370965  58.6768055  57.3578262  38.0896497  59.8094702
   8.3463980  32.0266597  32.1796163   8.4338642  31.0759132  32.1113141
   8.7320400  32.2422712  33.0287488  55.7782269  76.3772488  45.7313347
  56.5353918  76.6188335  45.1978827  55.2896833  77.1935272  45.8373594
  25.4320408  26.8518989  25.2401288  24.9484087  27.2184627  24.4998773
  25.0205256  26.0022037  25.3979333  35.4935909  67.6006858  25.9093221
  34.9915529  68.2457702  26.4073690  35.5372072  67.9625671  25.0242360
  43.7854958  68.0675554  62.3588276  42.8610134  68.0647469  62.1107149
  44.1175652  68.9052820  62.0360613   9.8693539  21.6541545  10.0662931
   9.0241696  22.0262353  10.3181871   9.7040082  20.7144897   9.9893697
  76.9818664  50.0365989  30.5416806  76.9642246  49.1888015  30.9857114
  77.7519394  49.9940650  29.9747499   8.4083486  23.6250997  46.8868256
   8.9203287  23.8243365  46.1029863   8.3718610  22.6689386  46.9124413
  59.8024130  72.8794861  58.4998751  59.2222261  73.5653448  58.8303423
  59.4329786  72.6425791  57.6492119   6.6118885  60.9396427   2.8160174
   6.1982490  60.6372230   2.0075114   6.6961075  60.1507633   3.3515628
  64.9324442  11.1765449   2.7715667  64.1030014  10.7026689   2.7107556
  65.2026010  11.3041704   1.8621905  66.2560320  79.6141958  48.6808491
  66.8655062  78.8991690  48.4977913  66.5130758  79.9323702  49.5462561
  51.1171961  81.3762379  58.2937288  51.5990877  81.8547344  57.6191521
  51.5347147  80.5153370  58.3211899  20.1238180  51.1348884  29.4404538
  21.0042359  51.4745109  29.2799695  20.1822640  50.7135265  30.2979310
  31.5303637  23.4472482  20.3589566  30.8840777  23.5480325  21.0578092
  32.0984245  22.7374904  20.6585916  35.8202625  30.9537427  14.5070012
  35.7999111  30.1705663  15.0569566  36.6817166  31.3381307  14.6694024
  41.9566084  18.8932245  11.5490754  42.6421095  19.5610587  11.5313466
  41.3018776  19.2054097  10.9244950  12.6575685  77.6869535  66.1276436
  13.5933710  77.8679609  66.2155867  12.2773099  78.5206890  65.8510113
  37.5260901  61.4653349  61.5973949  37.3371077  62.3736572  61.3618660
  38.3618689  61.5073252  62.0620918  44.1850306   9.0026300  44.4284089
  45.0434805   8.9038532  44.0166600  44.2885996   8.6101692  45.2952893
  12.1460748  62.4909687  48.7718439  13.0107618  62.5943470  48.3745241
  11.6264940  63.2058382  48.4041023  58.5763121  58.5303211  64.3400192
  58.9174318  57.8932095  63.7123585  57.6332331  58.5458660  64.1769552
  36.4419819  15.2716558  18.8423665  36.8594862  16.0924737  19.1034825
  35.6274534  15.2469127  19.3445237  51.8088652  48.7536208  15.6464704
  51.6157557  49.6818416  15.5147107  51.9069506  48.6615627  16.5941651
  50.3641748  70.8214188  57.8178358  51.1985970  71.2894154  57.7869034
  50.5971050  69.9343538  58.0918646  48.3517815  21.7440860   2.1156915
  48.2693030  21.6590326   1.1658509  48.8475682  22.5531499   2.2415622
  17.7396084   4.8623578   1.6661628  17.5339056   4.0539567   1.1966928
  18.1036640   5.4419296   0.9969934  18.3529736  20.1975267   5.0295480
  18.0517412  19.4206159   4.5584853  17.7634264  20.2658479   5.7805474
  53.5658575  -0.0370248  31.6053803  54.2447306   0.5026977  32.0104249
  54.0052153  -0.4613383  30.8683904  18.5282112  31.2101142  10.2679570
  18.9368464  30.3502052  10.3669770  17.7005507  31.1381643  10.7433923
  11.0254265  63.4993628  17.9254182  10.2759291  63.6472420  18.5021432
  11.4716078  62.7409510  18.3022054  45.3596188   7.9065912  33.9261659
  45.1677681   8.3258073  33.0873044  44.9984623   7.0242326  33.8411077
  64.8089218  77.4557400  42.6743460  65.2852345  78.0239391  43.2797480
  65.2802229  76.6232157  42.7062178  71.1049318  39.4295931  49.0462589
  71.1774731  39.5709252  49.9901819  71.9374418  39.0266204  48.7997341
  60.1844883  70.1200056  56.9223213  59.2683172  69.8802042  56.7831802
  60.2405262  70.3197718  57.8567648  72.0153380  12.6892031  59.9330997
  71.4337111  13.3332480  59.5291805  71.5693760  11.8516196  59.8073435
  21.1278988  54.7498958  31.7630990  21.2073113  54.2025916  30.9818299
  21.8421580  55.3824489  31.6860230  35.7958723  20.0806634  14.5248826
  35.0487829  19.5643346  14.2223962  36.1952425  19.5451896  15.2104505
  56.2404633  67.7605629  67.0715618  55.6482172  67.0394850  67.2849321
  55.8755636  68.1419230  66.2730360  23.7913347  12.9036559  40.1678324
  24.2589498  12.2140730  39.6966267  24.4782282  13.5042895  40.4570341
  49.0561152  67.0379162  61.0830641  49.5059109  66.2064600  60.9327459
  48.3339119  67.0365334  60.4548550  72.2147274  44.3229628  68.8677216
  72.6783562  44.4572258  69.6943140  71.4387655  43.8165522  69.1078520
  30.3574492  21.4664619  11.6156133  31.1127068  21.9501607  11.2811692
  29.6499516  21.6754691  11.0056909  11.2024618  73.9412645   8.5218652
  10.5498291  73.5762695   7.9243024  11.2206722  73.3305219   9.2586740
  47.7131033  24.3031168  52.9979134  48.5897446  24.5551372  52.7077103
  47.2861242  25.1312494  53.2172728   1.3966442  55.6952003   9.6442159
   1.3638664  56.4380363   9.0414269   1.3019205  54.9262515   9.0820964
  86.2645601  69.0439462  46.5641451  85.6366395  69.2932176  45.8860493
  85.9858131  69.5311820  47.3394728   9.9881315  60.5407654  33.1024265
   9.9697518  60.8106886  34.0205956  10.6105089  59.8139059  33.0788732
  73.2974959  54.9239711  18.6678727  73.8499833  55.0184921  19.4438012
  73.9044619  54.6762935  17.9703935  31.2973468  52.5747279  17.0102532
  31.5739575  51.8581048  17.5813611  30.7037792  52.1643463  16.3813623
  80.6879782  71.3604998  65.1545000  80.1474737  71.9466828  64.6249008
  80.1141977  70.6208490  65.3543139  26.6088295  42.8344213  69.8585558
  27.5145197  42.5261938  69.8276520  26.5511369  43.4793769  69.1536188
  53.2995319  11.0776389  62.0415163  52.7902842  10.5325794  61.4416742
  52.8803444  10.9528875  62.8929567  86.6040325  14.6664655  63.2658434
  87.0338726  14.1877508  62.5571156  85.6747818  14.6500313  63.0368328
  70.1921558   3.7378937  36.5179348  69.7658431   4.5847872  36.6493154
  69.4928836   3.0960238  36.6414428  56.6447544  62.7745794  45.7651806
  55.9064388  63.3836400  45.7778931  56.5085220  62.2494744  44.9765491
  47.1327186  40.9271027   3.2721694  46.9134426  41.8261207   3.0273898
  47.0917905  40.4383071   2.4501975  30.7598281  14.6325910  40.7663965
  30.1141715  15.2348208  41.1360979  31.3877130  14.4902360  41.4747238
   4.8587871  35.9893749  10.2678521   4.6061540  35.6346265   9.4154676
   4.3548323  35.4764441  10.8996518   6.3877248  49.1172492  39.6123528
   5.9336137  49.9410497  39.4352412   6.2641978  48.9725458  40.5504513
  23.3691549  58.0609213  36.5253782  23.6557722  57.9348146  35.6208467
  22.5914096  57.5092851  36.6092992  39.0070534   2.3299348  49.1583347
  38.8984442   1.4577022  49.5373440  39.1408443   2.1701683  48.2240963
  36.6843605  49.4986717   5.8457501  37.6109487  49.2711607   5.7689078
  36.2621612  49.0300218   5.1257833  62.9465485  12.6881722  21.3446935
  62.5508476  12.7719072  20.4771359  62.7793336  11.7802552  21.5975888
  46.8733561  75.6693224   6.4263375  46.6708601  75.9189752   5.5247291
  46.4497161  76.3403562   6.9615729  22.4985480  51.6589438  70.1660967
  22.5932192  52.4037658  70.7598209  21.7836880  51.1438548  70.5401182
  14.8827219  65.9415733  46.1784363  15.6788349  66.2756537  46.5917492
  15.1150179  65.8442651  45.2549648  15.1126814  61.5768610  56.1122751
  14.5433187  62.2666489  56.4532328  14.5499563  61.0688793  55.5278730
  14.4658411   5.5546123  52.8235006  14.6902859   5.3285700  53.7261438
  15.2461076   5.9941816  52.4855757  69.4661427  60.1180986   5.7740958
  69.3653345  60.9186844   6.2890084  70.0006628  59.5453254   6.3240512
  39.5790911  22.0503191  17.7915700  39.9285436  21.2672893  17.3661550
  39.5491422  22.7074972  17.0962651  20.6420755  64.4874476  55.0141668
  19.7338628  64.4782554  54.7120142  20.7084083  63.7307178  55.5965662
  37.8395772  19.4266570  54.8287582  36.9283628  19.1660213  54.6946287
  37.8422284  20.3725362  54.6820116  55.8567310  60.8777717  13.3512242
  55.6942082  61.8207530  13.3758386  56.3503647  60.6988374  14.1515573
  44.8056043  55.8643321   5.0238975  44.1063094  56.4949766   4.8521169
  44.5140088  55.3894452   5.8021529  50.3297806  16.6556859  52.5820446
  49.6857929  17.2551560  52.2050285  50.6792355  17.1250618  53.3395433
   4.3259334  39.1047107   4.7747251   5.1483559  38.6863290   4.5201525
   4.0794563  38.6710798   5.5916959  27.3880029  11.4218080  60.4977417
  27.7644396  10.6255305  60.1229525  27.5030804  11.3194609  61.4424706
  73.5574055   3.1127409  20.2717526  74.4146729   2.9864577  19.8650868
  73.5411358   4.0387229  20.5136712  84.6569634  59.9273340  13.4959348
  84.9669743  60.8121077  13.6890634  84.4420910  59.9470691  12.5633748
  65.9887219  67.6039461   7.8396256  66.2156368  67.4164966   6.9287999
  65.5445385  66.8123964   8.1435712  77.1877909   8.2887081   5.0112041
  77.6671696   7.6030020   4.5461877  76.2939692   7.9528049   5.0781138
  78.1328463  58.5065304  25.2525163  77.3707794  58.7033569  24.7077727
  78.8828277  58.6438667  24.6738148  15.5814755  40.4595423  57.3854113
  14.7316289  40.0201416  57.3551130  15.4065990  41.2888527  57.8302574
  64.4344883  78.6591085  21.1284256  64.1095006  78.0905204  21.8265104
  63.7311321  79.2932194  20.9890509  17.2628927  75.3581833  64.3141842
  16.3978386  74.9484300  64.3098354  17.6149320  75.1652574  65.1831388
  79.7395324  67.8382026  54.1536999  78.8799905  67.4930583  54.3951464
  80.3527450  67.1437990  54.3945456  82.6961136  37.2801412   6.7691501
  82.9952097  36.6698188   7.4431546  81.7933846  37.4836514   7.0138772
  12.6467752  50.0690066  45.3452539  12.1233987  50.8580219  45.2046871
  12.6002645  49.5992362  44.5125580  13.6128497   1.9477339  53.5101414
  13.1571293   1.9127485  52.6691103  14.1486919   1.1547190  53.5253716
  11.4156914  25.4619718  42.4772930  11.6289771  25.3967619  43.4081507
  12.1461833  25.0311446  42.0334435  27.3994923  13.7673247  44.0971184
  28.3040142  14.0424109  43.9474487  27.3915005  13.4518850  45.0008106
  18.8538349  16.6211975  59.9856853  18.4441006  16.9737875  59.1957283
  19.5427966  16.0419691  59.6600199  17.2107578  55.6989995   3.3292134
  17.5445295  56.4338139   3.8438733  17.8784443  55.0193170   3.4211619
  70.8786821  80.6786661  56.7475986  70.1074826  80.5321496  56.1998606
  70.7349812  80.1265224  57.5161791  67.6797343  80.9550408   1.6111358
  68.4263969  81.3053731   1.1253484  66.9715357  81.5766171   1.4428170
  66.4689207   4.4681183  57.5522852  67.3704243   4.2797661  57.8131485
  66.4136839   5.4237211  57.5542974  43.8686180  17.4981821  49.0993643
  44.2391539  16.8231034  49.6678734  44.6259308  17.8791189  48.6548471
  42.9219437  23.4194541  66.7287397  43.3282328  22.5539637  66.6830540
  42.3147535  23.4383583  65.9890175  25.3160548  15.2380192  64.8001623
  26.2169576  15.2829909  65.1204491  25.3624606  14.6658862  64.0341711
  31.1761383  21.4675585  17.0392831  30.4949698  20.8866290  17.3780473
  30.8331403  22.3492614  17.1848329  68.3654952  31.9027654  20.5654176
  68.7991715  31.0621480  20.4187234  69.0632058  32.5515471  20.4731496
  33.5331291  41.5447628   1.2763389  33.1647957  41.6104481   0.3952916
  34.4761020  41.4591782   1.1359485  46.8852854   2.6224759  62.4043846
  47.6231909   2.6899865  61.7984343  46.1186314   2.8373367  61.8730593
  73.3486128  80.6036953   8.8058789  72.7244139  80.3913454   9.4997914
  73.1788874  79.9537877   8.1239398  71.9293023  30.5779485  23.4037526
  72.0189906  31.4682213  23.7437566  71.9947911  30.0183157  24.1775449
  76.8832684  39.8587224   8.1646426  76.4577294  40.7157492   8.1901820
  77.3944760  39.8691564   7.3554500  10.6214356  55.2897250  55.4668903
  10.6733369  54.3398916  55.5734587   9.7080946  55.5026781  55.6584358
  16.3978171   6.8690264  55.2552080  16.7375028   6.0751373  55.6682301
  17.0824051   7.5233209  55.3947496   3.6355549  51.9598150  33.4178901
   4.1264981  52.2574472  34.1838026   3.9978179  51.0957098  33.2221437
  84.7227192  13.4945849  14.2464955  84.4776583  13.2815889  13.3460458
  84.0445042  14.1019801  14.5420011  67.1025210  81.3035622  57.5179625
  66.5757339  81.9668428  57.9638147  66.5955209  80.4963960  57.6055145
   0.0977952  32.5029159  13.0810976  -0.3898946  33.2534456  13.4203553
   0.7578352  32.3236394  13.7507534  44.6555758  30.8179975  14.9031663
  44.8834658  31.0223889  15.8100963  44.4900799  29.8752117  14.9044359
  66.9648886  49.9302641  31.1969789  67.4122477  50.1796690  30.3883393
  66.9233108  48.9745811  31.1627324  47.0493782   7.2745303   6.4246543
  46.9703377   6.6315821   7.1293529  47.9688740   7.2305325   6.1623128
  58.7484599  44.5249364  14.0835126  59.0331817  45.3490666  13.6885770
  59.3063808  44.4235519  14.8546632  70.0847674  59.2407063  18.6931356
  69.6447277  58.8270799  17.9504998  69.9405337  58.6382619  19.4228585
  83.6974574   8.9415519  10.5704148  84.5052577   8.4769742  10.7891782
  83.9321280   9.8680274  10.6234010  68.1215072  69.7508172   1.7676957
  68.5152006  69.9145631   0.9107097  68.8426948  69.4204549   2.3034032
  76.4579201  42.3894299   4.1257461  76.7453957  42.7996202   4.9414285
  75.8427096  43.0167717   3.7460216   6.9826316  67.0050429  64.8061991
   7.8199744  66.5419339  64.8310518   7.2220587  67.9312312  64.7733164
  47.8483915   3.8663056  67.6714849  47.7531242   2.9189229  67.5733948
  47.4812078   4.0558255  68.5349035  33.9727092   5.1028734  53.1086445
  34.3478799   5.1206148  53.9890766  33.9105272   6.0240841  52.8561831
  41.6275072   4.9762988  41.9984007  40.7529402   4.6019131  42.1042395
  41.4957142   5.9205639  42.0834064  53.0205512  67.4389318  27.8495057
  53.7728072  67.9018668  27.4806722  52.7409268  67.9840354  28.5849698
  81.2268448  32.9722500  40.3914881  80.9317398  32.0744658  40.5435467
  81.8339062  33.1497574  41.1099625  31.0067843  72.3951296   9.8422654
  30.3381652  72.6665334  10.4711659  31.8329990  72.4857119  10.3170236
  13.8515879   6.7722909   7.9217179  13.4018112   6.4027564   7.1618636
  14.4930054   6.1057966   8.1678947  74.5163775  22.0474926  13.4215196
  74.2897892  22.4718419  14.2490609  75.1208973  22.6566736  12.9976304
  63.7235355  23.2092357  50.6073570  64.3962955  22.9494905  49.9779463
  64.0340042  24.0435481  50.9591532  79.0699864  58.6813608   3.5163386
  78.9708996  57.8201631   3.1104453  78.3229971  59.1855422   3.1937964
  33.0210018   7.2395641  48.2784700  33.5554767   7.9438436  47.9116488
  33.6558175   6.5932554  48.5875368  21.7945933  31.4104176  45.8133984
  21.5445065  30.7661343  45.1511383  22.2217131  32.1094322  45.3182459
  55.9164882  68.1198696   3.4672816  55.7437277  69.0600113   3.5175117
  56.8409634  68.0587415   3.2267888  32.1302319  13.4811676  61.8285751
  31.7642951  13.0786550  61.0409832  32.7679610  12.8434479  62.1492767
  73.9226818  24.0822196  66.9397831  73.3859587  23.3470917  66.6435623
  73.6176491  24.8261023  66.4203358  56.0185051  30.0904679  68.1250286
  56.4479589  29.2435122  68.2453108  55.4301262  29.9572730  67.3818588
  71.0912752  41.5065098  47.4674845  71.8236351  42.1044302  47.6170397
  71.2638187  40.7662296  48.0492496  27.5932071  58.6198143  21.0286744
  28.0089490  59.3493871  21.4881452  28.2593474  57.9325143  21.0182984
  20.8371067  43.0796146  56.9750500  21.0743666  43.2541609  57.8858042
  20.2790880  43.8168478  56.7273998  73.7431669  14.9952197  51.5516901
  73.9288807  14.1179097  51.8864584  73.1622362  15.3832603  52.2060394
   0.7996368  81.5524359  40.3910685   0.0122857  81.0395069  40.5733156
   0.7490205  81.7443834  39.4546771   2.6380372  79.0688460  44.7209167
   2.1250915  79.3599910  43.9670229   3.4030723  79.6441015  44.7266531
  74.7991276  14.2361915  60.3866148  74.1429281  13.5490680  60.5027723
  74.2925978  15.0476182  60.3513336  78.0474734  80.4863464  53.9871264
  77.6343571  81.2107084  53.5171604  78.9342713  80.4434966  53.6293793
  29.9421096  58.8710586  11.5772279  30.1921831  58.9521900  12.4976094
  30.7105208  58.4891931  11.1530145  45.6345201  43.2724471  10.7399495
  44.8914171  42.7987919  10.3662046  45.6003940  43.0719744  11.6752942
  70.2417136  56.4738587   7.9046853  70.2424240  56.3307611   8.8511308
  71.1597395  56.6339341   7.6859696  16.7642069  68.9690196  33.6932397
  17.4551248  68.3295690  33.5201454  16.6813850  69.4594442  32.8754044
  80.2749777  24.9702028  21.2614949  79.5106745  24.4520668  21.5137132
  79.9709940  25.5036119  20.5271276  50.3292847  24.5222831  59.0984678
  50.8082724  23.8253689  58.6500120  50.3205776  24.2540240  60.0172710
  60.2789164  22.0114493  39.0832233  61.0709238  21.6663480  39.4953609
  59.5787859  21.4352751  39.3899393  62.2976875   1.2073646  44.4704771
  62.5544262   1.8012659  45.1758862  62.9262209   0.4873424  44.5229244
  13.4432268  76.6455781  58.4367037  13.9382743  76.0366677  58.9847755
  13.6453008  77.5095647  58.7957621  15.4854941  16.8599594  66.8514538
  15.9056950  16.0505033  67.1420431  15.7496274  17.5129700  67.4995613
  33.8754082  10.7488322  55.7833147  33.4666896  11.5892506  55.5762386
  34.6939778  10.9820378  56.2212515  78.7331105  48.7220279  12.4493630
  78.9822293  48.0646739  13.0990155  79.3957711  49.4073329  12.5357850
  57.9450512  36.6327429  61.3807678  57.5963211  37.3282409  61.9383526
  58.8536215  36.5312958  61.6643810  17.2799682  47.3601471  67.8310490
  17.1152973  46.4776527  68.1631947  18.2043647  47.5192582  68.0218458
  81.9364952  76.7661845  39.4351768  81.8373274  76.2221085  38.6539078
  81.8456148  76.1547183  40.1659870  37.0502782   0.3192344  36.6617274
  37.6410508   0.6200726  37.3521757  37.0146012  -0.6306772  36.7740989
  63.8042236  67.6276234  13.5078748  64.3117094  66.8401340  13.7042172
  63.2666088  67.7666835  14.2875226  34.0582395   7.5840712  39.3987274
  33.2671309   7.1687424  39.7420645  34.4701314   6.9073707  38.8614631
  51.2998962   4.4130120  52.2406960  50.4267693   4.4979870  52.6236629
  51.6789675   3.6492968  52.6757526  19.2352545  30.0551105  42.8906298
  18.8587117  30.1751995  43.7624264  18.4798419  29.9065876  42.3218393
  53.6992359  52.1052408  61.7954206  53.9394236  52.8364420  61.2263060
  53.0868006  52.4838018  62.4261665  30.4773807  62.3481750  59.4260454
  30.5543661  63.0648374  58.7962055  31.3642740  62.2327494  59.7671080
   8.9761949  25.5148172  48.9777470   8.7772775  25.0966072  48.1400299
   9.8233438  25.1493621  49.2327118  28.8503599  21.5005374  48.4607410
  29.7987437  21.3969350  48.3828545  28.4965014  21.0512280  47.6931906
  52.9526234  32.4975204  70.7932186  51.9963646  32.4557471  70.8007765
  53.1549072  33.2559538  70.2454138  20.5312228   9.6610916  58.3361816
  19.7362638   9.1376859  58.4377575  21.0909390   9.3902302  59.0639067
  46.8552207   3.9383695  58.8122416  46.3079142   4.5707846  58.3466864
  47.2618198   4.4451708  59.5151377  34.7359395  41.8452597  70.1214075
  34.3286061  42.4555588  69.5067120  34.7123098  41.0007048  69.6715212
  75.3015995   8.2915348  60.3513145  74.9131226   8.8940406  60.9855890
  76.2450444   8.3712119  60.4920101  60.1186562  14.3534744  54.2994404
  60.2742004  14.1710532  53.3727455  59.9141073  13.4995925  54.6805906
  79.7342825  76.7319397   6.6866859  80.5603028  77.1363977   6.4214690
  79.8178721  75.8173970   6.4167722  77.6018572  53.5938088  19.4998582
  78.4117174  53.0858270  19.4517549  76.9503117  52.9751281  19.8299344
   8.0691499   2.1841620  50.1723814   8.9561117   2.4676901  50.3940630
   7.7109778   1.8523224  50.9956837  72.7230024  60.0798178  44.1792297
  72.9817677  60.1297522  45.0994349  73.4791851  59.6923113  43.7384748
  64.0789359  64.3841051  57.8808594  64.4002341  63.9477479  57.0918131
  64.8581802  64.7827791  58.2682467  59.5204831  63.4916190  13.5587724
  59.1299320  64.2964414  13.2182344  58.7727952  62.9568724  13.8256867
  64.6467161  27.7003956  57.4524307  64.7030973  26.8550324  57.8978682
  65.0659513  28.3162355  58.0534410  62.2662855  35.3386865   6.8326743
  62.5683666  34.7352920   7.5115665  61.8380213  34.7771994   6.1864884
  38.2529068   0.3933085  62.2416306  37.5395322  -0.2438470  62.2047424
  38.9933515  -0.0966022  62.5993490  73.5707903  43.9468998   7.7163489
  73.5026598  44.6453262   8.3673413  73.2168246  44.3315301   6.9144757
  69.5259523  12.0412898  64.5741320  69.4027996  11.8614554  65.5061865
  69.9543667  11.2561107  64.2332697  27.0588255  26.2621737  64.8381567
  26.8352461  26.9300747  65.4863501  26.8432093  25.4328179  65.2646637
  77.9377509  66.9900683   0.2640327  78.4795094  67.0876745  -0.5190389
  78.5571099  67.0431045   0.9919103   8.4761238  72.7515720  43.8244629
   8.2955098  73.6752336  43.6499357   7.9719591  72.2795497  43.1617069
  59.7133938  81.0355267  68.3858204  60.0263826  80.3246685  67.8263998
  60.5103340  81.4716961  68.6872768  53.9382267  17.4250412  22.2939920
  54.5153093  16.8325555  22.7758288  54.5207644  17.8926134  21.6954446
  64.5950227  74.3487524  45.4804897  64.0583502  73.5585766  45.5424261
  65.1252162  74.3412571  46.2774038   2.8295208  10.3973535  45.0371106
   2.0764900   9.9288658  44.6769746   2.5796247  11.3204173  44.9954446
  32.1203375  26.6931319  59.1245604  32.7591610  25.9873271  59.2244387
  31.9630313  27.0018458  60.0168514  52.0603943  14.6584249  41.4751244
  52.4191236  15.4722190  41.8290806  51.9032621  14.1112721  42.2446489
  63.5821414  32.8190843  18.8991674  64.5192051  32.8210089  18.7038835
  63.5178900  32.4070469  19.7607549   8.1453967  52.9166333  28.1137784
   7.6442004  53.4358744  28.7426026   7.4911404  52.5943426  27.4938520
  58.0919409  29.7508454  50.8336020  58.5282707  29.6632981  51.6810608
  57.4595833  29.0325189  50.8144522  74.3582224  75.8564793  49.6011877
  74.5133697  75.1145469  50.1857376  74.8045074  76.5909087  50.0227022
  64.6157813  49.5582608   9.1611226  63.9919377  49.5168678   8.4363254
  65.0232411  50.4203591   9.0774949  75.3441393  74.0764164  36.1865306
  75.8265363  73.7904113  36.9622421  74.4510602  73.7637775  36.3310981
   8.8104743  10.9896183  69.0603542   8.3807129  11.7796195  69.3881273
   8.5799509  10.3108346  69.6946573  35.4682159  11.3502038  52.6275110
  34.8190689  11.4227796  53.3272076  36.1969304  11.8980992  52.9190969
  49.1485906  51.0054282   7.9437717  49.6715927  50.5167023   7.3082812
  49.4384647  51.9123832   7.8455957   3.4323622  67.6967529  -0.0571887
   3.6482120  67.7485517   0.8739169   2.6276279  67.1793727  -0.0880782
  76.0526228  36.0775942   0.9799989  75.4965687  36.1086697   1.7585071
  75.9611559  36.9449369   0.5855592  44.6658934  46.1582462   3.5551913
  45.0585246  46.4024476   2.7170737  44.5376695  45.2117220   3.4928783
  60.3259134  61.1943150  70.2300644  59.8963165  62.0400810  70.1021624
  61.2413645  61.3534737  70.0001812  12.5823689   9.5938343  41.5266323
  13.4958589   9.4383401  41.2866592  12.4852633  10.5455923  41.4956427
   5.1319646  48.1108152  65.2868462   4.6683263  48.1342803  66.1239386
   4.6908402  47.4232780  64.7879171  83.1809711   6.7363203  26.9924521
  83.9148998   7.0065677  27.5443101  82.9112244   5.8903831  27.3500228
  24.0339756  67.3446714  48.6398077  23.2339668  67.7481531  48.9765882
  24.5761060  68.0830907  48.3622026  35.2074099  22.8249049  53.4021378
  36.0860538  22.6838183  53.7547207  34.8518443  23.5432220  53.9254236
  80.0286818  48.5209755  16.3182099  80.6795121  49.2215268  16.3615354
  79.6084881  48.5309092  17.1781953  25.4969716  26.0502768  33.7114716
  25.3911424  26.5605307  32.9085565  24.6485353  25.6259131  33.8391519
  57.3869729  35.3353701  14.3239244  57.8599549  35.0261138  15.0965055
  56.9229079  36.1168823  14.6241124  82.2884751  40.8143176   7.4361260
  82.8761578  40.2951088   7.9850133  82.8356886  41.1032251   6.7058356
   5.4371143  34.4257335  55.4528173   4.6832300  33.9044700  55.1768144
   6.1872936  33.8430039  55.3349526  67.9253579  58.2203320  10.8150800
  67.0204139  58.5290924  10.8595594  68.2417465  58.2752243  11.7168077
  18.7333990  45.0427956  30.0306447  18.0006433  44.8319790  29.4519742
  18.9283348  44.2202292  30.4796632  22.4578595  13.7896597  63.6204815
  22.0169616  13.8108850  62.7711344  22.1011472  13.0156374  64.0562344
  57.5971508  17.3675382  69.5884895  58.4634829  17.1360159  69.2536736
  57.0145798  17.2664428  68.8357449  11.7084217  72.1748077  44.8706627
  12.6164627  72.0782213  45.1576614  11.4536667  71.2981724  44.5828390
  34.1056085   7.7760774  52.6826143  34.0025330   8.3600491  51.9312239
  34.9395752   8.0350602  53.0746078  18.6900974  12.0690315   3.7604459
  19.3059565  11.6743057   4.3778117  17.9323317  11.4843051   3.7711509
  43.4966720  38.3160124   1.1435540  42.7170027  38.8462027   1.3086160
  43.6677897  37.8760064   1.9762309  72.3382664  81.7327336   2.3651441
  73.0040074  82.3421649   2.0463689  72.7450896  80.8700351   2.2846587
   8.7584257  25.4508356  18.3245309   9.6792496  25.7061199  18.3805974
   8.3366204  26.1756102  17.8630002  20.2996135  29.1962194  67.2006130
  20.0683570  29.3457723  68.1173372  19.8026264  29.8563671  66.7174578
  51.7073965  21.4174891  54.1664171  52.4578190  20.9811687  53.7630272
  51.9830418  22.3292112  54.2613792  19.3199348  13.8564444  67.3531675
  20.1749563  13.5053253  67.1043968  19.1167998  14.4974089  66.6718912
  37.9400921  78.9096168   1.9360478  38.3794713  78.7313727   1.1045392
  38.5834396  78.6700229   2.6030763  13.1050516  12.9779498   2.1770413
  13.8594986  13.2835786   2.6806624  13.4369684  12.8788678   1.2847169
  63.2905197  38.8187599  56.6409111  62.8881216  37.9820943  56.4078951
  64.1712332  38.5870934  56.9357157   9.6751381  42.1049384   6.3470252
   9.2370678  42.8561386   6.7470534   9.2426515  41.3426255   6.7318137
  21.3285184   7.3009837  64.6464729  22.0327687   6.9572258  65.1961040
  20.8445287   6.5249264  64.3641281  67.3047905  72.7502828  40.2815342
  66.4541893  72.8375923  40.7117510  67.1397030  72.9983382  39.3718958
  51.6789389  67.0217314  32.0967897  51.7464447  66.4463368  31.3348229
  50.9247208  67.5804034  31.9089730  35.2854181  78.6319403   1.2819703
  35.0244582  77.8558925   1.7778380  36.1982143  78.7788228   1.5298827
  44.7610140  14.8482323  62.7065086  45.6996012  14.7839069  62.5300217
  44.6436405  15.7300258  63.0599165  28.8012699  21.0938159  18.7663205
  28.3545431  21.7028192  18.1782849  28.5496954  21.3805155  19.6442349
  44.6440983  23.4375668  34.1886353  44.0430450  23.9372468  33.6361051
  44.1290045  23.2174397  34.9648166  17.8965425  75.5990576  41.5381193
  17.2841358  74.8638367  41.5128803  18.7261438  75.2103405  41.8154144
  30.8486843  10.6960988  61.7085505  30.4681730  10.7997668  60.8363724
  30.1510382  10.9623253  62.3074198  22.8151774   6.4009291  60.3513336
  22.6495385   7.3422539  60.2993345  22.9265189   6.1266863  59.4410467
  80.5664111  62.7061156   3.8265117  80.8961869  62.6372532   4.7224649
  80.7057047  61.8360952   3.4524854  77.6914120  40.7114927  11.0613282
  77.6505375  40.3209918  10.1883634  78.5897827  40.5545686  11.3520845
  37.6152515  71.9294958  42.4736691  37.6091480  71.2716924  43.1690025
  38.5128593  72.2618692  42.4662638  37.5884938  80.2818337  17.9763253
  36.7709851  80.7649365  18.0968602  38.1223822  80.5217686  18.7337144
  26.2639597  51.7468635  20.4301198  26.6757538  52.1720866  19.6778901
  26.9313704  51.1453465  20.7602246  45.0641513   8.9390401  13.9069875
  45.3064323   8.5255722  13.0783876  45.5704999   8.4663514  14.5675977
  23.4424543  72.3759918  64.7896767  23.7655210  72.1040653  63.9306593
  22.5826931  71.9618999  64.8643017  64.0687371  61.5700225   4.2666562
  63.2243181  61.5764598   4.7173770  63.9822698  60.8829609   3.6058219
  10.8304811  15.9851769  24.6418984  10.0615717  16.2182835  25.1621564
  10.4749370  15.7265500  23.7916406  25.2714140  33.2814471   6.9394572
  25.9799540  33.6093745   6.3856824  24.8795426  34.0684120   7.3180755
  13.5123014   7.2461993  55.7124662  14.4348037   6.9915962  55.6925201
  13.0365896   6.4180267  55.7761908  12.7265024  71.6075169  58.2100773
  11.9766378  71.8549453  57.6690435  13.4632492  72.0879458  57.8324127
  25.6872511  18.5900080  52.5592995  26.1214375  19.4226480  52.7448368
  25.7706213  18.0902338  53.3714008  21.0015154  20.2786040  65.4875803
  21.3252330  20.8979297  64.8334599  21.3436103  20.6075716  66.3188362
  30.1446676   9.5211637  70.8751774  30.3011346   8.6195260  70.5944681
  29.2648768   9.7221041  70.5560827  78.5027599  24.6286654  64.2733622
  79.1469687  23.9681435  64.5281887  77.7035015  24.3741345  64.7344828
  36.1734843  18.7582278  27.7457643  37.0981169  18.6627710  27.5173497
  36.1380982  19.5566404  28.2725644  77.5614405  36.5969843  51.5197213
  76.7878676  36.6947592  50.9645112  77.9565716  35.7722989  51.2368806
  61.5625406  27.5218860  12.1051438  61.6451884  26.8101326  11.4704640
  61.9272995  28.2853834  11.6576417  14.4975757  69.0564453  45.4277086
  14.3720960  70.0012290  45.3389883  14.3337106  68.8790010  46.3539362
  56.0542059  17.1595383  32.3267722  55.1001358  17.2218716  32.3725843
  56.2208366  16.2788260  31.9908953  52.3556709  24.0314174  69.3422127
  52.3160982  23.1075859  69.0948296  53.1597948  24.1075921  69.8558426
  35.9317279  23.6329079  62.5940228  36.1925912  24.0799212  63.3992290
  35.0595450  23.2871914  62.7837849  10.4223514  43.0266332   9.8959477
  10.9160639  43.8441736   9.9600442   9.6130443  43.2701776   9.4465764
  46.2059534  70.5858568  18.7548192  46.2877393  69.8739294  19.3894132
  47.1076155  70.8549074  18.5791810   9.8622490  64.4232348  13.9715512
  10.0766826  64.1181473  13.0899747  10.5375553  64.0372876  14.5294316
  78.3158207  64.5320062   4.2076715  78.9805889  63.8878254   3.9640649
  78.3450842  64.5564131   5.1641114  63.3520174   1.0607567  68.1789589
  62.6817131   1.5097213  68.6940813  63.1872845   0.1301204  68.3306551
  86.2044382  60.5814842   9.0935691  85.5328989  61.0986093   9.5383771
  85.9593535  60.6152395   8.1688912  21.8481063  40.9368240  68.7704229
  21.5804481  41.8281638  68.9942646  22.7587080  41.0238515  68.4885359
  34.6957773  49.8534874   7.7703364  35.2984274  50.1330195   7.0812018
  33.9965380  49.3941788   7.3052199  59.9155569  29.4039536  63.6219835
  59.1662073  29.9768305  63.4591246  59.5342731  28.5305858  63.7118864
  17.0468116  10.5204582  68.3629417  16.2054563  10.4721081  67.9090548
  17.6816058  10.7076752  67.6714087  58.7317228  21.7525411  49.0420866
  58.3172750  21.1011028  49.6078539  59.1124487  21.2417817  48.3276606
   7.1237255  11.4351194  41.0131200   7.6701952  10.7342021  40.6577046
   7.7033020  12.1960800  41.0485967  46.3711834  27.7661467  56.5582514
  47.1256685  27.8664446  55.9777975  45.8861065  27.0253587  56.1947012
  76.2817907  39.2511868  59.1042185  75.5535460  38.8141894  59.5457268
  76.8478060  39.5511580  59.8154688  56.1405897  23.3059955  38.7902331
  56.9368076  23.3284330  38.2594132  55.9261608  24.2268610  38.9394164
  84.1984153  12.2873180  65.3918202  84.6363664  11.7163102  64.7606500
  83.3765555  11.8387048  65.5906423  50.6779719  45.5354614  21.3039430
  51.0280633  46.4149348  21.4460500  50.7121635  45.4145009  20.3550370
  82.6666117  49.3044601   1.6268046  83.3591032  48.9395276   1.0758861
  81.8605376  48.9155594   1.2873395  75.1064898   2.6970165   7.1850665
  75.2555872   2.1923511   6.3854964  75.9622313   2.7261989   7.6129516
  61.8955374  24.7864437  49.2731714  62.3934841  24.0356970  49.5966816
  62.2742653  25.5388927  49.7277212   1.8857742  55.2083293   3.4015019
   1.8294454  54.8144547   4.2720922   2.7295757  55.6602267   3.3972056
  43.7304306  22.2181964  54.7220850  42.9253387  22.4416852  54.2550659
  44.4253159  22.3462343  54.0763474  41.4102364   7.5948483  33.0336046
  41.8670845   6.8767172  33.4715629  40.4996109   7.5063747  33.3149624
  15.5405260   5.1163524  58.6366701  15.9395147   4.9507493  57.7824974
  15.0103403   4.3380955  58.8083029  75.8513784  21.3343310  36.0309958
  76.5310240  21.7761278  36.5400410  75.5629921  20.6136751  36.5911055
   3.4946085  38.9241221  31.6099675   4.1472269  38.2419393  31.4520104
   3.9389873  39.5538858  32.1775563  56.3046503   8.7710023  50.5285311
  56.4879274   9.5862091  50.9955168  55.3932428   8.8551652  50.2483702
  78.7154961  42.4592415   2.4450143  77.8211785  42.2745755   2.7319463
  79.0647078  43.0484766   3.1136592  11.4500500  72.1369771  10.7551892
  11.8012167  71.2484840  10.6960805  12.0612026  72.5983552  11.3295205
  61.2884117  75.7773546   3.5974391  60.4345489  76.1056284   3.8791974
  61.5780592  76.4026049   2.9330619  22.0713211  15.8153741   6.1151155
  23.0195166  15.7095735   6.1923059  21.7110897  14.9894063   6.4379914
  24.6552110  11.1253619  32.3497701  24.4542122  11.4580119  33.2245111
  23.7995028  10.9612250  31.9534707  64.4415284  65.5662588  20.3094705
  64.4327069  65.8612899  21.2200196  64.4111061  66.3734225  19.7958596
  41.9676519  72.4101976  22.1965440  42.2921110  72.2550658  21.3094743
  42.6785398  72.8797535  22.6328881  60.2892399  78.9405230  11.2292035
  60.5353690  78.1157593  10.8103784  59.9231720  79.4692806  10.5202325
  86.3812399  61.9270614  32.7540620  86.3860798  62.6582388  32.1363290
  86.9303036  61.2607435  32.3407968  29.4258761  29.3699932  70.3669500
  28.5271740  29.3827343  70.6961918  29.3615007  28.9457560  69.5113134
  60.6877947  37.9535317  68.6439943  60.3578377  38.5130095  69.3470907
  60.0207901  37.2740841  68.5455608  64.6668768  66.4353184  35.2842649
  64.9658847  66.4276818  34.3749936  64.7062254  67.3564366  35.5416043
  57.5944948  17.5524151  24.7037077  58.2570553  17.2895241  24.0648508
  57.8526354  17.1100140  25.5123353  75.1055861  19.2967013   1.2805827
  75.0924683  18.8625769   2.1335776  74.1921521  19.5317105   1.1173661
  42.2276402  36.3214207  62.6840448  42.9132652  35.6547475  62.7252102
  41.4521599  35.8899283  63.0427599  72.5295449  56.9159774  10.2992852
  73.1902123  56.2322203  10.1887258  72.7405215  57.3189393  11.1415132
  63.9289188  11.8273246  61.8988466  63.0727530  11.8341184  62.3268270
  64.4951248  11.3476551  62.5034666  86.3713742  74.7100357  65.4746945
  87.1886301  74.4729546  65.9130128  85.7278729  74.7649340  66.1811765
   6.0632730  43.3616374  16.7323621   5.8531404  43.9541767  17.4541505
   6.9271160  43.0129740  16.9524510  78.1943941  24.5911074  34.5600200
  77.2596550  24.3886113  34.5214391  78.5889673  24.0289044  33.8933349
  25.1061439  78.0224197  68.2556105  25.2319526  78.8606363  68.7003517
  24.5420837  77.5211244  68.8444805  66.6805268  66.6206817  13.4661420
  66.2671614  66.2230805  12.6998075  67.1433163  67.3836473  13.1198247
  58.7356949  34.2946158   8.1310065  58.8778711  34.0361813   9.0416272
  59.2777014  35.0751726   8.0161412  62.8591728  17.8122640  53.3713675
  62.8949785  18.6376834  52.8880119  63.7752438  17.5983381  53.5482216
  15.9744240  79.0061478   2.5953992  16.3510919  79.8251489   2.2735484
  15.1126123  79.2541102   2.9301055  78.8210202  61.9052128  27.5054868
  78.5352183  61.8493179  26.5936597  79.4414425  62.6340178  27.5177701
  39.9689174  22.6770902  66.8066216  39.0229273  22.5828600  66.6950130
  40.2895355  21.7800903  66.9005728  19.3904949  17.3552339  21.1935170
  19.2173363  17.7068250  20.3202279  19.8927284  16.5560071  21.0346826
  70.4323483  43.6614145  34.3846925  70.7197142  43.3356444  35.2376397
  71.1100245  43.3681775  33.7755902  51.9136620  47.8551987  22.2440751
  51.4848090  48.3090917  21.5186151  51.8939686  48.4842310  22.9653009
  76.4641953  47.6444892   2.3408826  75.7885886  48.2761524   2.0943292
  77.1119452  47.7001337   1.6383489  19.2276598  43.1094261  35.0150521
  18.4972454  43.5713587  35.4265626  19.8901678  43.7858666  34.8745282
  39.6146107   1.8186553  30.2368903  39.3592668   1.9573542  31.1489177
  40.2893925   1.1409729  30.2774978  30.9033514  50.9581009  13.1605371
  31.0449339  51.9001750  13.0673535  30.4138494  50.8691964  13.9782842
  34.3909955  76.5920857  13.1641706  33.4980727  76.7636947  13.4632810
  34.9399227  76.7896012  13.9230474  11.0843588  33.8175217  22.0173677
  11.8680216  33.3143518  22.2385438  11.2548185  34.1515092  21.1366685
  37.3282051  22.0149207  54.7659206  38.2249641  22.2427726  55.0111485
  36.8120575  22.1943164  55.5518246  75.1899910  18.6409882  10.2664884
  76.1153984  18.4330920  10.3954442  75.0847769  18.6859039   9.3161519
  64.5643640  46.5160958   3.1412871  63.8261509  46.7544649   2.5805266
  64.9545884  45.7543818   2.7126248  84.8645687  47.7567768  48.9682198
  84.5043945  46.9794226  48.5413456  84.8987198  47.5260782  49.8965740
  60.2602720  18.7734985  57.1082211  59.8085690  18.0056381  57.4583483
  61.1809731  18.5141456  57.0724440  13.9864136  77.8754929  29.2096074
  13.8890720  78.0973271  28.2835706  14.7930837  78.3154873  29.4777902
  19.1962553   1.7884462  13.4641202  19.5524956   0.9938209  13.0667623
  19.9651648   2.2658555  13.7757142  66.5739823  68.9375476  10.2400430
  66.9212366  68.0646066  10.4233964  66.4395261  68.9476398   9.2923863
  74.1688585  48.4540844  62.3194599  73.2119656  48.4770393  62.3119831
  74.3939734  48.1354952  63.1935644  30.8195853   7.6038605  63.7434721
  30.8840871   7.3936641  64.6750736  29.9283218   7.3515642  63.5021591
  77.3908186  52.3584262  13.3523114  76.8585539  51.5710119  13.4659036
  76.7623043  53.0795125  13.3874925  75.4598761  31.8975520  57.3783016
  74.7542334  31.5610743  57.9306507  76.2067699  31.9847918  57.9705620
  62.2224951  25.0545263  37.1221018  61.3008738  25.1709199  36.8912411
  62.4126244  25.7770753  37.7204394   4.7437406  61.2765244  10.9148152
   4.9269892  61.5540747  11.8123754   5.1629711  61.9411758  10.3682740
  44.7881698  80.2786050  57.5263071  44.4807911  81.0816737  57.1057940
  44.9214553  79.6655776  56.8033504  43.8516951  26.9735599  58.8754940
  42.9913187  26.7982841  59.2566252  43.6609983  27.3902321  58.0351067
  86.3163662  47.3379469  62.0268488  85.8220387  46.9900274  62.7690268
  86.2477493  48.2883453  62.1177769  65.1212788  74.9235610   9.5145448
  65.2498722  74.0115384   9.7751458  65.0466180  74.8918895   8.5607894
  14.0218426  81.7838076   7.8709491  14.6910597  81.6932134   8.5493072
  13.8339449  80.8856729   7.5984080  40.7146263  72.8856312  60.8383226
  40.6293916  72.4599700  59.9852228  41.1657238  72.2410940  61.3835859
  77.6945507  71.2678265  56.8307352  78.4902405  70.9415030  56.4104700
  77.0188057  70.6346392  56.5885067  52.3993254  28.6042857  59.5930958
  51.8692112  27.8623819  59.8842907  53.3026028  28.2954097  59.6632338
  51.2760496  31.9849873  46.8146658  51.4765358  32.5611997  47.5522423
  51.5917158  32.4607182  46.0463810  80.6275082  68.1766061   1.1345895
  80.8397627  69.0878657   0.9326346  80.8284188  68.0846337   2.0659383
  69.3954468  19.1759503  45.5217075  69.5758295  19.6052241  46.3580227
  68.4690571  18.9396727  45.5686665  76.7149544  32.5240970  52.9121447
  76.3198900  32.6521945  52.0497370  76.0181999  32.7453995  53.5300350
  26.5401161  56.2266771   8.6358197  25.9827179  56.9925920   8.7733539
  27.3819161  56.4709011   9.0204747  72.6054335  43.1618500  55.6574297
  73.1832409  42.4327326  55.4321289  72.8207588  43.8435936  55.0209618
  53.4206581  26.5942073  62.8997040  54.0424347  26.2231493  62.2736502
  53.2881308  27.4939084  62.6010370  33.2236458  17.7089231  16.5105088
  33.5164381  18.1977956  17.2795995  33.1968952  16.7975490  16.8019040
  68.0932141  62.0474724   2.5853189  68.4059787  62.1552996   1.6871055
  67.2734118  62.5407413   2.6143153  85.2164793  70.5990342  18.0779775
  85.3712988  70.4646353  17.1429952  86.0450554  70.9438804  18.4108098
  17.7042055  13.9183402  63.3796215  18.0976260  14.7431922  63.0948925
  18.0397558  13.7864339  64.2663240  48.3219194  31.0286450  55.3881979
  48.3276415  30.0714684  55.3913689  49.1925907  31.2744045  55.7008743
  79.8599196  51.6357557  19.1552575  80.3713417  51.1317996  18.5222467
  80.2801419  51.4597253  19.9970754  85.4964877  39.6642476   9.0867265
  85.7677317  40.0326157   8.2459148  85.2606917  40.4255548   9.6168645
   8.5511137  76.1805347   8.7628682   9.1796947  76.8984679   8.8383325
   8.3126045  76.1674527   7.8359540  25.0532627  50.4302216  61.1956596
  24.1764212  50.4874516  61.5752697  24.9052000  50.1531267  60.2914858
  14.5711768  25.2571321  68.0211353  14.4852936  25.8256960  67.2558928
  15.4131401  24.8181796  67.9000950  26.7719865  52.0984316  69.8490858
  27.3169017  51.8133020  70.5825710  26.7420244  53.0517864  69.9293804
  65.2287960   4.1023377  68.2827473  64.2812109   4.0508237  68.1576061
  65.3389549   4.6656829  69.0487385   9.3055886   7.9897398  47.3461676
   8.7290829   7.3747933  47.7997255   9.5266885   7.5498366  46.5252924
  24.8785378  11.0277669  29.4919045  25.1733042  10.4909961  30.2275880
  24.1549135  11.5440671  29.8469194  67.5647211  59.0480629   3.9766725
  68.1479073  59.4947342   4.5903571  67.4187208  58.1870405   4.3685325
  75.7245016  23.4345841  30.5619359  75.7927847  24.1686893  31.1723948
  76.1317921  22.7011442  31.0228181  33.7621857  18.6328666   9.3726667
  34.2406918  18.4875123   8.5564931  33.3444859  17.7918880   9.5584424
  23.4773016   3.7412980  68.5930300  22.6451540   3.9323747  69.0257549
  23.3352184   2.8984436  68.1621695  30.2896095   5.1071374  12.8952249
  29.8074223   4.3856590  12.4912484  29.8987414   5.8962266  12.5199922
  72.4733532  28.8019769  30.2858575  72.9338647  29.0840309  29.4955380
  71.7584992  29.4309490  30.3838761  57.2083712  10.7473528  52.2761679
  57.1951771  11.1909580  53.1242657  58.1261826  10.5096459  52.1444559
  85.1108837  11.5835297  35.4037881  84.3248081  11.1181927  35.6897545
  85.0846291  12.4133325  35.8802032  77.8448153  36.3595057  64.4548607
  78.7044764  36.0827732  64.1376305  77.9058170  36.2856793  65.4072618
  70.7751179  45.4943657  55.5256844  70.7063580  45.9015608  56.3892174
  70.3902006  44.6253681  55.6393147  86.1044741  68.9014582  22.5843556
  86.6050816  69.4078235  23.2240518  86.6848851  68.8325170  21.8263276
  32.9207731  71.9989756  11.8359025  33.4208704  71.2092999  12.0421823
  32.5023104  72.2401694  12.6623090  58.3121490  36.1359048  65.2136326
  57.6342392  35.4708552  65.0937176  58.5201645  36.1002564  66.1472750
  49.2944075   6.0000245   5.8012136  50.1714302   5.6167857   5.7874044
  48.8580824   5.5731742   6.5385373  22.8774452  56.7991601  45.9783125
  22.7176380  57.7228915  46.1717367  22.6865625  56.7135369  45.0442505
  54.8100329  51.5703098  15.7618650  55.5418706  51.4038209  15.1677831
  55.1330734  52.2478501  16.3558419  28.3001065  27.7558184  61.1744308
  28.5374689  28.1730270  60.3462839  28.8139725  28.2223773  61.8335962
  49.3195248  47.3700047  69.3734741  49.2852783  46.4279461  69.2073965
  50.2538109  47.5780249  69.3812895   9.9971224  59.8597649   2.7973683
   9.4872976  60.1825348   2.0543130  10.8776642  60.2058379   2.6520761
  34.6345496  30.6492138  59.9716520  35.1410627  31.3291669  59.5274258
  33.8585424  31.1040139  60.2990723  81.0904360  70.7598714   0.3759177
  80.3547049  71.1905936  -0.0592963  81.7916918  71.4112309   0.3618510
  65.9198999  41.5547991  66.4322615  65.5754471  42.0232868  65.6719303
  65.3975010  41.8749142  67.1676922  22.7680826  41.4772272  50.7216167
  23.5827541  41.1237812  50.3643799  23.0283117  41.8968678  51.5416241
  59.3032742  19.7104704  54.5739841  58.4839296  19.6782279  55.0678205
  59.9794912  19.5000374  55.2179432  54.5519567  57.6102487  24.2781003
  54.8816872  58.2069866  23.6062272  55.3326631  57.1640197  24.6061452
  40.6659925  27.1231524   8.6033900  39.8532117  26.6615883   8.8097318
  40.6225849  27.9274753   9.1205056  26.3837794  55.2214507  24.6640332
  25.9850109  54.7292916  25.3816636  26.5511071  54.5652703  23.9875253
   8.9637686  76.6153792  35.9437116   9.4594122  75.8018903  36.0375531
   8.7956453  76.6863779  35.0040753  22.4762751   6.0658710  12.1689256
  23.3666064   5.7246177  12.2531064  22.3309017   6.1254852  11.2247022
  68.7248611  24.8046756  66.1801815  68.9184523  24.4603181  65.3082991
  68.3630085  24.0581322  66.6576385  38.1067038  31.2332106  57.9714870
  39.0600657  31.1574101  57.9316854  37.9426241  32.1755862  58.0066919
  34.9707150  20.5295634  57.4286795  34.7741890  20.3174782  56.5161943
  34.6841860  21.4371586  57.5306940  63.9022470  40.5376588   0.3419097
  63.3129526  40.7384489  -0.3851716  64.0945602  39.6051205   0.2438291
  63.9096403  54.3365908  66.0123348  64.0940619  53.4828711  66.4039707
  63.0514145  54.5791960  66.3599348   3.3016420  73.6779908  17.0210870
   4.0459562  74.2656449  16.8911393   3.2481886  73.1757573  16.2079843
  49.0386819  80.5784568  65.2326488  48.7084913  80.9477938  66.0516739
  49.2110872  79.6592944  65.4367304  68.5136366  49.7429609  64.4153118
  67.7557039  49.3775129  63.9589977  68.7405491  49.0824080  65.0698423
   1.6889549  77.9424743   8.8273175   1.1725689  77.5818662   8.1065257
   2.0869995  77.1775655   9.2429002  46.8327737  46.8478886  12.7606042
  45.9694291  46.5500585  12.4739678  46.9051350  47.7384249  12.4171861
   0.7707192   0.5714385  10.9275754   1.2928845   0.9220235  11.6491445
   1.2648798   0.8011548  10.1406415  58.7462163  49.9578813  21.4904626
  59.3569303  49.2511485  21.2812074  59.3057347  50.7164196  21.6571649
  82.3059202  35.5649726  18.3626969  82.4413515  34.8482292  17.7428849
  81.5811420  35.2707879  18.9144071  16.5803457  17.6848428  14.2389043
  17.3422028  17.3532693  14.7141583  16.8912531  17.8044288  13.3415349
  34.4078207  80.2068252  58.7162876  33.7482452  80.2516431  59.4085169
  34.4081020  79.2889356  58.4447908  64.3238211  20.1822758  46.8407393
  63.7315130  20.8015203  47.2672844  64.2663860  19.3896222  47.3742485
  18.1718755  41.8948317  58.6296415  17.5186277  41.7017794  59.3021202
  17.9325605  41.3307095  57.8943014  81.7211485  60.0344387  18.3390458
  80.8996153  59.9211434  17.8610452  82.3971844  60.0135056  17.6617177
  76.9046450  46.8834040   8.9039023  77.3216820  47.6694450   9.2566808
  76.4670802  47.1817437   8.1065543  43.2959105   4.0480916  18.5760243
  42.9786659   3.1669633  18.7740262  44.2222620   3.9278095  18.3671315
  42.7739143  34.3056583  59.3591404  43.6805820  34.6029806  59.4351721
  42.6929760  34.0135670  58.4511948  44.1587448  30.9188819  65.3916883
  43.6675692  30.5424953  64.6614075  43.6210060  30.7351947  66.1619663
  64.1886473  63.0578899  69.5223951  64.1688299  63.0330229  70.4790688
  64.5722818  62.2183752  69.2688799  79.5701075  80.7529262  10.6633599
  79.5862389  80.3752450   9.7839673  79.1229058  80.0966457  11.1977132
  86.5527344  43.7925915   1.0924705  86.7430163  43.1011986   0.4584344
  86.1444950  43.3368046   1.8285592  64.1579103  18.3679020  62.6664257
  65.0347137  18.4745646  62.2975445  63.8047075  17.5954700  62.2250319
  63.2565714   6.3396947  23.6450704  63.3598162   7.2001426  23.2386239
  63.6295916   6.4420812  24.5206292  66.1468625  50.6443540  35.3062852
  65.8254934  50.5845330  34.4066270  66.9192911  50.0792722  35.3227647
  68.5258365  67.8590516  30.4882463  68.0027175  67.2230605  30.9761937
  67.8814721  68.4459547  30.0925572  43.6462736  66.8879175  66.0640574
  43.7246084  66.1283779  66.6412926  43.1021166  66.5821314  65.3383732
  44.5537281  65.7154131  60.9114742  44.7660160  66.0989952  60.0605774
  44.4775009  66.4661884  61.5003347  84.8872662  59.3176126  67.0254135
  85.5877590  59.9073362  66.7465401  84.2255974  59.8949432  67.4063540
  75.0686026  52.8567457  51.3007069  75.6589127  52.9958773  52.0412540
  75.5738544  53.1337070  50.5363464  37.3014092  33.8360238  70.8757257
  37.8840351  34.5366836  70.5827141  37.7938342  33.0314302  70.7133245
  82.3215889  76.4148008  60.0743580  83.1153535  75.9293967  60.2992010
  82.3182582  77.1599581  60.6751585  42.4940920  32.6067233  62.3299408
  42.6672840  31.8259192  62.8558493  43.1974840  32.6191759  61.6808558
  39.8199248  23.0238676  69.7329664  39.9257135  22.1494079  70.1076174
  39.9193859  22.8940058  68.7898445  41.9990873  34.3471169  64.7485495
  41.1135960  34.4900322  65.0827789  42.0663309  33.3977270  64.6467113
  62.0169950   9.4301680   9.7136434  62.0395899   9.2711142  10.6572660
  61.4940763  10.2261046   9.6173604  49.1711855  44.5627975  69.0657616
  48.3610249  44.0814781  68.8978386  49.4923544  44.2091417  69.8952246
   2.9400850  72.1360878   1.3377650   2.7228189  71.8271259   0.4582389
   2.9797817  73.0887846   1.2539561  10.5625082  53.1051064  57.0324612
  10.0794626  52.3252058  57.3056889  10.9903741  53.4138536  57.8311062
  85.8292961  33.2933402  47.9845047  86.0685825  33.9520121  47.3324871
  85.1476383  33.7126946  48.5095930  55.2132273  28.9065409  45.0135040
  54.9621153  28.9217901  44.0899611  54.5048571  29.3683982  45.4619789
  77.1447897  71.4646677  22.1480592  77.3635960  72.3558549  22.4203523
  76.6742707  71.0947064  22.8950341  39.9221611  15.9713316  56.5555096
  39.2345619  15.4403901  56.9574308  39.7482300  16.8610168  56.8628168
  68.2092667  16.8623793  58.4086323  67.4168921  16.5138018  58.8171244
  67.9584026  17.0246625  57.4992561  15.3078889  79.1815900  40.0930786
  15.8022689  79.8370831  39.6009922  15.9771585  78.6134928  40.4746199
   7.2403408  59.2871956  19.1828378   7.6243664  58.5588244  19.6709283
   7.2929359  59.0156237  18.2664807  16.1657774  32.0968676  57.4579048
  15.3636873  31.5944076  57.6007891  16.4639425  31.8299079  56.5883875
   1.1801506  70.4074076  18.6003049   1.3620020  69.5090774  18.3243306
   2.0420051  70.7798127  18.7867387  18.9022041  48.2733671  25.1844152
  18.9369465  47.4046198  25.5847867  19.2501474  48.8604955  25.8555635
  47.4651384  34.9451828  60.9347963  46.7497683  35.3751040  60.4661322
  47.0298862  34.4181657  61.6049004  31.4273787  35.9189057  70.3183889
  31.4429450  34.9826694  70.1197577  31.5807486  35.9661293  71.2620401
  75.0482083  77.8805665  31.1221250  74.3822861  77.6354412  31.7645391
  74.9665165  78.8310055  31.0432275  62.4353933  18.1472886  30.8599114
  62.7443361  18.9640737  30.4679298  62.3773909  18.3378506  31.7961550
  60.8333969  65.6609038   6.2084754  60.2524996  66.3600878   5.9085925
  60.5234242  64.8792867   5.7510694  -0.1602673  49.7723023   2.1817334
  -0.2855181  48.8350937   2.0327886   0.4785086  50.0367651   1.5197261
  20.5892444  40.2749561   2.2727807  20.1466108  39.4314939   2.3669942
  21.4751030  40.0501044   1.9882949  12.4205090   5.9822337  16.8376096
  12.3292233   5.8614747  15.8924516  13.0818201   6.6682451  16.9286569
  84.0523577  78.5819153  13.6702855  83.8543606  77.9417709  14.3538411
  83.6206770  79.3849448  13.9618810  34.8810364   7.8502815   1.8550857
  34.5471550   8.7409942   1.9618114  35.8325363   7.9522149   1.8329032
  50.9874773  10.5119932  60.2187538  51.2548542   9.8196334  59.6142864
  51.3354826  11.3153529  59.8317957  67.3656845  13.8174272  38.4824753
  68.2281923  13.4102094  38.4019804  67.0153713  13.8145304  37.5916839
  33.5477281  66.6227869  20.2610620  32.7625585  66.0912708  20.1298364
  33.9331842  66.2851099  21.0695394  57.9956150  41.8995285  59.3645287
  57.2173405  42.2644901  58.9434338  57.8752232  40.9515047  59.3098354
  72.6891184  63.5430125  20.6472714  72.9035616  63.4845570  19.7162278
  71.8160582  63.9349011  20.6678231  37.4580669   9.5748645  51.8700600
  38.1267047  10.0728202  51.3997459  36.7524290  10.2039230  52.0203590
  21.4827705  73.5320047   1.6209825  22.0261980  72.9692749   1.0693915
  20.5936743  73.1982592   1.5011724  68.0264521  44.8461199  64.5377541
  68.8259602  45.3709078  64.4975471  67.9661608  44.5711994  65.4526377
  84.3554211  21.7619705  25.2907538  83.8193893  22.1577835  25.9779477
  83.7218380  21.3907552  24.6767426  59.9671173   5.2551562  67.8419399
  59.3895149   5.3852326  67.0898151  59.5250225   5.7023484  68.5636091
  41.1523104  31.5733624  64.9982214  40.7298517  30.7633352  64.7125340
  41.6270113  31.3286567  65.7925844  64.8799944   6.7136544  56.8865776
  64.6376228   6.3476104  57.7371645  64.9842453   7.6509988  57.0501280
   1.2264038  12.8137653   1.4607795   1.9889618  12.7680557   0.8840211
   1.5821363  13.0846326   2.3071368  74.9385023  20.8296013  53.6606979
  74.5858288  20.3453612  52.9141283  74.7401476  20.2793431  54.4183922
  63.8550616  11.5799097  13.4563001  63.3755684  12.1692566  14.0385278
  64.3666602  12.1620969  12.8945573  44.0788771  57.6164023  16.0178216
  43.7736059  56.7239658  16.1808999  43.9200426  58.0780796  16.8411382
  56.9662310   2.8441875   5.5843099  57.1076895   3.7899558   5.5425818
  56.6213824   2.6921861   6.4642032  56.5627432  32.5566030  60.2999544
  56.1408949  31.7826390  60.6731224  56.0824203  33.2951093  60.6742954
  16.9630981  71.1266545   3.0247386  16.6759706  70.6111101   2.2710784
  17.3725630  70.4887799   3.6092742  61.2501383  69.7670603  59.4913101
  61.9962740  69.6573877  60.0807858  61.0010576  68.8744640  59.2515898
  21.9212557  79.2500333   3.2215055  22.0674587  78.3507756   2.9279168
  22.7289701  79.4876198   3.6768992  39.4145012  69.9261427  69.9838543
  39.5380020  68.9818621  70.0803852  39.7150183  70.1174116  69.0954065
  62.6174355  49.5689917  69.4632339  62.9022741  49.9126673  70.3099871
  62.3508739  50.3434229  68.9678240  69.2221737  41.7198181  54.3614054
  68.8661861  42.4486780  53.8532019  68.8860655  40.9369183  53.9251328
  81.0747290  63.7056927   7.8420718  81.2725401  63.8526419   8.7670072
  81.8936253  63.3767656   7.4713309   6.2795711  48.4781549  22.8737863
   6.7628647  49.1671929  23.3297284   6.6848398  47.6638607  23.1719621
  58.2723236  69.4712118  22.5737699  57.8137374  69.0733436  21.8337472
  58.8287497  68.7711529  22.9151471  45.8385349   9.4616716  40.1244481
  46.5127112   8.7868516  40.0448545  45.0338484   8.9760940  40.3059133
  79.8721695  43.8903952  67.3340654  80.3224087  44.6469927  66.9584656
  79.6031237  44.1802168  68.2057571  66.9653368  49.3329191  43.0012798
  67.9012394  49.3286705  42.8005266  66.7357445  50.2607203  43.0532980
  69.9801636  78.9163164  -0.1761739  70.9164477  78.8883594  -0.3732030
  69.9137020  79.4850592   0.5908664  69.6259356   6.7394675  65.5408335
  70.3200293   6.1830176  65.8941507  69.0449477   6.1341990  65.0800419
   5.8846355  76.9868258   9.8701413   6.4277101  76.4326290   9.3096288
   6.4798714  77.2907356  10.5553849  76.4615441  67.0881013   8.5933574
  76.5550614  66.1354903   8.5892327  76.0809088  67.2950963   7.7398379
  78.4295654  11.3944268  44.4488001  77.9442978  11.8478596  43.7594891
  78.2985687  11.9339633  45.2285242  74.4666052  57.4161339  66.0298252
  74.7915506  56.8472385  65.3319740  74.7275782  56.9759178  66.8387365
  56.9107771  59.0584469  61.2270689  57.5529671  58.3845997  61.4501190
  56.5436316  58.7719631  60.3907871  31.4371611   6.0025518  27.6451715
  30.5984284   6.0771911  27.1899922  32.0285107   6.5716045  27.1525128
  20.0489832  19.2710464   0.9075196  20.9317900  19.5523326   0.6671937
  20.1814390  18.6583488   1.6309054  19.1790463  14.7466867   3.9676889
  18.8545395  13.8790147   3.7267049  19.7797466  14.5842473   4.6950133
  65.6606197  33.2368159  59.0721083  66.3611174  33.7131333  59.5178127
  64.8920536  33.3657050  59.6279192  27.2914196  38.1858890  28.3364232
  27.3364283  39.1086070  28.5870011  26.6702248  37.8000038  28.9540322
  25.8545519  52.4644188  13.9254792  26.3028074  51.9628636  13.2444890
  25.1429106  52.9098109  13.4656747  53.9084269  28.7232511  12.1796830
  54.1826941  29.2237823  11.4112599  54.4909788  29.0195958  12.8789933
  60.4720211  65.5305338  62.0243025  61.0566950  64.8304224  61.7340755
  59.5933962  65.2061224  61.8267965  78.5756922  30.8644438  56.6638899
  79.0702009  31.3873029  56.0327721  78.5349512  31.4114070  57.4483681
  11.2400652  16.4433591  10.7699044  11.3958145  15.9794633  11.5925725
  11.9968487  17.0215576  10.6739934  26.8835665   4.7511880   3.1453689
  26.3952233   4.1909044   2.5421794  26.7845799   5.6330221   2.7864774
  57.8374529  37.9136300  52.4899197  57.4468470  37.4209213  51.7681885
  58.7780619  37.8910446  52.3139238  14.2940069  24.4590187  38.3745909
  14.1977239  25.2633643  37.8646994  14.8514581  23.8985515  37.8348160
  62.8232050  66.7801332  62.7179384  61.9660568  66.4891434  62.4067163
  63.4243441  66.5575266  62.0070887  83.9812828  20.6741588  17.0573648
  83.8197685  21.3351314  17.7306111  83.1465102  20.5932300  16.5960248
   4.1904665  65.9658555  30.9090741   4.2009998  65.6973056  29.9903710
   3.5383488  66.6655425  30.9466107  18.9669825   2.5719516  10.1533731
  19.6356941   2.3136442  10.7876714  18.8878704   1.8183868   9.5684655
  57.1561909  31.6058660  49.0353107  57.8625250  32.1802735  48.7397099
  57.4902868  31.2101889  49.8403311  58.7510897  30.8928315   8.5629781
  58.8218905  30.0453107   9.0022166  58.9898611  31.5314739   9.2348035
   1.1955429  61.5105823  13.6999829   1.7266537  61.0008363  13.0881627
   0.7307363  62.1390847  13.1475575  44.5850922  27.3772161  11.6819032
  45.5213143  27.4975507  11.8407567  44.2804075  26.8590896  12.4268468
  13.5047365  43.1015460   8.7721141  14.2733933  43.6665408   8.8507016
  12.8402020  43.5241859   9.3161805  23.9572884  58.5222690  11.0088285
  24.2222143  58.4972541  10.0893624  24.6637799  58.0741660  11.4739163
  63.2241846   0.7936733   8.0101855  64.1336275   0.6209962   7.7666266
  62.7623774  -0.0187905   7.8031285   7.9361177  61.5798521  57.4595737
   7.6042486  62.1572924  56.7720747   8.6407590  61.0870695  57.0390081
   3.9841724   5.8765925  70.3074503   3.5175873   5.5948962  69.5205688
   4.6695257   5.2192820  70.4277325  15.1756645  23.5145395  18.6957868
  15.1792170  23.9705722  17.8542169  14.3891550  22.9696052  18.6695989
  41.3164901  81.3232638  61.3378048  41.0772228  82.1293673  61.7951679
  41.6456985  80.7457915  62.0265579  29.4277407  13.3754031   6.0160192
  28.5510279  13.7385385   5.8905347  29.4309212  13.0645959   6.9213517
   1.5393616   8.7556093   7.4263509   2.2895766   9.1477411   6.9795402
   1.8727590   8.5194461   8.2919772  71.4258146  46.1607361  22.5928426
  71.2597609  45.2495670  22.3511291  70.9035110  46.6715908  21.9744086
  10.9494377  67.9649857   6.5440400  11.3489176  67.1452502   6.8350442
  10.0898004  67.9751567   6.9649394  71.0057545  66.3828544  18.8854726
  70.5240488  67.2100142  18.8863500  70.3256607  65.7096080  18.9065488
  78.7312079  59.9554674  31.8525632  79.6094895  60.3039423  32.0055802
  78.8637734  59.2329255  31.2388928  55.8839035  80.5835342  60.7922077
  56.6472101  80.2347946  60.3318024  55.9491920  80.2187061  61.6747427
  74.8809243  70.4348425   4.5006402  75.1887703  69.5777134   4.7952493
  75.4309464  70.6399993   3.7445911  67.7865530  26.5622060   1.2571557
  68.4241987  26.0519140   1.7563947  66.9400431  26.3227908   1.6344150
  61.9953585  52.0531368  67.1319008  61.6903591  52.9533386  67.0185566
  62.3641062  51.8162489  66.2809372  79.6548843  64.1414690  68.5493517
  79.5810890  64.4685507  69.4459009  80.5961990  64.1272831  68.3762884
  68.9159489  70.4051256  33.8114619  68.7375689  69.4647551  33.8005376
  69.7877741  70.4880333  33.4250975  54.9302984  18.7143390   0.7236178
  55.0867487  19.4229286   0.0993903  55.4843641  17.9971330   0.4156192
  59.2557907  68.0336189  62.2037029  59.7927570  67.2713375  62.4201012
  59.5787477  68.7256813  62.7807426  38.8830353  13.8701026   3.6576732
  39.2458416  13.1461971   4.1681274  38.1106878  14.1472452   4.1505225
  19.6660877  78.9878849  21.9391664  19.2260242  79.4024972  21.1970933
  19.2679239  79.3921093  22.7100785  69.6208525  39.0256453  66.6442060
  69.9986744  38.9128089  67.5164175  70.2216387  39.6227264  66.1983538
  79.8280001  43.0098391  56.8612623  80.5693913  43.5815287  57.0606089
  79.1522026  43.2664299  57.4887133  15.6728579  18.3234899   3.7364944
  14.8975683  17.7675741   3.6582645  15.4143120  19.1529815   3.3348353
  48.0485131  27.3141639   1.7384370  47.6624514  27.8893916   1.0779079
  47.4617220  27.3862188   2.4912389  60.1027155  27.9550195  68.3052206
  60.4732132  28.0408740  69.1836214  60.5512857  27.1977186  67.9290390
  21.1862494  19.4405143   3.9989503  20.4284979  19.8767631   3.6094220
  20.9006621  19.2077606   4.8824056  48.6321592   9.5380449  60.9183550
  49.4697809   9.8903787  60.6175518  47.9919147   9.8738444  60.2910089
  67.3571587  61.0777760  70.3747606  67.5422668  61.3842678  71.2624693
  68.1273651  60.5631495  70.1335716  85.8066701  80.0301982  60.3617191
  85.3740286  80.5715270  59.7014046  85.2738475  80.1413006  61.1491108
  25.5830122  72.1800140  34.9888738  25.9911943  72.2136430  34.1237195
  24.6443868  72.1267537  34.8089536  51.5191936  24.7835493  63.8510847
  52.0537281  25.4682398  63.4489584  51.9282389  24.6295118  64.7026634
   9.2960573  32.2037053  60.1972866  10.2236200  32.0992136  59.9852943
   9.2760969  32.9095960  60.8434677  40.6137396  39.1572921   2.6764186
  39.7505022  39.3445937   3.0451663  40.9837700  40.0187175   2.4833854
  24.5016648  31.4036338   2.4369271  24.9259974  31.6577594   1.6174205
  23.7176443  30.9276359   2.1631177  22.8287913   5.0204103   6.6315444
  22.7142693   5.8198230   6.1176761  22.0106245   4.5385711   6.5104421
  11.5283418  26.2636423  70.3638315  11.0422731  25.4645586  70.5673981
  11.4622236  26.3484621  69.4126940  17.1977688  23.8451783  50.2678235
  16.8305660  23.0905073  49.8075326  17.3843361  23.5208289  51.1488565
  31.5852715  16.7528407  23.3260949  32.2294546  16.0585229  23.4645780
  31.7939497  17.1039884  22.4604352  14.1540552  67.2024802  27.4233850
  13.2740379  66.8295721  27.3710759  14.0246654  68.1414012  27.2895272
  61.9207859  35.2175570  69.7393990  62.2844839  36.0735869  69.5132017
  61.0805988  35.1858187  69.2818928   2.2743631  74.0703157  49.6924146
   1.8351866  74.6816758  49.1011556   2.8506256  73.5594682  49.1239198
  25.0283623   9.9678421  58.2006598  25.2307534  10.9033918  58.1965446
  25.1717973   9.6957451  59.1070938  80.7160378  69.4749880  35.5304456
  80.2842236  69.1086245  34.7587299  80.3907204  68.9475393  36.2599611
  70.6737232  45.9282827  66.6247272  70.7787514  45.2042341  66.0075140
  69.9747372  45.6422329  67.2127962  21.5804767  77.3595279  43.5107422
  21.4654874  76.6425102  42.8871250  21.8692016  78.0986058  42.9753590
  10.8746076  50.9571552  53.1020737  10.7734514  50.0426340  52.8381634
  10.0624586  51.1642504  53.5644245  57.0810699  72.0813465  54.2735720
  57.4039364  71.7089128  53.4530306  57.3076296  73.0098391  54.2206907
  71.0066462  40.6396437  65.0856781  71.8853951  40.8398247  65.4081059
  70.6922102  41.4658642  64.7186375  42.5269438  14.3062274  38.7238057
  41.6998745  14.4067352  38.2525476  42.9626919  15.1528756  38.6261209
  31.0933853   6.3054149   7.5662358  32.0395638   6.3842933   7.4447568
  30.9452511   6.5728252   8.4733089  13.7207151  49.1013575  69.0097094
  13.6752725  49.2395306  68.0636263  13.4085870  48.2053566  69.1361666
  32.9105974  22.7674072  11.1488183  33.7238146  22.3132150  11.3693078
  33.1930376  23.5411613  10.6612046  41.9064665  58.1168318  61.1422014
  42.2828388  57.2684240  60.9081411  41.0135841  57.9139805  61.4212036
  38.4300852  11.1977422  64.6169758  38.0741787  10.7166839  63.8698816
  38.5737419  10.5286539  65.2862406   6.8881966  54.8683994   0.6270202
   7.1113206  55.7193153   0.2496656   5.9493185  54.7739093   0.4663594
  14.8259235  69.4277839   5.4745324  15.2873731  69.0653828   4.7182496
  15.3800274  70.1504139   5.7694896  71.4144850  62.6380304  42.3710473
  71.3036538  61.7599777  42.0063909  72.1345759  63.0174426  41.8673070
  14.9447370  78.9613179  11.9261201  15.1518560  78.2257727  12.5025781
  14.4045139  79.5413975  12.4626763  14.7348237  51.3898659  46.2040281
  15.2637220  50.7834768  46.7224741  14.0472055  50.8431530  45.8238554
  32.6707674  78.5632805  13.9647420  32.7112127  79.1164831  13.1846364
  32.9032350  79.1484813  14.6856626  44.4657922  68.4331564  28.9450105
  44.7689546  69.2534593  28.5558732  43.7525809  68.1466249  28.3745130
  51.7985487  21.3109732  69.0432644  51.6466856  20.7297587  68.2980394
  51.0473680  21.1645555  69.6181774  22.7269865  64.6449927  13.6030992
  23.5590483  65.0728253  13.4009107  22.5835348  64.8270277  14.5318158
  57.6879358  25.0331116  67.6847458  57.7419090  24.4324708  66.9414091
  56.8804693  25.5253816  67.5367689  85.9655666  45.2878189  67.6671267
  86.6986561  45.1892424  67.0596075  85.2110767  45.4649210  67.1053267
  16.8915058  47.0292637  19.0737470  16.8331982  47.0529804  18.1186135
  16.8315531  47.9466674  19.3402131  31.0286975  22.7173519  66.6941261
  30.8519578  23.3103585  67.4244261  30.9442592  23.2659531  65.9142971
   3.4197260  61.3155631   0.1950009   2.9271293  61.1673669  -0.6122319
   2.7722097  61.6577867   0.8113130  60.0706673  31.6399240  52.3652172
  60.2443027  31.7872119  51.4354944  60.9321976  31.4686704  52.7455759
  16.0134484  36.4905803   9.7527535  15.2322603  35.9540098   9.6183427
  16.0290934  36.6590755  10.6948789   7.6553179  76.1087970  25.8936914
   8.0891491  76.5628795  26.6160710   8.3691097  75.8474401  25.3119405
  58.1865168   6.3591444  69.6288776  57.9335308   7.2498673  69.3863058
  58.0452538   6.3192302  70.5747557  72.3979712  56.4816523  45.9760714
  72.5122976  57.1026802  45.2567101  72.3131752  57.0308638  46.7554331
  29.2461897  73.8077144  21.0195859  29.0876985  74.4665388  20.3435262
  28.7964178  73.0249814  20.7013639  78.6003256  31.2709904  63.1484890
  78.5572720  30.5590749  62.5100899  79.4515848  31.6803932  62.9936504
  67.1165753  63.6711506  15.1980336  67.5681377  64.2261676  15.8338674
  67.0373249  64.2179827  14.4164117  86.1517906  66.3498592  62.3901081
  86.0959816  66.6257286  63.3049917  85.4082108  65.7587099  62.2724104
  43.6887741  77.9639626  67.4234104  44.0946245  78.7179136  67.8512812
  43.6378717  78.2112598  66.5001106  55.9985090  81.0761527   8.3314260
  56.3072968  80.2369241   8.6728604  55.2562213  81.3039569   8.8911994
  56.8943930  46.0706520  70.5274200  56.4888048  45.4431248  69.9291372
  57.8283215  45.8634138  70.4948521  84.9275303  51.3574886  70.2962065
  84.7489643  50.4927635  69.9266243  85.6883335  51.2238979  70.8615112
  47.4468209  25.1207273  21.5693887  46.9139935  25.8402173  21.9080003
  47.4344279  25.2398507  20.6197103  57.9351473  36.2168550  50.2356052
  57.6735640  36.0849977  49.3243313  58.5571671  36.9436908  50.2034664
  59.4454527  64.3349695  70.1489019  59.8189783  64.9940443  70.7339907
  59.5288372  64.7159004  69.2747307  35.2828480  21.0624711   8.3566745
  35.1287438  21.7079513   7.6668628  35.6505371  21.5690057   9.0808709
  22.3958422  69.2714146  15.4777749  22.8341604  68.8043765  14.7664483
  21.4690138  69.2560366  15.2390702  78.9592505  40.0988674  66.1370516
  79.6076393  39.5485282  65.6977797  78.1156969  39.7255945  65.8814812
  11.4909674  26.7293565   2.3161252  11.4596297  27.6504581   2.5746186
  11.2287451  26.2508313   3.1025632   2.4728513  36.8229795  54.4811773
   1.7853189  37.4811316  54.3794203   2.3046518  36.1908770  53.7823296
  78.6267900  28.5462832  58.7611580  79.4732380  28.1576324  58.5404539
  78.0022335  28.1011820  58.1884050  40.0256754  29.5632713  13.2271512
  40.0028874  28.8421123  12.5981458  40.4174973  30.2905338  12.7436193
   3.8006045   0.8050840  41.7630323   2.8513075   0.7165019  41.8480237
   3.9445783   0.9535472  40.8284410  16.8141390  23.9002340   4.7612413
  16.6799332  23.7953489   5.7031663  17.6484562  24.3637388   4.6883328
  22.1038748  69.8517159   9.9370416  22.9764009  69.5803956  10.2222093
  22.2254110  70.7426671   9.6089109  56.7775297  38.1287074  69.3724489
  57.2214985  38.9160609  69.6874046  57.3943996  37.4186563  69.5500278
   9.9983908  78.6435822  15.6991895   9.9221922  78.1445078  14.8859532
   9.3270708  78.2724670  16.2717565  63.6991239  72.1776084   7.9098352
  63.6196566  72.0429972   6.9654878  62.8150463  72.0339588   8.2474835
  35.2613713  14.6330945   1.0304149  35.1216818  15.4574506   0.5644162
  35.2466799  14.8758380   1.9562085  72.6909733  50.5867052  68.0106640
  72.3426151  49.8395205  67.5242567  73.1920338  50.1944447  68.7257195
  76.4022566  11.6120498  18.1849130  75.5176092  11.9647186  18.0887445
  76.5722300  11.1626069  17.3570569  76.5282679  35.6632161  19.0339684
  76.3721943  36.5348125  19.3975556  76.1105871  35.6845570  18.1729686
   4.7545219  76.9957355   6.3803943   5.7088066  76.9269780   6.3513644
   4.5879961  77.8605918   6.7552598  48.9205147   0.9870927  11.7989095
  49.2629839   1.4677684  11.0453160  49.6324516   0.3993575  12.0517858
  78.9161301  48.4507847  60.8650970  78.0252886  48.7946987  60.7990980
  79.2670107  48.8461924  61.6630745  42.8717994  67.5999176  26.8819046
  43.6415386  67.3985445  26.3497615  42.1936702  67.0083498  26.5556836
  50.5372047  45.8436632  60.6084633  50.0032330  46.0421038  61.3777018
  50.2082586  44.9993849  60.2998877  67.6253462  13.9998984  53.5800600
  66.9589615  14.0989733  52.9000998  68.4571218  14.0931821  53.1156492
  76.5156126  51.7652988  68.0088902  77.1027660  51.7414713  68.7644768
  77.0375061  52.1638918  67.3124838  27.2512984  54.2870188  63.7902880
  26.4284801  53.8696718  64.0452909  27.3347664  55.0339556  64.3830347
   9.5366932  79.5798448  11.0666879  10.1565910  80.2276710  10.7316144
  10.0689197  78.8012413  11.2302049  65.7181835   9.8981285  21.5433788
  66.3320637  10.6318533  21.5112710  66.2520599   9.1507888  21.8129873
  72.1291972  65.8845357   8.4008916  71.6872311  65.0548509   8.5812171
  72.5844002  66.0955480   9.2160543  77.5215769  61.8195820  64.3247509
  77.3289967  62.5832605  63.7807417  77.2392178  61.0724163  63.7972641
  82.1094990   4.0061268  70.0438452  82.5316715   3.1473842  70.0676489
  82.2353840   4.3100658  69.1449499  75.4388142  36.5727854  41.8714380
  75.5572891  36.7567778  40.9395885  75.5310583  37.4249792  42.2974539
  26.1793114  20.9415214  38.7045415  26.2570168  21.7536990  38.2039769
  25.2920557  20.9650247  39.0629514  47.0607996  43.1085777  68.8292599
  46.3222694  43.1778622  69.4342375  46.9704294  42.2389746  68.4395742
  55.5913950  15.6493585  23.2561620  55.7534338  15.5452077  24.1937764
  55.8044268  14.7953527  22.8799661  65.7376791   9.5804708  13.4876092
  66.6412951   9.8962276  13.4875424  65.2060248  10.3758590  13.5182698
   4.5962930  57.9866505  66.0174084   4.0518022  57.3758221  65.5207729
   5.3297163  58.1823206  65.4342794  74.8067188  32.9320288  54.8023558
  74.9250174  32.5298190  55.6628609  74.4408560  33.7963653  54.9902296
  60.5534983  36.2729073  48.8254356  60.7472944  35.9750628  49.7142363
  60.2951527  37.1885562  48.9306641  72.9774893  26.1517827  17.8543218
  72.3804427  26.7101590  18.3523019  72.5336076  25.3048103  17.8114541
  66.7556095  39.1722941  54.9976301  66.6107607  40.1176357  54.9578571
  66.4396381  38.9178395  55.8646059  82.3862648  64.4033194  59.2204428
  82.2553253  63.4833860  58.9906406  82.0623302  64.8882532  58.4614086
  53.0520678  61.2098360  47.6424789  52.4416018  60.5022764  47.4352932
  52.8641891  61.4286947  48.5551834  19.3545341  36.0069633  63.5451317
  19.8391914  36.8192816  63.3985758  19.6147132  35.4386997  62.8201389
  69.4860983  64.2808008  58.3428001  70.2759218  63.8837337  58.7098789
  69.8117924  64.9596453  57.7517653  66.9680977  12.2858334  57.4650049
  66.1492538  11.9763398  57.0777893  67.2110319  13.0456877  56.9360113
  56.0730267  45.2006912  63.7726736  56.1770725  45.0525570  62.8327465
  55.1425314  45.3963852  63.8827419  63.9095783  42.0580530  68.6176348
  63.0193138  41.7468929  68.7814665  64.0580416  42.7237034  69.2892790
  16.0047985   4.9326389   8.4267934  16.1522604   4.5427482   9.2884572
  16.5753056   4.4374053   7.8390058  81.2060118  55.7788793  14.7546418
  82.1396304  55.9865204  14.7162564  80.7700491  56.5826575  14.4716008
  71.5319490  67.7905369  63.6294651  70.7822132  68.0333328  63.0861664
  71.1652184  67.6754999  64.5061111  37.6299502  16.3183181   1.9330438
  37.6331831  15.6473129   1.2504228  37.8233124  15.8404367   2.7395614
  57.3905398  29.7855203   3.6863931  57.4014307  30.2914302   2.8738864
  57.1313978  30.4164712   4.3579467  32.1020294   5.6635682  40.4590257
  31.4366556   4.9775617  40.4050954  32.3768784   5.6591050  41.3759072
  26.7716051  63.8296751  30.9087689  27.1242739  64.4577268  31.5391763
  27.4513460  63.1601409  30.8318646  12.4243952   1.2260855  51.1899185
  13.0934978   1.5493334  50.5865574  12.0655657   0.4514731  50.7569790
  14.3923689  17.1041934   1.3507541  13.9103533  17.8789108   1.6400655
  13.8980080  16.3669269   1.7089065   2.2721029  25.9499423  24.6556409
   2.1947695  26.2659948  23.7554391   1.3684083  25.8795230  24.9632295
  74.9093103  45.5629873  63.8408422  75.1173115  44.7511196  64.3032598
  74.0479517  45.4046679  63.4545469  10.3760601  59.0315906  17.8576882
   9.8755432  58.7209705  17.1032174  10.0855232  58.4777526  18.5823186
  57.1348047  21.6864228  52.4485540  57.9148436  21.2351704  52.7712631
  57.4756527  22.3781061  51.8814325  73.9197540  62.0737696  36.0614252
  74.3170595  62.7905798  35.5668926  73.8346100  61.3628483  35.4261518
  12.8767563   8.3197821  59.7896910  12.4881197   9.1548956  60.0500298
  13.2842661   8.4990538  58.9423227  78.7834479  19.9480073   5.1945622
  79.5051409  19.7981422   4.5838864  78.2028986  20.5546443   4.7350200
  58.5678339  71.0937262  60.7774019  57.7655315  71.0818052  60.2554750
  59.1623497  70.5019855  60.3162909  73.3471060  60.2350187  56.8676805
  72.6070166  59.6992779  56.5822411  73.1569433  61.1082745  56.5249062
  16.7356516  80.3375677  46.1519845  17.3044611  80.7353739  45.4928716
  16.7736698  80.9390334  46.8956407  21.7870832  18.2074011  49.9307728
  21.2935234  18.7078322  49.2810059  21.2659717  18.2742251  50.7309055
  43.0278851   2.7019899   9.1638215  43.3596970   2.1204965   8.4797175
  42.2145916   2.2896449   9.4549687  65.4359388  64.9355650  47.5173426
  64.8688364  64.8015928  46.7579508  65.7309532  65.8427811  47.4388838
  84.1277027  67.1219683  67.1167469  83.3121967  67.5310802  67.4062347
  84.4534016  66.6629553  67.8909922  62.8919268  52.9730320  47.7392578
  62.9028940  52.8508139  46.7899561  62.2594404  53.6770058  47.8828287
  29.4893480  27.2799127   6.8388970  28.9328982  26.5019338   6.8755563
  29.2447354  27.7860658   7.6136287  73.9096594   2.2369517  58.7307453
  74.4058562   2.7540434  59.3652773  73.9115668   1.3500155  59.0907192
  85.4735184  57.9618359  69.3031883  85.2515984  58.5765791  68.6038494
  84.6282768  57.6383543  69.6148825  19.3984581  26.6694515  24.9354966
  19.8529698  25.9217851  24.5473702  19.6851517  26.6762988  25.8487256
  76.4111519  72.0558909   2.1627887  76.7086745  71.3332156   1.6101106
  77.1872187  72.6041273   2.2785171  82.3872280  73.7086725  61.7805052
  81.8261814  73.5170078  62.5319862  83.1673241  74.1124582  62.1608210
  73.6521174  19.3405645   7.3862536  74.0173174  19.2745130   6.5039285
  73.0428339  20.0772779   7.3387511  80.2225876   2.7120913  65.3544044
  80.1622057   1.8492831  64.9443340  79.4367266   3.1726302  65.0601959
  15.6068635  44.3192291  60.5663633  16.0187746  44.7956324  61.2871981
  14.6865869  44.5801353  60.6017494  67.0516039   7.3401897   7.1881850
  67.5287176   6.7083137   7.7260764  66.2393213   6.8908708   6.9546302
  57.7775122  20.9023826   3.8389714  57.2287585  21.4264982   4.4224198
  57.7760435  21.3841598   3.0118592   8.9536596   1.6284598  63.0189657
   8.9393926   1.8456877  62.0868540   9.7303415   2.0742930  63.3569384
   1.2442136  30.2545500  48.0632973   1.8547082  29.8370075  48.6709023
   1.7631364  30.4155850  47.2752476  69.9849701  60.7937670  60.8919096
  70.5620527  60.9355307  61.6423178  70.5788946  60.6058979  60.1651430
  46.2197520  13.8619010  41.2193425  46.5126826  12.9639499  41.0640843
  45.9761072  13.8777129  42.1448739  82.3130560   2.1943987  47.4006939
  82.9646969   1.9999732  46.7270565  81.6510105   1.5107573  47.2979116
  14.2316796  15.8791988  21.4596112  14.2293955  15.5957334  22.3738797
  13.4080483  15.5459897  21.1034806  30.8069922  23.0351512   8.0777820
  31.0810353  22.1837203   8.4186538  30.3125454  23.4323041   8.7947352
  39.8560930   4.2835967   0.7996734  39.6562315   5.2086513   0.6562789
  39.2392899   3.8152950   0.2371057  39.4636607  76.6496992  50.7713795
  40.3968191  76.5144157  50.6066227  39.1305327  75.7795286  50.9906054
  42.3715330  30.4661226  67.2191525  43.0537057  30.1016021  67.7830648
  41.5714288  30.4050255  67.7410030   7.4503828  53.4925127  56.6179562
   7.9736925  53.7613630  57.3729992   7.9607892  52.7932978  56.2095308
  17.1640803  49.5972602   2.5730594  16.5616585  50.1895778   3.0230411
  16.7320467  48.7438457   2.6085456  52.2690798  14.3134134  -0.1548354
  51.3247324  14.4482868  -0.0757567  52.5020529  13.7937372   0.6145080
  23.7867094  35.0353496   3.1177838  22.9943777  34.7023504   3.5391505
  23.9632298  34.4120900   2.4130710  53.8387705  80.6924598  13.9945157
  54.0043188  79.7540061  14.0845998  54.6859003  81.1028640  14.1682370
   5.7181573  19.5911813  59.2635012   5.4320264  18.9333081  59.8971891
   4.9356676  19.7816765  58.7461472  29.0695883  78.3839754   4.3143352
  29.9830747  78.3792476   4.6002658  28.8523889  79.3115977   4.2217668
  84.2450572  14.1794317   7.1905406  83.6712123  14.1426198   6.4253076
  85.0525833  14.5774715   6.8654235  51.5248775  39.3894267  68.2492256
  51.1062670  39.9061871  68.9376736  51.6897345  40.0169182  67.5454473
  71.4936686  18.9465165  51.1801386  70.8511734  18.9070237  50.4717064
  71.7966700  19.8544908  51.1783361  56.1073303  41.7466545  69.7367191
  55.7553482  42.6195621  69.5624447  55.4205322  41.1483383  69.4425154
  26.9377066   9.0256346  67.2060537  26.8544699   8.0796278  67.0861769
  26.0368276   9.3354643  67.2990036  33.3000517  56.3284683  66.5041399
  34.2326975  56.2414169  66.7011738  32.9670596  56.9206667  67.1784163
  24.3297697  30.7490747   7.7526887  24.7678162  31.4805238   7.3175653
  24.7777487  29.9705522   7.4218543  83.3723856  14.8176448   9.7280629
  83.8714243  14.7321908   8.9157184  82.7758051  14.0691202   9.7225411
  26.7837359  50.8420818  15.9517892  26.4218260  50.1900832  15.3516610
  26.5018202  51.6825454  15.5907090  74.9453783  33.0616999  50.1832151
  75.5122471  33.0136299  49.4134235  74.0967560  32.7427769  49.8760366
  26.3174390  79.7355792  52.8693533  27.2580719  79.9111164  52.8943729
  26.1187696  79.6266680  51.9393539  53.0079126  73.5854959  49.5611095
  52.5066423  73.9845419  50.2722502  53.5503101  72.9247808  49.9917984
  74.4008446  51.2235880  65.5848169  75.0381088  51.9026136  65.8062887
  73.7822104  51.2283134  66.3152266   9.5640255  16.1976756  64.4189930
   8.9317299  16.8073691  64.7994041  10.3707290  16.7069663  64.3409443
  65.6094074  15.6751740  28.8080621  65.1838970  16.0754466  28.0498028
  64.9347019  15.6713533  29.4870210  42.6359345  19.7145431   2.4584134
  42.1729876  19.0201061   2.9271062  43.2012440  19.2508619   1.8406327
  83.5144377   5.9767569  54.9072313  83.6481524   5.0697268  55.1822758
  82.8180600   5.9282626  54.2523003   2.8073431  68.7349606  52.4219704
   3.5103155  68.9608431  51.8128443   2.0151353  68.7366962  51.8847227
  68.3110428  23.2212305  63.3427954  67.3718309  23.3598638  63.2207489
  68.3674431  22.4747562  63.9393044  45.1536489   9.9017943  62.7746439
  44.3461920   9.7762621  63.2731295  45.6327272   9.0803374  62.8839016
  69.7728777  47.6076841  62.2565794  70.6186771  48.0447769  62.1575546
  69.1508579  48.3201790  62.4038076  83.7869812  25.8965604  28.2393106
  82.9929662  26.3901775  28.4445413  84.1770650  26.3661163  27.5020345
  50.6653858  13.3456867  35.1916440  50.5645920  13.2734649  34.2425092
  51.5684153  13.6381643  35.3150399   6.6618944  76.5200615  40.8896875
   5.8231855  76.2941647  40.4874754   7.2081209  76.8087101  40.1585579
  16.7829300   9.2170180  50.1970530  17.6993824   9.4582118  50.3318357
  16.7744566   8.7723292  49.3494606  52.5595522  43.1732082  63.2128811
  51.6121626  43.1015015  63.3292532  52.9288816  42.7366590  63.9805079
  66.9245936  45.2807491   8.9590200  66.4489199  46.0260169   9.3258126
  67.8254629  45.4001205   9.2597135  49.9485947   5.9868734   2.6366981
  50.4246308   6.7296855   2.2654136  49.6165539   6.3097398   3.4743960
  63.3227755  28.6365144  23.6473783  63.3431841  28.7053649  24.6018727
  63.8289095  27.8476064  23.4532674  44.3396927  20.4590194  11.3383039
  45.1030804  19.8865526  11.4141686  44.1304470  20.7000606  12.2407182
  80.3048229  53.3901215  68.3203697  79.7435617  54.1653776  68.3065605
  81.1276436  53.6968803  68.7012815  73.4908701   0.8330171   9.0750917
  74.0039278   1.3544814   8.4577735  72.6103617   1.2056606   9.0294536
  46.4460303   3.6939971  39.0430196  47.2379090   3.3706920  38.6133225
  46.7682625   4.2587106  39.7455152  44.4050909  73.7066320  22.9942926
  43.8864160  74.4648198  22.7252896  45.0771643  73.6239771  22.3177369
  72.9854679  70.7258177  65.4522657  73.3972406  71.0571527  66.2503195
  72.0999241  70.4830837  65.7226801  29.0802789  68.5826015  60.4620123
  28.8225580  68.9591312  59.6205616  29.7265172  67.9132843  60.2370358
  17.6348234  77.7478456  67.6878834  18.4919382  77.8215933  67.2681761
  17.6151205  76.8569326  68.0373430  43.3808590  35.0758426  13.5572942
  42.4743010  35.0490205  13.2512410  43.4138037  34.4323890  14.2651876
  56.3231754  64.4510317  60.1161242  57.1855783  64.0545034  59.9926090
  56.5094852  65.3480339  60.3934431  14.0813996  17.5861327  42.2869809
  13.3072258  18.1388299  42.3938306  13.9539982  17.1563880  41.4412149
   7.5975442  52.5767660  61.5971804   7.0351053  52.9008627  62.3006439
   7.1603513  51.7837000  61.2871122  57.2670722   4.9903716  60.1964045
  57.2762776   5.7908953  60.7211113  56.3636947   4.9159850  59.8888254
  68.0502415  23.4404982  58.5203791  67.6128245  23.6394061  57.6925278
  68.4768010  22.5970210  58.3692646  25.4810692  51.9804828   9.5735772
  24.8035027  51.7716281  10.2166303  25.0874497  52.6564185   9.0218480
  61.9002581  46.6943216  50.0143671  62.6789808  46.1437368  49.9326563
  61.8464661  47.1586084  49.1790390  73.4027576  38.2265091  35.8336949
  73.3733273  39.0723610  35.3865933  73.4200287  37.5820708  35.1261425
  52.6049257  23.7012927  16.1762269  53.1803824  24.4633787  16.1105950
  52.7663637  23.3541076  17.0535119  56.4551855  55.2106063  21.6382344
  55.6351782  55.6467311  21.4066918  56.6676451  55.5466716  22.5089582
  42.7183891  24.0670841   3.2248004  43.3937908  23.5835855   2.7491029
  42.8558804  23.8307922   4.1421302  16.5195252   8.0844419   6.4915402
  15.6915690   7.6885383   6.7635282  16.7882324   7.5759189   5.7264026
  52.9306269  45.6608868  62.0219898  52.0726204  45.8559227  61.6451359
  52.8221798  44.8035049  62.4335337  68.6025740  14.2296045   4.0826781
  67.9529024  13.7517230   3.5671361  69.4061495  14.1748731   3.5654719
   0.7364870  77.5712446  50.2021726   1.5446544  78.0742053  50.1015218
   0.8989931  77.0053271  50.9568627  40.7483746   4.9211852   3.3398374
  41.3308359   5.5848853   2.9704221  40.2765204   4.5696323   2.5848563
  38.3699632   0.9498442  59.5728683  37.4472833   0.7861842  59.3776464
  38.4677435   0.7025660  60.4923916  26.0094668  53.0903880   3.7745841
  26.6069246  53.7897651   4.0394433  25.2868487  53.1430023   4.4001134
  35.8028627   1.1362685  31.9215918  34.9428869   1.5518511  31.9845700
  36.1292959   1.1237753  32.8213215  23.4581209  51.6260497  11.4246781
  22.5341250  51.5030353  11.2071164  23.6770321  50.8735053  11.9742139
  81.4311981  61.4055634  54.4338846  81.9956970  61.8804407  53.8239145
  81.9445324  60.6385422  54.6876621  70.7055998  75.3454638  44.8747015
  69.9525595  75.0780010  45.4015970  70.8197117  74.6358871  44.2424726
  76.5700293  73.6738539  70.8260298  75.9788704  72.9627895  71.0733128
  77.3365831  73.2319784  70.4608250  76.5491867  25.8066773  59.9925947
  77.1389771  26.0928416  60.6900835  77.0083141  26.0316205  59.1833782
  62.7821445  14.5043755  68.2141638  63.7215424  14.6825659  68.2590151
  62.4010897  15.3128684  67.8715754  59.4573927  59.0924311  53.2881260
  59.6771049  58.8457537  54.1865158  58.9499712  59.8990202  53.3785009
  24.4901158  31.9390838  16.6971334  25.2259041  32.4831884  16.9778379
  23.7179972  32.4846952  16.8467076  73.2852173  73.2238630  23.3055814
  72.4020958  72.9595569  23.5634168  73.8542033  72.5461606  23.6705525
  55.2439260  49.4809151  68.2517242  55.6139755  49.6487856  69.1183901
  55.9987879  49.2532015  67.7089882  38.0305029  81.7971019   0.7568725
  38.0567480  80.9626511   1.2251027  37.2907759  81.7111424   0.1555093
   8.9039089  32.3989694  35.0795014   9.3284656  31.5873973  35.3575929
   9.3208839  33.0803077  35.6068929  29.2547346  15.8668105  24.2768319
  30.0840546  16.2237804  23.9589723  29.2379309  14.9688356  23.9457925
  85.6051875  70.0613312  14.3261941  85.1920605  70.0808505  13.4629567
  86.1297417  70.8613352  14.3588193  77.2100687   5.2748335  50.4977560
  78.1477738   5.4587306  50.4418993  77.1613884   4.3507803  50.7426977
  53.2585096  55.4104662  68.0637455  53.4785414  56.1037588  67.4415207
  54.0575266  55.2858210  68.5758638  60.7605076  61.3094521  30.2509069
  60.3960276  61.4128923  31.1299324  60.3465176  62.0027018  29.7368574
   4.0312410  56.6565895  47.0000124   4.8847890  56.2714863  47.1984482
   3.3996511  56.0558987  47.3956203  34.7800279  66.4164925  70.6119728
  35.2894044  67.2061634  70.4297972  35.2595926  65.9791374  71.3155174
  56.4478636  62.6014948  63.1622076  55.8862925  62.5537443  62.3885250
  57.0583248  61.8712711  63.0604982  48.6560799  15.1792590   6.9513877
  48.3147885  15.3416412   6.0719665  48.4522082  14.2596071   7.1213944
  14.0269447   6.2889136  47.7065372  14.7271324   6.1069716  47.0797443
  14.4550634   6.7795313  48.4081364  64.0127921  51.9688944   4.9578937
  64.6192146  51.3680521   4.5249160  64.4057656  52.1287528   5.8159431
  41.9036055  18.9394867  57.7266979  41.4591074  18.1611860  58.0627060
  42.1939468  19.4064808  58.5101843  49.2205954  58.0933857  65.3406429
  48.5563564  58.4741783  65.9151077  49.4799328  58.8125944  64.7646904
  12.2841383  22.0889156  16.9867929  11.7987515  21.5093200  16.3996823
  12.9221750  21.5173929  17.4140008  11.5299536  40.6713176  23.5549958
  11.8856216  39.9212575  23.0783971  10.6291509  40.4201104  23.7591394
  46.6980959   2.2257535   8.2801517  47.1170164   1.6418617   7.6478513
  46.3472439   1.6401117   8.9510854  50.7069517  45.6888931   4.3672021
  50.0465323  45.4156177   5.0039180  50.4402996  45.2679889   3.5499080
  84.7478676  64.4175673  27.3975754  84.5761395  65.1950836  26.8663406
  85.2970123  64.7340727  28.1148601  64.6622038  51.7493057  44.4054031
  64.1819048  52.5259018  44.6925402  64.0496731  51.0259485  44.5387745
  57.9460837  20.1976697  26.0104306  58.4653021  20.8359735  26.4995225
  58.2538820  19.3474643  26.3245042  24.6345068  74.8948387  19.5652898
  25.1276136  75.0135807  18.7535222  24.5364881  73.9463977  19.6494420
  78.7723041  57.5827567  37.4702581  78.0659891  56.9509761  37.3353417
  78.8528872  57.6524036  38.4215100   7.2839189  26.2919760  60.7311869
   6.4579607  26.1904478  61.2041759   7.1643663  27.0844460  60.2078056
  38.3666205  49.8423290  69.5700693  38.4655237  49.4412899  70.4335594
  39.0766001  50.4824114  69.5205212  15.3793741  69.1993618  58.3517504
  14.8246503  68.8096380  59.0274954  14.7639680  69.6070957  57.7424383
  10.3051616  32.2711723  19.3036016   9.7378399  31.8678634  18.6465486
  10.7379390  31.5327279  19.7321256  71.1015940  72.9845810  53.2182074
  70.8036947  73.1954288  52.3333216  71.3498545  73.8288069  53.5948753
  40.4837872  39.8467033  11.9168408  40.0395752  39.0270059  12.1336587
  39.8254324  40.5240886  12.0715554  68.1201029  48.0955505  70.3450489
  68.1601763  48.8490152  69.7560549  67.8251600  48.4594870  71.1797905
  52.3518610  70.2458096  32.5383592  52.7708197  70.0289774  33.3712411
  51.4356852  69.9961996  32.6589680  64.3423868  14.6047132  22.8884252
  63.7406660  14.0662782  22.3743661  64.3038775  14.2324273  23.7694200
  86.0594749  58.5046482  58.5187435  86.9045925  58.4338474  58.0748892
  85.6733894  57.6323795  58.4392834   9.3297029  55.6080627  47.6132345
   9.8727251  56.1758232  48.1600475   9.2043996  54.8179340  48.1388044
  40.3711106  27.9678361   5.8552821  40.6753708  27.8681390   6.7573436
  41.1692215  27.9324739   5.3280242  54.3625879  30.7150936  59.8768425
  53.7418222  30.0005579  59.7342777  54.6179676  30.9897923  58.9961863
  61.1205769  34.4659925  65.9916210  60.5658102  34.7055006  66.7339849
  61.5161562  35.2915764  65.7120562  56.4889336  75.2399492  57.7254200
  56.7752457  75.3799582  56.8228388  56.0939837  76.0728502  57.9833412
  38.4766936  71.1234283  13.5790217  37.8172588  70.4483604  13.4188366
  39.2219186  70.6479549  13.9461672  80.7040430  11.4892404  11.3871987
  81.3358427  11.6921918  12.0770295  81.2416006  11.2308376  10.6385453
  41.6658354  80.2867222  67.4163151  42.0323849  79.6822309  68.0616474
  40.9032869  79.8276567  67.0641708  43.9376259  79.4018316  51.2986135
  43.2355690  79.1075373  51.8789053  44.7337246  79.3158579  51.8230772
  40.0134588  22.2988574  12.8205998  39.6379591  22.3716991  11.9431432
  39.5310284  21.5798347  13.2286389   2.4713827  41.0377455  53.3185768
   3.2267309  40.6398296  52.8857327   2.8339315  41.7856503  53.7933683
  76.9308996  37.1310210  54.2228222  77.6574802  37.7534199  54.2532539
  77.1030951  36.5996575  53.4455013  76.6063786  52.1182203  43.0069494
  76.3629818  51.8166447  43.8821888  76.6891479  53.0677414  43.0951977
   0.9054018  32.4127902  49.7834015   1.7929817  32.0957030  49.6163893
   0.6239439  32.7875556  48.9487982  73.9887143   9.6853007  48.6339140
  73.4682560   9.1787661  49.2574358  74.2475367   9.0501154  47.9662514
   3.8816762  34.5050764  62.6007414   2.9786230  34.6488595  62.8836489
   3.8294149  34.4609118  61.6459894  65.5717278  29.8525882  59.7611094
  66.1749125  30.5904293  59.8504877  65.7726240  29.2872906  60.5069733
  70.9444357  75.9324578   9.3823274  70.7904554  76.5224413   8.6444648
  70.0724626  75.6230286   9.6275933  30.5102993  19.5255487  56.2776311
  29.6953942  19.5503728  56.7791684  31.1233116  19.0520398  56.8399842
  21.1681390  74.2067242  48.3636904  21.3914991  74.7331142  47.5960588
  21.9871641  73.7731171  48.6033249  36.6467237  81.3701534  58.9241266
  37.2987437  80.6865311  58.7700129  35.8055019  80.9186077  58.8557482
  21.1152387  55.0243759  58.6916256  20.4373003  54.4082737  58.9692068
  21.8060136  54.4716978  58.3261061  18.9806105  26.4939468  15.1059564
  18.9539791  25.9384410  14.3268903  19.2268921  25.9001796  15.8151944
  35.9543991  16.8187177  62.1782780  36.6140532  16.9156265  61.4914751
  35.8044100  17.7098942  62.4937725   4.9345709  12.8151433  48.5023053
   4.8243095  13.0771510  49.4163163   4.0729381  12.9517095  48.1083806
  50.2539564   8.8811414  14.5420201  49.4376494   8.9101760  14.0429910
  50.2787567   9.7160833  15.0094445  20.2755380   2.8710402  38.0282235
  20.9589935   3.3743418  38.4707284  19.4944120   3.4206522  38.0914688
  53.2073904  16.3180606   5.2573569  53.1865431  15.3791253   5.4422839
  52.9129339  16.3899486   4.3494113  37.2612882  77.4108076  52.1197748
  36.9662881  78.2433128  51.7508078  37.9149080  77.0913410  51.4977169
  82.4048996  59.6321058  64.4922495  82.6704216  59.1365147  63.7175703
  81.4482880  59.6344328  64.4588280  22.0947195  34.6195316  36.6602969
  21.6067243  34.0157723  36.1003256  21.4769960  34.8571825  37.3517990
  31.8867279  47.8983848   1.8809398  31.6033436  47.1568363   2.4157556
  32.0478131  47.5219886   1.0157188   4.2065073  81.2235355  69.1264248
   3.3033395  80.9786415  69.3278027   4.2248655  81.3081169  68.1731462
  84.6702671  41.0434187  69.0888929  84.3964434  40.8531512  68.1916475
  83.9257336  41.5059603  69.4735432  34.5475031   9.7154845  48.1798792
  34.9598814  10.5744399  48.0884790  35.2340628   9.1578997  48.5458946
  20.2679039   2.9885233  25.5265641  20.1299835   3.1849802  24.5999479
  21.2191606   2.9915560  25.6330347  21.6750456  77.5348786   9.0716107
  20.9500099  77.9204635   9.5634206  22.1492887  78.2862309   8.7155278
  11.5160776  29.0958040  13.8650258  12.3206927  29.2582147  13.3726342
  11.7877890  29.1197316  14.7825368   4.4600798   0.7899321  52.0045328
   4.9495626   1.5138567  52.3951197   3.6744381   1.1997641  51.6425371
   5.8126951  31.5323782  63.4600592   5.5436731  32.0238209  62.6839542
   6.6749502  31.1828065  63.2352209  77.4013615  67.2392559  51.8371582
  78.3364725  67.4072647  51.7206573  77.3585320  66.6159344  52.5623274
  64.7693659  31.7536466   5.5986579  64.8296286  32.4545877   4.9495967
  65.1795889  32.1177118   6.3831313   2.1373105  41.6546154  45.0485706
   3.0760313  41.8411732  45.0332069   1.7232252  42.5149298  45.1165867
  68.1037832  32.6703470  11.3850911  68.7478663  33.3260600  11.1178239
  68.5822893  31.8416278  11.3628514  72.3808695  19.6527784   0.5770190
  71.6513659  20.2628915   0.4683002  72.0001627  18.9034145   1.0349925
  55.7359339  20.1551665  59.3397570  55.9023214  19.3803347  59.8765802
  54.7818685  20.2281416  59.3137360  69.0272856  76.4641384   4.4145425
  68.1920338  76.8313745   4.1251977  68.9124537  75.5170730   4.3363603
  15.9005476  13.6323679  45.8418989  15.2938343  13.5010565  46.5705156
  16.5696884  12.9587210  45.9630251  15.7471204  73.2467127  10.8107555
  14.9586320  73.7858820  10.8724999  15.4239393  72.3749161  10.5832648
  15.2264905  73.9151382  47.0821571  15.3589941  74.2813015  47.9565716
  15.6213975  74.5565701  46.4915276   7.9369856  56.9418124  11.2789376
   7.0626093  57.1691278  11.5952142   8.2633663  57.7471653  10.8775552
  71.6852808  69.3756151  69.9621296  72.2140074  68.6944437  70.3776789
  70.9932232  68.8967800  69.5060492  63.4631468  74.5592468   0.2015384
  64.3695856  74.6498267  -0.0923888  63.4176756  73.6767070   0.5693420
  39.3597627  80.0483970  26.6113408  39.1240621  79.3245367  26.0310777
  39.7799421  80.6886367  26.0370858   2.8151346   8.0698336  27.5178099
   2.7376819   7.3714865  26.8677759   2.5232578   7.6685751  28.3363605
  45.7982804  14.7786205  32.8899510  45.3350807  14.0095727  32.5579198
  46.3858772  15.0304048  32.1775182  10.7564664  69.0728521  60.0576305
  10.6123853  68.7182522  59.1802883  10.2182985  69.8638678  60.0876141
  44.9988056   6.7583673  15.8052762  44.9946572   5.8302324  15.5712255
  44.3160368   6.8405311  16.4710935  17.6050497  67.2278595  70.8239269
  17.7117277  66.3485193  70.4611540  18.1064344  67.7922010  70.2353954
  64.6246386  74.2803049  65.1800919  65.4627132  74.1461849  65.6226730
  64.1426325  73.4667015  65.3282642  68.8705565  27.6305454   8.7970861
  69.6737982  27.3616283   9.2428525  68.4678675  28.2643239   9.3907292
  69.6463394  79.8718834  36.6366196  70.3498220  79.8089838  37.2826791
  68.8600254  80.0437737  37.1546936  56.2653471  36.1275117  -0.0723044
  56.7047049  36.7866294   0.4650529  55.3472639  36.3982313  -0.0803487
  19.7181249   0.0581015  68.9830875  19.2783190  -0.6397115  68.4974241
  19.4564892   0.8628787  68.5357571  71.0650254   5.2069319  52.8412676
  71.4453745   4.4466437  52.4013567  70.6868220   4.8534239  53.6463928
  83.7732601  77.6044798  68.0433750  83.2055283  77.2973347  68.7501860
  84.1418648  76.8049765  67.6676702  22.0454813  80.1873398  68.4200907
  21.8155408  80.7770824  69.1381073  22.6420808  80.6977844  67.8726006
  84.4726969  37.4399202  28.8654073  84.0222670  37.0101468  28.1383355
  84.1515185  38.3414333  28.8468202  76.8524481  21.3915841  10.4085954
  75.8957316  21.3734739  10.3841909  77.0926405  20.6372754  10.9467061
  24.1322351  63.0407143  47.2652340  23.7271905  63.8322258  46.9107103
  24.2394186  62.4663258  46.5070629  41.8562914  74.2314915   2.4464877
  42.5621534  74.8020891   2.1424850  41.0791899  74.7903613   2.4452479
  50.2979755  17.2898984  42.2605896  49.4486046  16.9284332  42.0073366
  50.7171822  17.5200415  41.4314127  30.1519942   3.8570973  36.2828636
  30.0460887   3.9492330  35.3360128  31.0644531   3.5913846  36.3970780
  52.4765110  74.4944166  70.9259939  51.9780159  75.2023016  70.5177784
  52.2691249  73.7215834  70.4006767   9.5340383   7.6538289  10.9231782
   9.2425841   7.8487587  11.8138456   8.7906009   7.2048354  10.5207646
  11.7625665  69.0333473  46.9025612  11.4481592  69.4903516  46.1224794
  11.0852384  69.1891586  47.5607252  38.1684107  34.7122619   0.8789523
  37.2169686  34.8169950   0.8834489  38.4865558  35.3877024   1.4779456
   3.7430691  66.3089668  48.7900162   3.7666177  65.9001934  47.9248095
   3.2067394  65.7186686  49.3192863  23.9409492  29.0146152   5.0893052
  24.6049682  28.3641723   5.3178580  24.4422931  29.7834758   4.8177560
  52.5233508  43.6521587  10.4027875  51.9277120  43.1906348   9.8124917
  53.3973766  43.3861925  10.1171716   7.2648811  74.1673224  56.5417194
   7.5889134  74.9416917  57.0017052   6.3312554  74.1377543  56.7507744
  76.8186855  18.8131726  22.3852587  76.2705231  18.0309176  22.4471283
  76.5750885  19.2108321  21.5493393  45.1595497  69.2287616   4.6192201
  44.4814802  68.5824756   4.8161109  44.8319853  69.6923689   3.8485034
  79.1923594  67.9495965  28.6935735  78.7928056  67.2380637  29.1938829
  78.6528491  68.7147795  28.8927102  56.7485881  34.2060361   3.6648353
  57.1126891  33.6393330   4.3449147  55.9961486  33.7208281   3.3262475
  62.3122788   3.2006720  -0.2696673  61.8638897   2.3645500  -0.1428668
  62.5423456   3.4856061   0.6147082  10.5600047  17.3571467  54.7463942
  11.2099576  16.8807828  55.2629900  10.8925831  18.2540214  54.7111988
  69.2243468  78.9080935  55.4880333  68.4515475  79.4718980  55.4543304
  69.4215559  78.7169605  54.5710754  -0.3560928  19.1827106  61.4101791
   0.2527821  19.3552279  60.6920290   0.1577341  18.6837411  62.0451927
  62.6444006  32.2393564   0.4081376  62.4345398  31.8742672  -0.4514567
  61.8148089  32.5956396   0.7260545  67.4188714  50.8745562  23.8819480
  67.3349916  50.1234566  23.2945418  68.3297025  51.1528861  23.7862849
  83.9726115  47.3027114  23.8414319  84.5212460  46.6033778  24.1966279
  84.5913506  47.9095522  23.4350617   1.6127705  60.2851593  50.7734442
   2.3576975  60.1783072  51.3649654   1.9750046  60.7370078  50.0113106
  12.1859312  72.4287640  38.3302760  12.4790811  71.5260540  38.4544039
  11.9398498  72.7233910  39.2071295  70.2873707  72.7175216  11.2855180
  69.7506667  73.4261087  10.9304364  69.8165417  71.9185547  11.0484441
  74.5491707  46.0077464  30.0040293  75.0223588  46.2534629  29.2090797
  73.8527321  45.4266202  29.6982527  82.3571252  69.3884098  41.4450502
  82.7333330  68.5144149  41.3409758  82.2683286  69.7189497  40.5511332
  53.9461946   7.0245570   9.9837518  53.7566900   6.4329129  10.7119536
  53.5813332   7.8660363  10.2576506  85.3839779  28.3130411   2.3237117
  86.1347914  28.5501591   2.8680308  85.0486899  27.5069419   2.7161630
   7.6032614  37.9742776  51.7928553   8.4845233  37.9486381  52.1656227
   7.0253682  37.7794992  52.5306463  38.5795552  32.9292468   4.5151074
  39.2192245  33.3854846   5.0618251  38.4689457  32.0769177   4.9364503
  84.1379452  59.3889741  10.9271558  84.9788380  58.9323381  10.9519799
  83.5713530  58.8193671  10.4068120  47.5574827  51.1982118  67.9036856
  47.6125192  51.9128667  68.5380888  46.6651392  50.8643447  67.9958153
  82.7851248  25.1116721  -0.2630012  83.5821391  25.6194655  -0.4151360
  82.7242327  25.0411681   0.6896527   0.1352955  46.2884436   8.6087783
   1.0190893  46.2638859   8.2419904  -0.4416489  46.2132589   7.8486999
  67.4865985  29.6253077  10.5324681  68.4074736  29.3796519  10.6211980
  67.3140741  30.1852397  11.2893899  64.8968077   5.2883819   1.2258418
  65.5953741   5.2988557   1.8801530  64.3145204   6.0022787   1.4856942
  16.5969419  11.7593789  33.0868435  17.1584380  11.0928869  32.6909375
  16.1961412  11.3201308  33.8369441  57.4948788  20.8245659  37.3876333
  56.5535975  20.9961438  37.3596764  57.5802708  20.0466561  37.9388118
   8.0728769  34.3777906  61.9402122   8.7463593  33.7941228  62.2894669
   7.4016738  34.4041502  62.6221371  77.2245026  26.4989901  49.6170664
  77.7187061  26.3101220  48.8193703  76.3093758  26.5035272  49.3364382
  31.0866260  74.9566047  58.2504416  30.5381632  74.5339774  58.9113569
  30.4644966  75.3319346  57.6272917  14.5994997  75.1167618  67.2642803
  14.9726581  75.9818106  67.4336243  15.1556348  74.5149784  67.7590561
  32.6628957  38.0734787   0.2233584  32.8815356  37.8224219   1.1207994
  31.9939041  38.7511612   0.3204663   1.0213768  39.4810176  46.9530153
   1.9308105  39.2595601  47.1533108   1.0815868  40.1268387  46.2490845
  80.6841040  35.2128837  10.8280309  81.4364195  34.6683792  10.5961545
  80.8428431  35.4659919  11.7374070  42.2996092  15.4874468  54.7075844
  43.0216980  15.1873195  55.2596188  41.6422176  15.8067071  55.3257608
  64.2873191   7.3953658  61.3458538  64.6070885   8.1153291  60.8021307
  64.1191792   6.6844791  60.7273054  57.8673029   9.5514816  66.2588692
  58.3232355   9.3698704  65.4370546  58.4259510  10.1862001  66.7075062
  23.5357570  74.6240204  66.3380432  22.7691793  75.1712262  66.1672735
  23.3773946  73.8258868  65.8339214  11.4275122  30.1890349  33.8260365
  11.0230327  29.8967147  33.0092287  10.7625413  30.0249863  34.4947147
  73.5585356   3.5264757  15.4704118  73.7909174   4.2985284  15.9863245
  74.1532993   2.8434706  15.7802415  53.4555483   0.8410000  41.1467981
  54.0385056   0.3472208  40.5701065  53.9981079   1.0616343  41.9038820
  12.4840736  71.5119361  29.0688491  11.9840574  71.7845046  29.8382139
  13.3985328  71.6472267  29.3172455  62.1930790  28.6330485  62.1916389
  61.3983583  29.0939331  62.4604130  62.8461933  28.8799691  62.8463888
  46.3049221  17.8025222  48.0217886  46.7094088  17.1197712  48.5570192
  46.4138842  17.4969101  47.1212578  36.6215515   8.7332493  68.9335299
  35.7978797   8.4837735  68.5145330  36.7525792   9.6467036  68.6792374
  56.0623932  14.1329134  41.7372084  55.1835442  14.5045531  41.8129921
  56.6494942  14.8713446  41.8992662  38.0976272  14.1765678  57.5406981
  37.9208541  13.3365703  57.9642344  37.3949480  14.7508597  57.8451014
  48.2111884  41.1263444  13.7044652  47.3929215  41.3408389  14.1524156
  48.2688606  41.7638331  12.9927667  63.1182289  20.3354025  59.9515533
  63.2441902  19.5060337  59.4905615  62.4950218  20.8187008  59.4090891
  17.5397157  64.3961596  50.6859112  18.3164549  64.9432003  50.8027601
  17.1559667  64.6978234  49.8625278  79.0257930  42.7980005  37.7722359
  79.5245742  42.3467433  37.0911908  79.6903133  43.2272374  38.3111262
  44.4031763  78.4902622  62.0598793  45.0257253  77.7634352  62.0402098
  44.3820142  78.8119548  61.1586046  42.0120764  25.9232879  33.6822152
  41.1698246  25.6026125  33.3597112  41.7831612  26.5415406  34.3761826
  43.5042238   2.3100899  54.1684628  43.2035780   1.4199126  53.9856291
  42.6996517   2.8199226  54.2631388   9.3072128  49.1629087  62.8643847
   9.5961713  48.3047210  63.1746244   8.8940429  48.9854585  62.0193768
   6.9200015  40.3945314  46.3440514   7.1304679  40.9404098  47.1016502
   7.7295041  40.3705989  45.8337927   8.7250925  36.0068984  36.5628465
   8.8502956  36.9380415  36.7459519   7.8024603  35.9327031  36.3189729
  33.9884185  61.3351714  57.3457766  33.7471246  61.1838614  58.2596207
  33.1589555  61.2970435  56.8695736  65.0830841   2.5718230  58.8849545
  65.5115080   3.2675064  58.3862495  65.8046007   2.0568912  59.2461920
   1.8821359  18.4122634  54.2163515   1.1116398  18.5183823  53.6584044
   1.7375319  19.0190899  54.9423599  56.3755942  28.8098911   8.8169559
  56.3136387  28.8993541   9.7679456  57.2751046  28.5218374   8.6615785
  69.4113588  16.9408727  65.3472853  70.2268887  16.9037735  64.8475170
  68.8866901  17.6052284  64.9005365  25.5924225  12.9648387  59.3397284
  26.1988401  12.4341154  59.8562765  25.4688764  13.7600636  59.8579788
  15.4184902  17.4331343  44.8935270  15.0553274  17.2331274  44.0307760
  15.0963235  18.3125937  45.0909901  25.5381060   6.4766407  50.0652075
  25.3307295   5.5810261  49.7985554  25.5034709   6.9823802  49.2532587
   8.2075447  16.1011422  54.3505573   8.7075400  15.2906537  54.2538881
   8.8443834  16.7382824  54.6741676  70.3369570  68.9867882  18.0471643
  70.4066754  69.9081878  18.2969506  70.5158902  68.9793423  17.1068700
  37.2587276  23.9295530  12.3168552  37.0460510  24.8396373  12.1100938
  37.4509740  23.9355993  13.2545316  35.1292777  20.6863689  43.1412697
  35.0848556  20.3190446  42.2584724  35.6826997  20.0751495  43.6274433
   7.2195412   2.8823774  18.0287202   7.0527722   2.7838294  18.9661153
   7.9986502   3.4364049  17.9809983  20.0334406  78.2787176  50.3629732
  19.7204256  78.6465447  51.1893845  20.6439495  77.5891348  50.6237268
  23.4077573  11.9601929  50.9083986  22.7811122  12.2201920  51.5836382
  22.8845549  11.4755905  50.2699232   0.1944446  65.1075326  51.3181257
   0.1761531  64.8256921  52.2327089   1.0818576  64.9041676  51.0225344
  55.6855106   2.2408393  67.7435541  56.2033653   3.0355263  67.8721285
  55.0730896   2.4648005  67.0428324  14.2916453   4.7189751  69.8028708
  13.7114775   4.2516172  69.2018557  13.8232446   5.5283779  70.0070763
  25.4476308  74.4407373  48.3246994  25.4344225  74.0929901  47.4329996
  26.2950658  74.1673117  48.6758804  43.4777689  10.4504383  57.3654938
  43.3701468   9.6441376  57.8700018  42.6338530  10.8955467  57.4424124
  28.9167023  12.3293817  41.7017174  29.5530009  12.3555291  40.9871054
  28.8927674  13.2267165  42.0340586  13.3675193  70.1180529  39.4403386
  13.4495067  69.8174905  40.3454208  14.1984176  70.5566608  39.2574191
  46.6991711  71.4259342   6.9446881  47.5957334  71.1310986   6.7850574
  46.1848498  71.0160951   6.2491735  80.4471779  56.8440560  21.5585263
  79.5719385  56.9502143  21.1858113  81.0031414  57.4180333  21.0315640
  70.6942654  39.4482573  15.2622445  71.0895443  39.9285614  14.5347245
  71.2868834  38.7118820  15.4132112  79.2373038  69.0905002   3.7995894
  79.6254588  69.9477033   3.9749988  79.9690771  68.4774140   3.8693650
  56.2559462  -0.2061848  23.3798218  55.3632545  -0.1680756  23.7231588
  56.3616371   0.6129236  22.8959584  25.3796506   3.9196002  62.7295876
  24.4607329   4.1178423  62.9099226  25.3507638   3.2576543  62.0387697
  70.7225752  66.4907197  14.7795041  69.9521494  65.9816555  15.0315602
  70.5023909  67.3916177  15.0164350  69.8879671  21.5380231   0.3569253
  69.5283652  21.1068419   1.1321672  69.1190958  21.8183032  -0.1395671
   0.9626699  14.4985116  66.7074108   0.8768106  14.7852588  65.7982159
   0.6496072  15.2414346  67.2234440   5.0822925  78.4100526  47.6131487
   5.2317619  78.5307859  46.6754341   5.8254051  77.8838622  47.9083395
  16.5323925  73.5118418  26.9758320  15.6238699  73.4640317  26.6782880
  16.5563964  72.9647993  27.7609444  40.2641725  50.9659087  37.7662921
  40.5275488  50.0605213  37.6015568  40.9622955  51.3222419  38.3157301
  70.8120489  16.8547583  56.5504980  71.2123823  16.8431699  55.6811142
  71.4314127  17.3430443  57.0929003  47.6374626  12.9611444  65.6997299
  46.8332720  13.2608759  66.1236095  48.1596899  12.5909638  66.4113998
  17.7658939  77.3989942  39.4470763  18.1446838  78.1512355  39.9019194
  17.7939462  76.6909759  40.0906229  71.6929161  74.3383687  39.1891146
  72.2620200  75.1071798  39.2249274  71.6222679  74.0500711  40.0991297
  48.7891245  71.4993929  18.7931073  49.3366146  70.7609617  18.5262692
  49.3709564  72.2580396  18.7466431  69.1804372  81.0119406  49.8092175
  68.4469663  80.7604139  50.3704548  68.8276254  81.7038423  49.2497301
  71.1164856   7.7740411   3.0298980  72.0048094   8.0131964   2.7654632
  71.0659647   8.0233768   3.9526732  35.5507564  72.0908867  40.4402351
  35.8651161  71.9238453  41.3287783  36.3411903  72.2971868  39.9413514
  10.4755522  30.9249727   4.2938407  10.0561548  31.0990009   5.1364883
   9.8540235  31.2540010   3.6444743  63.5622597  50.7710645   0.5387624
  63.8174034  50.2815358   1.3207419  62.8029871  51.2844709   0.8147128
  54.8024845  18.2121587  45.1211882  54.0111065  18.1451929  45.6554842
  55.2840233  17.4054074  45.3042269  45.3000355   1.4323808  55.9984255
  44.7195244   1.7333207  55.2993727  46.1815596   1.5448593  55.6427670
  13.9568783  35.7863448  22.6588090  13.8184524  35.7856045  21.7116769
  14.7824503  36.2554026  22.7798398  12.3813343  56.1973273  67.5411987
  12.8143263  55.3606235  67.7105474  12.6002502  56.4005624  66.6318035
  49.3797112  33.4718752  64.2246294  49.3941021  34.1682720  63.5680819
  50.2571964  33.4848785  64.6068430  37.8312397  72.7696948  39.1133404
  38.1610870  73.6675345  39.1496253  38.4552574  72.3077237  38.5535002
  63.7122393  64.5397214   4.7886975  62.9778195  65.1169924   4.5798524
  63.3291602  63.8523988   5.3337367   6.2030913   3.6515920   5.0953658
   6.9865204   4.1307847   5.3652604   5.8945752   4.1158407   4.3172105
  22.8803278   9.1203002  10.6460794  22.4530245   9.1874842   9.7921880
  23.7463880   8.7613181  10.4529317  47.7755117  22.4679208  50.9896994
  47.6434422  23.1021285  51.6943789  48.4337854  21.8631649  51.3320112
  35.7858771  69.6644620   9.7821744  36.0227770  70.4490308  10.2767022
  36.5466690  69.0896658   9.8660405  77.8662968  67.2315387  14.4225247
  78.2526875  68.0185798  14.8065885  77.5565815  67.5124673  13.5614903
  31.2228298  75.9985279  54.8350954  30.5571651  76.0686224  55.5193520
  31.0323810  75.1675217  54.3999004  62.1897459   3.3974060  51.2557364
  62.1683311   4.1077602  51.8969631  62.4264765   2.6221952  51.7648888
  49.3895388  14.0573275  44.6246958  49.8301697  13.6843216  45.3882027
  48.4743118  14.1394532  44.8927307  51.0397125  59.7620825   0.8121713
  50.4253912  59.5214800   1.5056832  51.9002366  59.5368222   1.1657079
  54.1234208  22.9322664  10.7505448  53.4135962  22.5683943  11.2796815
  54.7431732  22.2095243  10.6516488  30.8574225  11.5582244   2.4966415
  31.6367270  11.0025375   2.5081285  30.2040507  11.0647409   2.9924329
  42.8925657  26.6532993  55.8463049  43.2772875  27.2429538  55.1978207
  43.5243177  25.9384680  55.9246445  68.7899256  16.3905859  61.6795492
  69.1928816  16.4972925  60.8178806  69.1416407  15.5629957  62.0076084
  24.3742109  17.5837735   1.6193326  24.2721296  18.4242681   2.0658525
  23.8460947  17.6685790   0.8255275  86.2140465  19.4609070  17.8111339
  85.4293823  19.9523032  17.5681055  86.7428493  20.0847578  18.3085346
  13.5253858  73.6247849  35.9189272  13.9050531  74.0150093  36.7062044
  12.5924968  73.5441875  36.1175609  83.8226986  66.3407782  15.0230725
  83.0197716  66.8380097  15.1789411  83.9829970  65.8803324  15.8467992
  65.2066421  51.0238158  21.0648489  65.9037876  50.5453812  21.5135407
  64.5728588  51.2251793  21.7533278  54.4102025  54.2780284   5.7917674
  53.6216355  54.5660869   6.2515672  54.6316672  53.4400562   6.1979564
  73.6796284  33.5992835   3.7833674  74.1161442  33.4082917   4.6135505
  73.8173437  32.8137169   3.2540734  54.1262460  29.7195557   0.9612926
  54.4483161  29.0075926   0.4084714  53.3327175  29.3686894   1.3655694
  30.4983234  75.5041992  30.6512856  30.2709865  76.3289695  31.0805941
  30.6232595  75.7392525  29.7318459  17.4546003  78.8893901  54.4618464
  17.9592085  79.3947337  55.0992107  16.7869711  78.4442099  54.9836874
  40.1143503  79.1639408  69.8619080  39.1753578  79.3352224  69.7899151
  40.4957628  80.0119393  70.0891876  70.7586384  36.1847899  -0.0068395
  70.2744866  36.2451190   0.8166822  71.5469599  35.6890396   0.2145417
  60.1196623  14.5014608  24.8613644  60.5009937  14.8407423  25.6711197
  60.5054379  15.0404084  24.1707540  56.5931607  64.9290756   0.7032521
  56.5210343  64.6580008  -0.2119224  56.6206146  64.1081575   1.1947568
  56.4593410  14.5222461  56.6712523  56.2225151  15.3307307  57.1256685
  56.6696167  14.8011744  55.7800627  81.8348790  61.8254093   0.8775695
  81.6773749  61.9647411  -0.0562446  80.9650421  61.6736559   1.2471517
  57.1688843  20.3773904  63.9390755  58.0876970  20.6062627  63.7989473
  57.0078278  19.6524787  63.3350945  11.0603165  57.5969659  41.5365314
  10.3918957  58.2038938  41.2185955  10.8472657  57.4687993  42.4608755
   4.6241617  74.4714718  40.8786535   4.2207336  73.6116933  40.7592440
   5.1213359  74.3917744  41.6927195  76.0909224  56.8949429   8.9188560
  76.2923813  57.5151554   9.6195634  76.6787243  56.1561350   9.0766128
  47.5128174   8.1126553  67.3597479  47.1937227   8.0357492  66.4605856
  48.4486771   8.2911479  67.2673321  53.7919426  26.4611530  48.0102253
  53.7384367  27.3088479  47.5688791  52.8819418  26.2306833  48.1973410
  33.9739609  20.6428123  54.7951174  33.1130028  21.0426641  54.9180126
  34.3817043  21.1607289  54.1010427  50.6626558   2.2873245  55.9004688
  50.8149433   1.8548459  56.7407084  51.5000248   2.2206876  55.4415512
  69.0335655  38.8943768  58.4725571  69.1235495  39.7650981  58.0852842
  69.0162802  39.0526700  59.4164228  46.4924812  24.1702008  63.2642984
  45.9259939  23.4654689  62.9501677  45.8872080  24.8491359  63.5624981
  62.8682947  57.2869205  49.9594784  63.7257957  57.4285841  50.3605413
  62.2654724  57.2208214  50.7000685  45.6422949   8.3696669  55.1287365
  46.4490700   8.8650542  55.2699232  45.8941364   7.6677620  54.5286274
  20.3546143   1.9593428  56.9788170  20.6978250   1.3403349  56.3344049
  19.4363952   1.7105050  57.0845747  18.4200906  81.8355194  36.6254926
  17.8189373  82.3675116  36.1041188  18.5825634  81.0607660  36.0873556
  17.3356867   4.5385680  56.4065981  18.2635760   4.4681585  56.1823273
  16.9607413   3.6987975  56.1412048  19.2230463  75.8341460  62.6334190
  18.4448576  75.6784981  63.1686115  19.0717554  75.3251188  61.8370295
  47.4614668  21.4338613  57.8441906  47.2511339  22.3414755  57.6245832
  48.3294773  21.2911105  57.4668121  15.6978511  74.0145688  40.9663534
  14.8521137  74.4628488  40.9632969  15.7103347  73.5211044  40.1462507
  79.8092390   0.8610980   3.9928706  79.5999743   1.0736863   3.0833371
  80.7495428   1.0242336   4.0667279  51.2118959  17.7015507  23.5126925
  50.7429075  18.1276512  22.7952528  52.0996141  18.0560529  23.4624934
  37.4555612  40.9004674  20.8357366  38.1090189  41.5347647  21.1304982
  36.6399885  41.1887915  21.2455495  28.1873464  74.7862916  65.5815458
  28.4688329  73.8797068  65.7044268  28.9440870  75.3098600  65.8450842
  36.3130450   7.9163057  48.8183928  35.8744526   7.0668769  48.7700176
  37.0509386   7.7714717  49.4106483  17.9804850  21.2027359  70.6343555
  18.5533643  21.9678783  70.5833960  17.1823156  21.4703679  70.1787996
  77.1911049   1.7077304  33.1012559  76.9057417   1.6322304  34.0118027
  77.0755720   0.8287241  32.7403808  74.4939089  77.9420809   5.2925809
  73.8646984  77.2799662   5.0063451  75.0656081  77.4800018   5.9056647
   1.3011527  72.9167556  62.9700708   1.4954495  73.7641638  62.5695992
   2.1135473  72.6684033  63.4111738  74.3859625  44.1998882   3.1953080
  73.5835171  43.6839262   3.1172498  74.0980959  45.0367514   3.5600312
  10.4453493   3.5360283  70.0065756  11.0519433   3.8346434  69.3290091
  10.0927663   2.7135503  69.6668005  31.0720300  80.2676912  41.4798737
  31.5100479  80.1452141  42.3221207  31.4179086  79.5677995  40.9260225
  58.1062126   2.0813742  59.9807739  57.5711441   2.8129593  60.2885294
  58.8216162   2.4945900  59.4973660  62.2081041  17.7859831  46.4521837
  62.5346899  18.1736457  45.6402206  62.4793291  16.8691802  46.4059162
  14.5125127   3.0317381  50.1238346  13.8143278   3.5869560  50.4709673
  15.3196359   3.4989607  50.3394508  58.0735255  43.9307678   2.0986875
  58.1469965  43.3603195   2.8638156  57.1945382  44.3044037   2.1620210
  51.2131572  40.3018872  17.1451600  50.9460068  40.0668970  16.2565358
  52.0481849  40.7559404  17.0320447  47.2729635  63.8694822  66.9702911
  47.6739072  63.8047551  67.8370571  47.5643491  64.7170877  66.6342974
  31.7631602  10.1732373  59.0357590  31.4662457  10.5903459  58.2269955
  32.4737477  10.7337379  59.3474293  12.0002746  69.2066919  36.7699504
  12.1708202  69.3657099  37.6983142  12.8508138  68.9555251  36.4097714
  22.6130056  54.5868885  21.0509038  22.8476715  53.6807453  21.2510777
  23.3087873  54.8913847  20.4683161   9.3333721  58.6819159  65.4168797
   8.6250829  58.6097681  64.7770691   9.0691352  59.4045817  65.9862328
  23.1502866  78.4660315  36.6860080  22.8009128  78.0577763  37.4781537
  23.4582471  77.7321600  36.1541939  38.7652349  18.9828789  52.2514915
  38.6031747  19.0328383  53.1935501  37.9126406  19.1559327  51.8522835
  26.1635637  71.4367103  62.0130110  26.8279981  71.5623676  61.3355350
  26.6634941  71.3360476  62.8230524  44.5773554   3.8195476  61.2180805
  44.2650604   4.1936371  60.3942108  44.4822788   4.5283994  61.8542576
   4.9048305  75.4579333  20.1279672   4.7119833  76.2443618  19.6175035
   4.0713764  74.9890522  20.1695951  63.7994862  44.4402409  63.1560755
  63.8449621  45.1880264  62.5602722  62.8624201  44.2842531  63.2735634
  65.9463549   1.4460087  68.0209064  65.8992863   2.3719361  68.2589674
  65.0379372   1.1454745  68.0471706  76.5204716  11.5777838  64.4254494
  77.4137640  11.7594397  64.7174406  76.1998606  10.9128511  65.0347948
  86.3206387   4.0281382  60.4405403  86.4433575   3.9792743  61.3885832
  85.9210110   3.1902212  60.2072573  83.5915136  60.3027689  50.6417465
  82.9298400  60.5724870  50.0048208  83.7751531  59.3889462  50.4239464
  61.4903736   9.1652548  44.0530396  61.5145969   9.1721189  43.0961704
  62.3719406   9.4288516  44.3168402  53.9695835  11.9209087  35.4192615
  54.8921728  11.6854608  35.3211689  53.4979105  11.2546718  34.9193764
  43.3462143   8.2484233  59.0302181  43.5229635   7.3085999  59.0717316
  42.6886988   8.3987063  59.7094250  58.7982130   3.2610846  53.0421019
  58.6073446   4.1823339  53.2184553  58.3299971   3.0708340  52.2291994
  37.4603367   6.9207317  64.7429132  37.2293472   6.0283649  64.4849205
  36.7208171   7.4535686  64.4506311  82.7736664  52.6337147  69.4446468
  83.3278370  51.8788242  69.6427965  83.3817005  53.2993603  69.1230249
  60.2365398  14.0466118  43.1750631  60.2210283  13.8533819  44.1124249
  59.3159580  14.1600180  42.9386282  62.9809713  67.5646114  38.6482167
  63.8088083  67.0842600  38.6346960  62.8027344  67.7085495  39.5775962
  59.1063452   4.4366777  29.5588064  58.7846756   4.2104155  28.6861277
  59.5754385   5.2617681  29.4346809  23.2397890  78.2946082  55.5421925
  22.7674055  77.5004440  55.7919693  23.9418411  78.3689933  56.1885881
  30.4415131   0.5560355  64.1207552  29.6030855   0.1381818  64.3174028
  30.3871703   1.4128923  64.5439243  78.1241082  62.0657121  58.0030632
  78.3476113  61.2069332  57.6442051  78.9271354  62.5789534  57.9138327
  31.1113383   1.2066905   9.2327817  30.3902889   0.9770076   9.8189290
  30.6832243   1.5673272   8.4563239  60.5598164  29.9971867  55.9329748
  60.3709650  29.4305611  55.1849794  61.5122175  30.0926971  55.9266663
  36.0554742  62.1441506  69.7648907  36.0911560  61.2340747  70.0593758
  35.9060907  62.0848691  68.8212776  49.7128677   0.4589629  39.9924397
  50.5137730   0.4479123  39.4683599  49.8106384  -0.2784415  40.5948591
  41.1719300   6.2485759  28.5010751  40.7166029   5.8921830  29.2638906
  41.6518475   7.0042293  28.8400395  79.1058636  67.3948196   7.1623548
  78.9991331  66.8000606   7.9047187  78.6977864  68.2117299   7.4493440
  33.6774730  53.1606375  68.2296038  33.0591583  53.2325708  67.5024557
  34.5175981  52.9713189  67.8117847   2.7713823  74.4893431  60.8563709
   2.3500466  75.2583384  60.4725027   3.4555864  74.8481773  61.4214706
  61.8457794  36.6660905  55.0783014  61.6845322  37.2938466  54.3739176
  61.6766071  35.8117700  54.6811247  28.9227676  79.8440818  38.5830855
  29.8479843  80.0893562  38.5763693  28.5768175  80.2363083  39.3847775
  27.4904775  74.6502601  56.7757130  28.2034731  74.1315233  56.4031792
  27.6101303  74.5767110  57.7225494  53.3386040  19.7207773  52.9582691
  53.0581999  19.0310884  53.5598803  52.9855680  19.4558334  52.1089125
  15.7834888  32.3603485  10.7774861  15.8283592  32.5152824  11.7210038
  15.9593893  33.2157818  10.3856690  73.7691737  76.6288260   2.6255258
  73.8308049  75.6743363   2.5883658  73.1735039  76.8021754   3.3544715
  38.7204289  23.5725951  47.2928762  37.8468132  23.3771396  47.6317358
  39.1257095  22.7147102  47.1663332  16.6730571   2.7062169  32.9263425
  17.2759295   2.2003961  33.4712481  17.2171712   3.0391651  32.2126794
   8.1289125  22.1258879  52.5200367   8.2863641  22.3853993  51.6122389
   7.8788209  21.2035441  52.4655342  60.3471256  49.0409193   6.6309341
  59.6002293  49.4118050   7.1008523  60.4638315  49.6159802   5.8746799
  47.8192806  74.0529125  45.2976894  47.6265812  73.1219845  45.4093695
  48.1370783  74.3362473  46.1549854  31.3621640   8.4401399  35.0997877
  31.1826420   8.1693387  36.0001588  32.3157907   8.4053558  35.0248337
  68.1876040  64.9663237  18.7861283  68.1107521  65.1401190  19.7242768
  67.8268648  65.7478503  18.3674176  61.6951704  38.6024690  65.6608152
  61.0726404  38.5437751  66.3855505  62.4953699  38.2007885  65.9993029
  80.0634671  75.4617838  12.2917588  79.3526745  75.5581430  12.9255708
  80.1001788  74.5219330  12.1140988  62.8701187  72.2132496   1.5908130
  63.5949540  71.9606999   2.1627029  62.1108628  71.7535905   1.9492467
  63.7422943  24.5338515  12.2398027  63.6174107  25.2265028  11.5910562
  64.2019320  24.9621312  12.9619821  11.2108160  39.4021106  28.3331895
  11.6887784  39.4425416  27.5048447  11.8941713  39.3711448  29.0027452
  17.6434112  39.7571345   0.9213002  17.8278805  39.0184873   1.5014728
  18.4282709  40.3027790   0.9712775  42.3865700  21.7652369  18.1374943
  43.1676340  21.2634826  18.3707666  42.5985765  22.1586394  17.2910190
  47.3772955   9.2918044  58.1071377  47.5127935   8.3446586  58.1351995
  46.8701458   9.4846702  58.8957024  23.1660009  51.1767629   0.9139236
  22.4763418  51.8238357   0.7659753  22.6985384  50.3479294   1.0175927
  11.5083528  72.6214699   5.3887542  10.7958532  72.6305059   6.0278972
  11.8900848  71.7472628   5.4679568  44.4559765  20.4094505  41.3099241
  43.8426304  20.3066850  42.0375776  44.9388409  19.5833385  41.2851954
  65.4003454  66.6521052   5.2152856  66.2435270  66.2285665   5.0543769
  64.7525049  66.0278825   4.8883565   5.8542467  73.6234430   9.5319303
   6.3119150  73.4114817   8.7183936   5.2174259  72.9169659   9.6395524
  83.0135155  31.4598608  54.6402979  82.8752613  31.1848354  55.5466509
  83.9151287  31.7807961  54.6222591  51.2277889  68.9608263  63.1039906
  52.1351242  68.9730035  62.7993202  51.2876224  68.7050282  64.0244341
  80.5954456  20.1191521  33.2475877  80.2604198  19.9165463  32.3741221
  81.1871529  19.3948007  33.4511232  79.4830656  31.9636893  27.5180650
  79.7306347  32.6698899  28.1149077  79.4132280  31.1904073  28.0778766
  48.0441952  23.6156321  19.0537977  47.8086948  23.4520555  19.9670410
  49.0002775  23.6617351  19.0575624  85.9751225  16.9119883  59.5716381
  85.3367519  16.8754661  58.8593388  85.8477497  17.7760315  59.9633503
  85.4578304   1.2542923  48.8698483  86.0127354   2.0103317  49.0614510
  85.7993984   0.9094372  48.0448389  59.4212961  28.6663270  44.7820044
  58.8718176  29.2961240  45.2485466  60.2980995  28.8008642  45.1416540
  12.6837755  39.4525075  50.5151272  12.6555849  38.4958220  50.5289125
  13.5840536  39.6620345  50.2664614  66.5684795  25.7570052  62.5038815
  66.1227751  25.4658937  63.2993889  66.2315083  25.1822972  61.8165731
  62.6531601  34.6626091  40.2860641  62.9045153  35.2678180  39.5883727
  62.7260447  33.7950110  39.8883271  41.0564613  72.9755174  51.8597937
  41.5081358  72.3317735  52.4055147  41.4141225  73.8186102  52.1381903
  56.5965080  43.1831360  61.5463686  56.2071848  42.3987770  61.9329500
  57.2100496  42.8485155  60.8922911  65.7243753  55.6241313  13.0702813
  66.2036801  55.6206802  12.2417291  64.8929334  55.1952533  12.8677877
  25.3178240  79.4314936  25.4735215  25.3200937  79.1477231  26.3876851
  24.3963457  79.4026474  25.2160676  26.3505792  80.6846230  29.2239642
  26.8144941  80.7895775  28.3933020  25.8460045  79.8783707  29.1162944
  34.4203401   8.2781482  64.1884136  34.1134286   7.6989108  64.8859262
  34.1425180   7.8475761  63.3799219   2.1934629  15.7847035  41.0905600
   2.3891950  14.9392295  41.4944077   1.7171598  16.2680602  41.7656422
  46.8519497  29.0780234  42.2449541  47.6852083  29.0386963  42.7143812
  47.0477629  29.5749307  41.4506197  29.9603773  49.7581176   7.5114139
  30.5075479  49.7249631   8.2961066  29.3668390  50.4933736   7.6641877
  50.5954885  30.4134345  67.8537703  49.9770451  31.0809135  67.5567245
  50.4916430  30.3971457  68.8051796  71.6468000  44.0527296  44.1622543
  72.1117115  44.4099903  44.9188662  72.0496511  43.1968689  44.0158319
  64.7273636  38.9043164  66.1413765  64.2093897  39.0088367  66.9395065
  65.0005865  39.7933316  65.9150219  10.2207279  54.2786252  31.6515899
  10.7104087  53.4974538  31.3942647  10.7637834  55.0096475  31.3567567
  75.5775642  15.2115440  43.8601875  75.9433651  15.9766519  44.3040657
  74.6712065  15.1684165  44.1649628  52.3593330  16.1447465  14.4493759
  51.9537878  16.2135386  15.3136861  52.8238344  16.9739819  14.3360734
  38.8741731  81.6971528  41.4286613  38.6370897  82.1186489  40.6026077
  39.8143148  81.5338927  41.3530684  71.5912533  64.9874286  12.1134313
  71.4456654  65.9271435  12.2228463  70.8313227  64.5776085  12.5266965
  63.0335379  43.7191486  55.2997160  62.5927734  42.8694916  55.3058672
  63.7655449  43.6136484  55.9073925  56.1208820  12.2005236  28.0191159
  56.3649321  13.1260896  28.0183697  55.9070826  12.0099354  28.9324617
   4.2440891  55.1892777  69.1676835   3.5868692  55.2851184  68.4784029
   4.4265556  56.0852320  69.4508868  14.3033434  59.8722926   9.2299874
  14.8454023  60.1412646   8.4883245  14.2868543  60.6376401   9.8046144
  46.8783474  14.9131083  49.0472078  46.0064936  14.5663977  48.8577366
  47.1964455  14.3773556  49.7738504  69.9492693  13.2078135  37.1597481
  70.0210762  13.0614066  36.2165403  70.6324100  12.6559162  37.5404835
  15.5278087  57.2872607   8.2212289  14.7738672  56.8040911   8.5593827
  15.7911373  57.8567687   8.9441045  68.0830430  76.6093599  42.4471903
  67.4473887  75.9504997  42.7266169  68.1589460  76.4829855  41.5014076
   6.6972185  49.3458155   8.9167197   6.8977905  49.5536635   8.0041392
   6.4833523  48.4128503   8.9084466  83.0120230  57.5856510   9.0028461
  82.5873757  56.7327670   8.9106687  83.8293791  57.5005487   8.5120137
  24.2573382   9.6296661   0.0490268  24.1355683  10.5789583   0.0646861
  25.1939083   9.5109050  -0.1089827  10.7512594  68.8815907  22.8196652
  11.3448597  69.5542506  22.4858983  10.6083322  68.2974032  22.0749982
  14.0210939  59.7334770  23.3609231  14.4736839  60.3106169  23.9759858
  14.1929651  58.8510910  23.6896833  54.2289066  31.2945771  62.8224993
  54.2438698  31.0782552  61.8901825  53.3967638  31.7503071  62.9493093
   6.9776559  21.7955565  58.6368608   7.9123044  21.6262937  58.7552214
   6.5440202  21.0728860  59.0906668  26.8559004  12.7399556  12.2727616
  26.0053564  12.5451724  11.8792375  26.6907669  12.7331989  13.2155927
  11.0373808  58.4641794  10.6857808  11.1095405  57.8546099   9.9513085
  10.1534630  58.8240901  10.6123765  61.6095972  41.3756657  56.0402346
  61.2109804  41.7851591  56.8081236  62.0809317  40.6193733  56.3896561
  59.8841286  13.1505454  29.9068618  60.2656507  12.3039579  29.6745634
  59.0713978  12.9302037  30.3619909  76.6178799  15.5133152  56.3908625
  76.5898609  15.3456950  55.4488659  77.0399094  16.3688540  56.4694500
   8.9950586   9.8056906  39.4597125   9.4396139   8.9771575  39.2804623
   9.6304250  10.4770827  39.2111683  32.9238701  63.5242342  61.8734264
  32.3586368  64.2679774  62.0822048  33.7769270  63.7623726  62.2364998
  56.1239576  10.5933583  59.3532753  56.2819433  10.9117460  60.2420425
  56.1033487  11.3848925  58.8154268  48.2766962  21.3104081  33.3380675
  48.2717371  22.2075653  33.0044270  48.6669683  20.7946181  32.6324606
  35.9483839  22.7594440   1.2797769  36.6887261  22.7302377   0.6737407
  35.7883049  23.6930530   1.4175256  81.6785908   7.7050400  66.9732952
  82.3126221   7.4531460  66.3018847  81.3105583   8.5303319  66.6575813
  10.8571172  37.3561311  39.7417712  11.3389135  37.5160217  38.9302635
  11.3095499  37.8868008  40.3974533   5.6428838   8.4146351  32.9798174
   5.4677892   7.7207404  32.3441434   6.5397859   8.2513815  33.2716298
  81.1505699   6.9520032  40.9803772  80.6045818   6.2110949  40.7173443
  81.9962025   6.5605664  41.1992693  26.7338848  81.0810406  43.0819273
  26.6885709  80.6808796  42.2135687  26.3118457  80.4460161  43.6606026
  51.2479401  31.0321569  44.2902088  51.9277954  30.6317711  44.8321676
  51.7196894  31.3838315  43.5352182  12.1744943  18.5253680  51.6416645
  12.4870897  17.6283205  51.7592430  11.2295652  18.4354711  51.5181065
   3.8715864  23.2719946  40.6933689   4.6248651  22.7869630  40.3564024
   3.3824277  22.6286507  41.2062645  14.6570110  66.0555827  21.8101120
  15.2758693  65.5063426  22.2913432  13.8057899  65.8546781  22.1990705
   0.8171964  63.2778791   5.2235015   0.7480694  64.0234307   5.8198293
   0.2003408  63.4766177   4.5190700  48.9966917  31.4239693  49.4989872
  49.9290180  31.3866830  49.7125387  48.9151382  30.9147763  48.6925745
  55.9140945  37.7565414  11.4993032  56.4140678  37.4376351  12.2506745
  56.3993717  38.5242812  11.1971219  67.7409792  20.5056787  60.2906752
  67.9268646  20.3256488  59.3691206  68.5701895  20.8281827  60.6437111
  74.8253059  17.1809649  41.0760832  73.9684582  17.3383784  40.6795168
  74.6317768  16.7035615  41.8828487  36.2294126  29.4409847  62.1583796
  35.9675121  28.5214043  62.1135330  35.5809021  29.9009848  61.6254044
  33.6904073   9.9802816  51.0334349  34.2896986  10.5659974  51.4960575
  33.7131214  10.2827072  50.1255512  57.0984888   3.9958656  38.7816596
  57.7262402   3.9719030  39.5038676  57.0558357   3.0913895  38.4712815
  62.3311186  27.1217704  55.6473017  62.6680660  27.8332496  56.1918163
  61.7222071  26.6518521  56.2170744  81.0572291  80.7850579   1.6285499
  80.5805827  80.8715085   2.4541171  81.8295861  81.3396434   1.7386993
  55.4230118  13.3386564  52.4706459  56.0070848  13.6396623  51.7745924
  56.0104942  13.0048013  53.1486130  72.6864243  24.1785860  45.7310772
  71.8190861  24.5248318  45.9410000  72.5869322  23.7956643  44.8594666
  51.7836237   7.5693661  45.1639509  51.7081881   7.4809086  46.1140633
  52.7256346   7.6213944  45.0022840  73.5695744  39.0187716  62.4702501
  74.1873598  39.7463059  62.3977041  73.8616705  38.5325003  63.2412577
  44.1202259  -0.1316107  59.1150713  44.1976595   0.7982610  58.9015913
  44.7595167  -0.2709976  59.8137236  79.8840428   6.1885012  55.0150776
  80.3573275   6.4475287  55.8057356  79.0107870   6.5649069  55.1245260
  81.4258194  47.2084761  51.7474842  81.2851810  48.1552458  51.7560196
  81.5347862  46.9742060  52.6691580  72.9211998   7.6070982  29.7328711
  72.4016953   7.2223252  29.0269709  72.9930210   8.5328090  29.5002079
  64.1550064  44.9569273  49.6906424  64.8488665  44.2978096  49.6720266
  63.5788059  44.7186995  48.9643669  75.2140474  42.9518843  40.3905582
  75.1387835  42.1276093  39.9097872  75.6281471  43.5532379  39.7715831
  45.6864262  40.8521986  64.5902491  45.7080984  40.5090141  65.4835463
  46.3159657  41.5732288  64.5953321  74.2785978  16.8472147  49.5383596
  74.3630505  16.0739028  50.0961113  74.1657591  16.4946830  48.6556244
  77.8118610   3.6629343  54.0298510  78.0512571   3.3618250  53.1533480
  78.6459017   3.7376389  54.4935513  56.5382147  52.7458191  69.1066980
  57.1327639  53.3827877  69.5029545  56.3750029  53.0855942  68.2268429
  69.9156284  32.8586125  32.8787923  70.5840778  32.9102397  33.5619783
  69.9894857  33.6888719  32.4082112  76.9205141  33.7136149  34.6174526
  77.2263002  32.8281021  34.4210005  76.0372210  33.5903788  34.9650669
  42.5152743  77.1939472  29.5674356  43.1178999  77.7367953  29.0591081
  41.6591657  77.6026992  29.4400342  65.9608412   7.4955666  43.2101250
  65.4306126   8.2325292  43.5134029  66.0020351   7.6050735  42.2601032
   7.6126219  56.1839656  14.2246564   8.4328104  55.6949178  14.2906507
   6.9453550  55.5137483  14.0770371  29.7291495   4.0021722   3.8730891
  28.7859656   4.0157716   3.7104352  29.8071266   3.9202659   4.8235829
  26.2747192  67.2837757  41.5946770  26.2548160  66.6457688  40.8813858
  25.4031038  67.6793229  41.5866137  84.1304349  71.9368302  40.3580379
  83.5813736  71.2991225  39.9018645  84.8231434  71.4124905  40.7598495
  79.4775295   0.6324815  50.3869438  79.1820002   0.4057685  49.5051861
  80.3910065   0.3477764  50.4139900  75.6864405  59.3684959  62.5806570
  76.2313604  58.6376381  62.8724432  76.0005140  59.5638943  61.6978168
  45.7976306  56.1987439  13.7935002  45.2397132  55.4299859  13.6753018
  45.3678167  56.7026440  14.4845708  57.9834868  -0.1994927  12.6129182
  57.9452635   0.7478731  12.7443536  58.7758471  -0.3375180  12.0939382
  11.5320421  60.8173577  23.0551465  11.0695148  60.0590686  22.6983579
  12.4525905  60.6552473  22.8488858  40.3223324  11.4900029  52.2973871
  40.1065588  12.3286605  51.8895578  41.2515068  11.3626122  52.1059608
  61.4315367  33.7541032  42.3049545  60.6129742  33.6562586  41.8185282
  62.0320129  34.1651511  41.6831017  50.3770494  13.0094361  61.8635511
  50.1163578  13.0913305  60.9461832  50.5096817  12.0702028  61.9919252
  58.8166071   4.0609853   2.8276284  57.9367377   4.0105836   2.4541171
  58.6747481   4.0715186   3.7741979   6.0491205  32.8515744  68.0984592
   5.3085161  32.6739979  67.5186396   6.7916894  32.4177003  67.6782513
  39.1033244  18.5415900  35.1424837  39.4185853  17.8506720  34.5598412
  39.8372841  18.7100112  35.7333875   0.6443811  17.4958086  47.7542210
   1.5790868  17.3802400  47.9251003   0.3920770  18.2423770  48.2975531
  11.0748983  75.5641130   5.7015594  11.9723154  75.5623750   6.0345300
  10.8684374  74.6395258   5.5646594  47.1505117  73.8891845  50.2945566
  46.1965847  73.8839566  50.2156448  47.3126316  73.9513146  51.2358809
  51.7954493  34.9967623  60.5238485  52.2032309  35.8025599  60.2066135
  50.8987856  35.2516127  60.7412815  28.8616800  64.4867598  68.0699396
  29.2542839  65.2616393  68.4720039  28.4619856  64.8119639  67.2632694
  62.9145527  38.8487530  52.6460934  63.0921888  39.1132975  51.7434883
  63.2692719  39.5607090  53.1785679  56.9809723  16.4109468  54.5168304
  57.1188354  17.3464322  54.3681908  57.8611851  16.0349166  54.5090199
  56.2798334  26.7657106  11.9031556  55.4899050  27.0878570  11.4690240
  56.9061209  26.6312091  11.1918862  27.2412992  55.3091315   1.7126687
  26.6077734  56.0173014   1.5970262  27.3948408  54.9782339   0.8277019
  76.7080212  44.0227127  55.2239799  76.3494921  43.5545349  54.4699907
  77.6155949  44.2070770  54.9819994  65.4375649  77.3873071   1.8284591
  66.3197255  77.7481941   1.7402394  65.5764938  76.4702801   2.0650847
  22.7384783  59.5881692   5.9765895  21.7830873  59.5425562   6.0136970
  23.0227877  58.6743478   5.9948810  30.8670020  17.3644423  44.7624302
  30.6191349  18.2583058  44.9986506  31.0891294  16.9493115  45.5958271
  28.6290646  13.5124063  55.4872274  27.9581547  13.1162143  56.0432339
  28.3178759  14.4047618  55.3352594  66.6582394  34.9978518  55.4310608
  66.4196920  34.1703129  55.0133228  65.8730936  35.2580404  55.9128046
  28.6229420   5.5347484  55.0527477  29.3909359   6.0152662  54.7436905
  27.8786612   6.0694695  54.7764301  72.1089935  57.3376179  54.5334673
  71.9421768  57.6446867  55.4245996  71.5613985  57.8957796  53.9813566
  75.2735424  26.9149613  40.7651377  75.7041979  26.0602808  40.7820702
  75.9282017  27.5199819  41.1138535   5.9262300  36.7360520  56.5837145
   5.3840471  36.6292691  57.3652983   5.7524515  35.9520841  56.0627270
  47.1494865  69.8332380  47.7799797  47.2115373  69.1757869  48.4729004
  47.9706382  70.3215670  47.8389168  40.1205349  17.2110915  68.0403376
  40.5123329  16.3416421  67.9579926  39.4738698  17.2501051  67.3356867
  18.4532190  30.7567588  13.5649617  18.3779741  30.3809718  14.4420941
  19.3122173  31.1790214  13.5581811  80.0039577  25.8563519  68.6595917
  80.0107098  26.8123627  68.7068081  79.5940781  25.6610537  67.8169203
  61.6373253  16.2665033  23.6573601  62.3245955  15.6724441  23.3557177
  62.0940495  17.0873106  23.8415051  15.7760931  71.8084101   6.4564450
  15.0763965  72.4528555   6.5629418  16.4747167  72.2852305   6.0083421
   1.8979481  20.4223442  67.9815722   1.1625598  20.8442879  68.4258699
   2.6725614  20.7416463  68.4444475  24.4436312   3.8798168  49.1576147
  25.1347017   3.9676675  48.5011578  24.6855593   3.0999818  49.6571732
  10.5669784  78.1978305  39.0438223  11.2090015  78.0252784  39.7324920
  11.0027599  77.9252206  38.2363510  65.3717470   1.2913691  50.4542685
  64.7181368   1.2764329  51.1534166  64.9043274   0.9716845  49.6825504
  27.9332209  19.9512589  50.6639767  28.1838775  20.3135419  49.8141813
  27.8717041  19.0079689  50.5134773  63.9282846  11.5024209  53.0544996
  63.9046621  11.3172257  52.1156836  64.8547220  11.4415622  53.2873964
  68.8006067  66.9253349  47.8986454  67.9693890  67.0554066  47.4421501
  69.1020870  67.8102875  48.1040668  34.1792561  16.0564248   7.0429357
  33.3940722  15.9517162   7.5802930  34.1156222  16.9465654   6.6967614
  30.8272409  17.8095043  49.4568586  30.0662112  17.7864671  48.8767433
  30.7908225  16.9798028  49.9327803  72.6490593  28.1799889  53.2033396
  72.9585695  27.2742558  53.2124138  73.3264875  28.6692810  53.6701536
  10.4194904  63.0683545   1.2746032  11.1851669  62.7144436   1.7270597
   9.8031736  63.2793740   1.9759305  73.8270044  33.5183120  15.9904516
  74.2384529  33.7764263  15.1656353  73.3937025  32.6880860  15.7924497
  69.6063042   8.1705213  36.5188766  68.9436436   8.4645563  35.8938503
  69.1757345   7.4739426  37.0144773  78.2517433  26.3803291  44.6597624
  78.5855913  26.2432957  43.7731981  77.3586130  26.7002916  44.5325804
  78.7629843  36.9280696  58.0519295  78.3107185  37.7696681  58.1101990
  78.0594015  36.2811613  57.9998636  73.7520456  35.4773951  58.1248903
  72.9417372  35.3470397  58.6174774  73.4979963  36.0341597  57.3888874
  43.2315683   5.9920037  67.5458908  43.5886478   5.1071465  67.4700260
  42.7708387   5.9932375  68.3849096  51.2496115   3.8461702   6.2318309
  51.1263205   3.1584279   6.8860848  51.8630148   4.4574754   6.6395982
   6.0531307  69.5987705  36.7929681   5.2992941  69.1326646  36.4314397
   6.6521765  69.6959356  36.0527356  17.1789670  46.0498810  52.0841551
  18.0918813  46.2493658  51.8767452  17.2282052  45.4443121  52.8238153
  76.7138720  11.3469100  36.9728923  76.6889334  12.2991896  36.8792224
  76.6605997  11.1976206  37.9168749  67.4686861  42.4346161  29.1495538
  68.0496407  42.5281096  28.3945823  68.0596828  42.3221445  29.8940706
  83.9753914  34.4790101  49.2757893  83.1369209  34.3266988  48.8398933
  83.9167500  35.3775096  49.6005869  24.4162702  71.8546461  29.8812914
  24.5970058  71.0280084  30.3287697  24.6997928  71.7056870  28.9792633
  21.0672044  76.7436188  59.9166203  20.8728265  75.9164815  60.3574038
  21.8508434  76.5604513  59.3983603  16.1337639  75.9257916  20.3250249
  16.2908150  75.0193647  20.0605329  16.0550762  76.4056662  19.5005448
  14.2098881  29.1293863  12.4422200  14.5045448  29.0612785  11.5340550
  14.8003031  28.5546080  12.9293283  63.9884615  71.5751032  15.0313790
  64.2365790  72.4073724  15.4338677  63.0349040  71.6184024  14.9600633
  35.1198316  27.6574460  14.1360601  34.2787767  28.1064144  14.2214330
  34.9209429  26.8708006  13.6282476  67.4657583   6.5104443  48.9704514
  66.6492653   6.0115021  48.9454222  68.1407022   5.8777505  48.7247276
  66.4430952  23.6177611  34.1724443  65.5768681  24.0195179  34.1055584
  67.0532894  24.3528557  34.1130185  51.0629892  10.5504584  41.4104462
  50.6169891  11.2155259  40.8860397  51.9626665  10.5513668  41.0836172
  85.3093863  30.5292121  18.5703118  85.8778763  30.1010708  19.2104276
  84.7542572  31.1083285  19.0925057  56.5643787  30.5851603  63.7576628
  55.8595419  30.9309864  63.2100868  56.5641594  31.1478543  64.5320034
  82.2874260   4.7037858  49.5813131  81.4351749   4.4629660  49.9445057
  82.0788574   5.2363211  48.8137627   4.5113111   5.5324131  28.6330032
   3.5861612   5.5931920  28.3950329   4.7908330   4.6825549  28.2926512
  77.3604965  18.3211672  50.2800989  77.9123259  17.7228916  50.7838631
  76.6606665  18.5679710  50.8847094  14.3941974  69.6211337  69.2151928
  14.2927599  69.1762375  68.3737612  14.1970205  68.9485168  69.8670673
   2.4641252  34.5184445  22.5913477   2.7328992  34.8182368  23.4597468
   2.2417951  33.5956335  22.7147293  57.4273611   7.1285217   0.1332696
  58.3762385   7.1058290   0.2571376  57.0780398   7.3444907   0.9978898
  79.1434002  12.9152894  24.6669269  79.1582680  11.9904101  24.4207406
  79.8569202  13.0065477  25.2984238  67.7997732  36.7208362  33.7621927
  68.6863375  36.9994664  33.5328388  67.2299433  37.3640847  33.3405781
  30.4956722  71.4832520  50.3029490  30.0659608  70.8138989  50.8354425
  31.3982820  71.1768245  50.2156067   9.7984337  77.7479379  63.7745476
   9.4744825  77.7000683  64.6739912  10.3435754  78.5345595  63.7578630
  30.3976750  19.3457603  64.1322660  30.3109741  19.6824193  63.2404280
  29.5194197  19.4249237  64.5045996  62.6137638  28.2095122  42.4236822
  62.5236273  27.4758649  43.0318499  63.1556988  28.8440990  42.8925467
  66.7659807  15.9915578  63.4714794  67.3485231  16.5073812  62.9139757
  66.3843203  15.3410673  62.8820467  62.5733257  53.2259241   3.0366834
  62.0447755  52.6448325   2.4896939  63.0633808  52.6357750   3.6092265
  40.5446650   6.1361949  20.6036504  40.2559639   6.6664140  19.8608430
  39.9602009   6.3874929  21.3188298  47.3286772  24.4201612  34.7437477
  47.7675295  23.9155936  34.0588737  46.4361668  24.0746856  34.7611165
  24.0355898  77.6173309  16.3884671  23.5248209  78.1378940  17.0084317
  24.7374273  78.2032279  16.1049302  15.2976156  70.8016852   9.1011603
  16.1607004  70.4796056   9.3611177  15.4304720  71.1617712   8.2242806
  39.0107012  25.8713937  70.8927822  39.2485881  24.9486351  70.8024597
  39.7754145  26.3485241  70.5706120  63.5945368  43.0803776  59.8993969
  62.8538036  43.0386782  60.5042171  63.2790756  42.6506805  59.1043615
  77.4473763  50.2206508   0.7142909  78.1110478  50.3613190   1.3895543
  77.3593760  49.2690811   0.6594928  20.1358152  66.1655620  20.4557641
  19.4117666  66.7111543  20.7628758  20.6856418  66.0397104  21.2291272
  -0.0164103  60.3861856  70.1800919   0.6974817  60.9559774  69.8938704
   0.4080892  59.7289705  70.7315445  77.1594381   1.8820888  39.5410705
  76.7502117   2.7422738  39.6351242  78.0721235   2.0221926  39.7932720
  31.8332386  73.0292725  53.9524508  32.7316808  73.1065958  53.6314297
  31.9280147  72.7824234  54.8724031  10.3064537  70.9332394  50.6297207
   9.6778321  71.6395687  50.7785988  11.1303329  71.3819539  50.4396915
  70.0820970  71.0148369  65.8446932  69.4630622  71.2667953  65.1594591
  69.9299776  71.6454422  66.5485620  39.6170568  74.6649163  39.9069238
  40.2145624  75.3537338  39.6158099  38.9686393  75.1211940  40.4432106
  43.5250092  16.1350751  67.2696114  44.4426584  16.1635745  66.9987965
  43.4312820  16.8698227  67.8759050  62.0894003  16.3223636  40.2868366
  62.2861719  15.6221306  40.9090757  62.1573639  15.9055471  39.4278383
   7.8230548  74.9878149  29.3868756   6.9809150  74.9583440  28.9328241
   8.1460666  74.0874719  29.3511391  73.4349442  13.8330138  67.2326708
  73.6547327  13.7471521  66.3050127  74.1186619  14.4000852  67.5893164
  80.1636696  62.6949644  31.4235878  80.9971809  63.1622839  31.4793062
  80.3692055  61.8955851  30.9388399  52.3232698  25.8614945  56.2849283
  52.5063992  25.3641748  55.4878330  53.0148697  26.5223646  56.3191175
  73.0089379  13.1851724  19.9192460  73.6004448  13.4797863  19.2267449
  73.4318352  13.4656671  20.7308515  84.4725323  26.7387962  52.0354319
  85.2102947  26.7442441  51.4255905  83.7213039  27.0041943  51.5049171
  32.9463507  79.7158054   5.0646527  33.0834699  80.4106454   4.4207366
  33.4349180  78.9688901   4.7187408  40.8592415  31.1153722  57.9899740
  41.4399958  30.7101393  57.3459721  41.1529207  30.7653189  58.8310719
   1.8453908  13.7799680  31.7351961   2.7858663  13.6984622  31.5767741
   1.6007638  12.9550219  32.1545458  46.5943289   6.4430910  56.8017960
  45.9322071   5.7568413  56.7188215  46.1444283   7.2438365  56.5323019
  54.7238302  27.4981022  59.6114254  55.3515291  28.0896616  60.0264931
  54.7135973  26.7252374  60.1760578  56.7174196  38.1097269  63.4861994
  56.9080591  38.0131531  64.4192362  55.7869768  37.8987527  63.4087563
  61.7487288  34.5027041  60.2795839  60.9699726  34.1490602  60.7093620
  62.3154736  33.7426782  60.1476860  74.8760033  31.8234015  65.9126759
  73.9390945  31.9954538  66.0066271  75.2344942  31.9645667  66.7889118
  13.9736867  35.2489710  64.2369509  13.2354284  35.3702044  64.8340368
  14.5501829  35.9920835  64.4149017  83.8265896  63.9763975  44.2500305
  84.6329212  64.4922066  44.2484808  83.1292057  64.6217632  44.1343021
  74.7577477  50.3520060  28.9692783  75.4117298  50.1136637  29.6263433
  75.2681494  50.7041836  28.2401061   8.4300352  42.7921629  58.2496452
   8.1803060  42.2106552  57.5315094   7.9984785  42.4212313  59.0193224
  47.7042294   6.6625696  51.1666155  48.0212498   7.5410271  50.9567547
  47.5216913   6.2641644  50.3156233  82.7650452  34.7365642  27.0666242
  82.5250626  34.2914009  27.8793168  83.5338783  34.2614746  26.7513227
  77.4063969  41.8916750  14.3301296  77.9041815  42.6058197  13.9320874
  77.9623985  41.1206150  14.2180359   3.8172937  42.5723553  58.6685419
   3.5323930  43.3912420  58.2629681   4.5709539  42.8199005  59.2042112
  71.8359661  50.7355976  49.8709393  71.6874313  51.5759993  50.3044033
  72.2635746  50.9640694  49.0455961  86.5492916  55.8530569  70.9348440
  86.2213326  56.6683388  70.5553818  87.0066738  55.4202890  70.2139091
  41.4454317  22.7752590  53.1967688  40.8242512  22.6073194  53.9054060
  40.9460878  22.6115179  52.3967218  39.8851943  15.9514236  52.2184896
  39.7219539  15.6214166  53.1020498  40.8378935  16.0254979  52.1626949
  42.6698519  67.9474691   5.5414422  41.8635393  68.4301642   5.3595002
  42.5412775  67.5887040   6.4194997  65.9194040  32.7411103  69.6723986
  66.6043091  33.0150771  70.2823830  65.7821369  31.8140221  69.8670721
  73.8472748  38.6135459  17.6679540  74.5666218  39.2377734  17.7634430
  74.2706585  37.8005600  17.3922110  63.1948280  18.5082746  49.0117598
  62.8513050  18.2661963  48.1517458  62.9017544  19.4102180  49.1415215
  19.2419316   6.8003194   5.9846623  19.1711546   5.8647888   6.1744245
  18.7240816   6.9231765   5.1890691  68.9069319  15.9180427  21.9838715
  67.9843855  15.9413397  22.2380376  68.8926601  15.7140875  21.0487628
  84.0415192  51.9835869  18.2790216  83.5752583  52.6512603  18.7820561
  84.1750479  52.3815779  17.4187882  70.9076309  65.3993130  47.3376274
  70.1509571  65.8565569  47.7045107  71.6553736  65.9509706  47.5673962
  55.1146126  34.9004745  64.2200613  54.2233229  34.5758700  64.3483829
  55.5373907  34.7821498  65.0706434  70.5718803  56.2350845  22.3551822
  70.1573801  56.2451410  23.2179213  71.4967871  56.0672426  22.5357699
   5.3221059  29.7151113  32.6445079   5.2989793  30.0968289  31.7670178
   5.3499532  30.4693937  33.2331634  20.7673479  67.6608566  11.6743310
  21.1148668  67.8840784  10.8108361  21.5186191  67.7388028  12.2623380
   3.0859018  28.5811901  68.5758066   3.5446477  28.3859372  69.3929100
   3.7675214  28.9143205  67.9921532  40.5842234  42.4453827  28.8677152
  40.6454111  41.7763733  28.1858666  40.3024126  41.9673764  29.6476682
  48.8268067  18.9623849   1.3475020  48.4803034  19.7163074   1.8247445
  49.7769285  19.0735071   1.3814004  78.3674717  35.7369375  21.5640903
  78.6869907  34.9284792  21.1634183  77.5731897  35.4756832  22.0300245
  50.0043726  31.7543077  58.1540489  49.1889143  32.1925950  58.3972883
  50.6002045  32.4673343  57.9242420   3.3115793  52.7457142  55.4144812
   2.4222017  52.4387455  55.2383852   3.4162641  52.6464272  56.3607454
  76.1179829  24.1678739  40.0543880  75.4211712  23.5194039  40.1552534
  76.8748617  23.6620903  39.7584891  19.3224740  11.9864249  54.1854858
  20.0053239  11.9430649  54.8548651  19.0373826  11.0793626  54.0750551
  83.9191103  68.7319902   7.0875485  82.9844571  68.9326266   7.0385297
  84.3207598  69.2997078   6.4298232   4.4717622  24.7783279  61.2694407
   4.3282438  24.8527193  60.3259897   4.1434408  25.6031251  61.6274214
  79.3623495  53.5256386  45.7477379  79.7975016  53.9987898  45.0385141
  79.0316582  54.2126513  46.3264322  76.4929533  25.7522249  52.2798538
  76.2833929  24.8658943  52.5743628  76.4663839  25.6997132  51.3244629
  72.8973700  29.3844335  13.5977204  72.0451761  29.2511337  13.1827100
  72.6908232  29.5779388  14.5121129  47.1362019  52.3418045  23.2173276
  46.2425518  52.0227957  23.3432722  47.6739216  51.5499830  23.2068157
  17.3339582  73.6636571  13.0209859  16.9665218  73.3373026  12.1995767
  17.8691889  72.9405741  13.3479531  71.6941738  51.7041492  63.9942598
  71.1718273  51.5288639  64.7769880  72.3104572  52.3846674  64.2650318
   1.4550615  43.9570665  22.8494692   1.3590456  43.2324409  22.2314644
   1.4382101  44.7423077  22.3023462  21.0466553  67.4152545   1.3753255
  20.7843328  66.8993524   0.6129201  22.0035530  67.4057845   1.3531955
  16.0644388  73.5452311  53.4504414  16.2831926  72.6631074  53.1500435
  15.2229595  73.4448968  53.8954973  39.2868210  22.5361936   9.9864801
  39.1501070  23.3893220  10.3984483  39.3851687  22.7330606   9.0549262
  80.9141446  72.6797870  15.7737954  81.6394377  72.1846107  15.3930219
  81.3342762  73.4151343  16.2198766  43.7154890  22.9978387  36.5829881
  43.5009123  22.4511592  37.3388513  43.4002424  23.8697831  36.8208154
  10.3760601  80.9345177  18.1411870   9.6716286  80.6792811  17.5454743
   9.9540926  80.9974698  18.9980443  46.7388607  29.2204301   0.3380330
  46.3648344  29.7893445   1.0108407  46.4717509  29.6205060  -0.4895083
  46.9789292   9.9294536   7.5049575  46.4990259   9.7450178   8.3123668
  47.4475647   9.1169708   7.3139604  63.9459158  58.6191623   3.2508166
  64.3937803  57.8474967   3.5974868  63.1428744  58.2746570   2.8600867
  68.7251307  20.3541105   2.5416358  67.8552748  20.4172485   2.9360946
  69.0267874  19.4739644   2.7665313   7.1366144   6.9336247  23.4576678
   6.7272497   7.5261861  24.0881610   7.2985387   7.4782372  22.6873374
  75.6349230  51.4586973  63.1753778  75.0834608  51.5665960  63.9502811
  75.0289869  51.5323353  62.4380493  11.4523054  10.6407332  25.6501198
  10.5585695  10.4158974  25.3914332  11.6267419  10.0893927  26.4128971
  -0.1647067  37.9517388  58.7882423   0.2203775  37.6852655  59.6230698
   0.4664159  37.6612878  58.1297922  48.4279298  80.2637055  18.3100045
  49.0742206  79.7796450  18.8240314  47.7670288  79.6106257  18.0799508
   8.1600786  31.0069752  43.3120632   8.5810018  30.4054666  43.9262676
   8.8828874  31.5076351  42.9337549  36.2085462  68.7812070  20.7318814
  35.6454016  68.9685110  19.9808629  36.9406629  69.3910006  20.6402619
   5.9037233  12.1953166  65.2849388   6.5498758  12.1222436  65.9873486
   5.1030660  12.4811411  65.7248116  24.7313286  37.1489208   1.3471587
  25.1698328  36.6858976   0.6333240  24.3156220  36.4570777   1.8617185
   6.7375684  71.5174580  53.6985254   7.2711301  71.3420105  54.4736147
   6.9491029  70.8045959  53.0957651  62.9806757  20.5470610  52.7128649
  63.6524153  20.3734803  52.0534182  63.4537745  20.9649467  53.4324360
  16.5057207  40.0700712  41.1778688  16.0388780  40.8192921  40.8077860
  16.1626649  39.9899340  42.0678806  70.7999754   7.6873446  51.6816425
  71.4453268   7.6454610  50.9759521  70.9411335   6.8844199  52.1832609
   6.0220075  32.4876308  59.6775532   6.1559511  32.4581456  58.7302303
   6.8364168  32.8528833  60.0233412  82.2466183  61.9057465  61.4901495
  81.9514275  62.3347092  62.2933197  82.5773716  61.0556507  61.7802906
  83.1503582  61.6130877  46.5458250  83.9276218  61.2076807  46.9301891
  83.4368324  62.4918270  46.2968779  71.5878248  33.5191631  59.3236732
  70.9822369  34.2102456  59.5918131  71.3668060  33.3490229  58.4080076
  71.8258095  31.0748363  16.0726714  71.8771935  30.4093742  16.7587829
  71.2614822  31.7549324  16.4404202  73.1074572  75.6816462  13.9694722
  73.0927515  76.2250737  13.1816323  73.9578343  75.2430848  13.9421018
  83.1416416  67.7798796  48.5169554  83.9982891  67.8224659  48.9418983
  83.3199406  67.4016285  47.6559258   8.8096596  54.9985961   4.5900567
   9.2938209  54.6356443   3.8483794   9.2005230  55.8606747   4.7324498
  86.5872860  72.1536255  37.6230597  86.6889763  72.7167273  36.8557239
  85.7397270  72.4022245  37.9919434  75.4711246  11.6370332  59.1560078
  76.0491800  12.3982561  59.2072248  75.7558441  11.0713530  59.8737621
  49.5742178  24.5449066  40.7106924  50.1262569  23.7633419  40.7359791
  49.5921659  24.8212767  39.7944355  21.3935686  61.5687370  53.7177706
  20.9519411  61.5176010  54.5654678  20.7753683  62.0328283  53.1532526
  72.5322390  29.8611403  50.9943819  73.3199930  30.1958728  50.5658674
  72.8528214  29.1830063  51.5890169  53.4377909  25.6046510  51.7260313
  53.2953501  25.4546618  50.7914448  54.3874073  25.6873727  51.8133307
  14.4029832  61.5011787  40.6635189  13.6719156  60.8850145  40.6176376
  13.9931989  62.3640394  40.6020689  55.8063221  26.3160753  64.7587776
  55.4003096  26.4942026  63.9104509  55.1197195  26.5071607  65.3977585
  14.8692823  74.4922161  64.5720816  14.4618726  74.7509384  65.3987074
  14.5248819  75.1135349  63.9305305  67.8961420  68.4561682  59.4951010
  67.7647829  68.1201696  60.3817129  67.8171921  69.4058847  59.5847368
  25.2592303  22.0199172   2.2396977  24.6791102  21.2604015   2.1865209
  26.1074187  21.6561429   2.4936135  36.7794920  58.5789982   5.7612641
  37.4167467  58.8071219   5.0844367  37.2759462  58.6131755   6.5789445
  75.5470133  24.4085908  45.6734800  75.7313871  24.4411278  46.6121912
  74.5938015  24.4727302  45.6142473  70.0492287  53.8475601   6.7893823
  70.0141001  54.7645656   7.0615895  70.3635550  53.8778249   5.8857663
  85.5027962  69.5450592  27.1875620  86.0870171  69.6894264  27.9319215
  85.5235577  70.3704071  26.7031980  65.1830435  48.1227589  47.7684307
  65.8977413  47.5621223  48.0703068  65.6168604  48.9174652  47.4578190
   9.9184633  44.9489880  56.9127417   9.3640256  45.2014685  56.1744404
   9.3301797  44.4802856  57.5047541  77.9536963  50.6794993   7.9431184
  77.3250533  50.7594017   8.6605104  77.6059008  51.2473742   7.2555240
  81.0557079  73.6278248  55.1456356  80.9280968  74.2663097  54.4440126
  80.7034779  72.8106880  54.7928572  72.6762606   3.6942785   7.3961623
  72.2082640   2.8595893   7.3737462  73.5700537   3.4748714   7.1330531
  86.3947678  23.8901520  60.0630045  85.5766201  24.3795395  59.9771595
  86.5391350  23.5109639  59.1960526  56.5543365  75.0395346  61.7813873
  56.7926359  75.9574652  61.9111919  57.3846769  74.6001911  61.5976906
  77.8212595  13.1222296  70.2949619  77.8897333  12.1856391  70.4802704
  76.8799305  13.2951128  70.2794075  20.3014637  78.8558105   6.3722833
  19.5629526  78.6509804   6.9457610  20.5986477  78.0044679   6.0511382
  65.1104784  43.9154196  39.0623713  65.4686069  44.2114258  38.2254982
  64.1767836  43.7904739  38.8925672  66.9990349  32.7148056  53.9611340
  67.8780031  32.8404665  53.6035633  66.5529299  32.1687460  53.3137989
  13.9518524  73.4276036   5.7397922  13.0310894  73.1741146   5.6752284
  14.2238928  73.5746149   4.8339160  65.6179857  35.1397824  51.1563110
  64.9602652  34.4609308  51.0053396  65.1095629  35.9371042  51.3046789
  80.4626751  42.9852009  49.4984674  80.7944870  43.8830471  49.4957209
  80.8946800  42.5724936  50.2463198  81.9703484  61.8752289  67.9380322
  82.3844528  61.7283058  68.7884235  82.1535492  62.7931547  67.7378178
  84.0134335  42.4301100  63.8634968  84.4468594  42.4006939  64.7164440
  83.3956051  41.6992760  63.8834572  45.6478049  31.9393842  17.1202691
  46.5775229  32.0919435  16.9512113  45.2993084  32.8034847  17.3396237
  60.8861160  51.2985706  49.2499590  61.5251255  52.0022106  49.3630314
  60.0512648  51.6894913  49.5077133  82.5107384  25.4606557  39.5180345
  82.1463776  24.5794654  39.6015787  82.2807312  25.7316709  38.6292839
  37.0082451   5.2973907   1.1209615  37.4980761   4.8968999   1.8392261
  37.0076109   6.2328546   1.3238080  75.8551455  33.6951447  28.5254455
  76.5594625  33.6507320  27.8787637  75.3947878  34.5095015  28.3226490
  53.8207579  73.2201004  56.9026089  53.1705236  73.9143085  57.0098591
  53.9060688  73.1161737  55.9548998  84.0821934  56.5115690  59.0340233
  83.7092113  56.6166735  59.9092770  84.2543602  55.5730438  58.9581537
  14.5250774  71.6833404  45.1081975  14.9723650  72.2605804  45.7270463
  14.9820352  71.8215374  44.2785485  66.8464661  73.7425089  66.7653275
  66.3827848  73.6283350  67.5949049  67.1274042  74.6575308  66.7719269
  74.1091394  49.5063114  56.6680098  73.4886122  49.1190338  56.0506010
  73.7362957  49.3214703  57.5300121  36.9198060  32.4966764  32.5633550
  37.8096796  32.6251030  32.2349310  37.0266462  31.9356990  33.3315468
  27.7263094  67.9848508  28.9850362  26.8178869  68.2701615  28.8870652
  28.2456709  68.7436155  28.7190087   4.0706087  80.8940506  55.6466150
   3.3337903  80.6687260  56.2145615   3.7075448  80.8673668  54.7613430
  80.0834560  62.7222443  45.6485558  79.3398285  62.7682734  46.2495041
  80.7305050  63.3207178  46.0218906  63.4941483  71.5812302  65.4674530
  63.2757378  71.1832237  64.6247673  62.6814985  71.9987488  65.7529449
  61.5392065  42.8620481  69.8401976  61.6601133  42.4432898  70.6924009
  60.6236172  42.6930428  69.6180248  72.3428345  77.5208378  68.2872581
  72.8266144  77.7283716  69.0867043  72.9468679  76.9839048  67.7743435
  68.1240702  43.3341980  32.9352832  68.3966494  42.5193453  32.5134492
  68.8332415  43.5369539  33.5453629  75.4526806  20.4503536  64.5622110
  75.7633734  19.5472288  64.4984388  74.6333265  20.3876710  65.0530863
  50.7361174  60.1053095  38.3609939  50.6498814  59.6707582  39.2094994
  50.3738213  59.4797325  37.7335978  62.7667570  44.6801996  46.7289495
  62.6896334  45.5675220  47.0795870  62.1277571  44.6476126  46.0170174
  56.9852924  80.7953835  43.0382156  57.6421547  80.4448700  43.6397934
  56.6769409  80.0324345  42.5492668  87.0915890  47.1815062  52.2259903
  86.8150806  47.1905422  53.1423378  86.2959099  46.9698668  51.7377901
  62.4877882  61.9146442  65.9783745  62.6780033  61.0838652  66.4141035
  61.9308472  61.6746616  65.2377939  32.3668766  72.9005246  45.6684923
  31.7216682  73.4343826  45.2048826  31.8768358  72.1314560  45.9593964
  47.5794268  32.6731229  59.5058060  47.4244356  32.9951477  60.3937864
  46.7133665  32.4155021  59.1898823   3.1583238  35.4036784  28.0221415
   4.0433526  35.1280379  27.7834415   3.0307889  35.0601530  28.9064240
  61.7685318  40.9238768  64.2165804  61.7227173  40.3063345  64.9464893
  61.1048079  40.6153011  63.5997486  79.2649389   1.5764777  13.9129289
  79.7424628   1.4268176  13.0969556  79.6449400   0.9519450  14.5308240
  52.6221991  24.3749714  66.3860512  52.3800898  24.3179750  67.3103714
  53.3881712  24.9488854  66.3740396   5.1860977  57.1735398   6.2334950
   5.4790712  56.2972788   5.9833606   4.2764831  57.2152952   5.9383853
   4.1926647  46.8288956   6.1797317   3.2623125  47.0468507   6.2359984
   4.5028091  47.3004834   5.4066546  69.2200422  13.8636053  62.4728680
  68.7141895  13.4346485  61.7826891  69.1738987  13.2597852  63.2141495
  83.4562016  29.1296291  28.8375068  83.4589481  29.9680066  28.3756113
  84.1800976  29.1968417  29.4601536  59.2444445   0.7570474  22.6774247
  59.9789835   0.2541702  22.3255857  58.4740664   0.3925721  22.2416432
  75.6792450  44.0745640  32.1026182  75.4537487  44.7142172  31.4271712
  74.9012470  44.0287161  32.6583576  60.5291128  57.8384256  55.6620932
  60.5307245  56.9460297  55.3158998  60.5318499  57.7265501  56.6127300
  13.8542486  41.9566774  27.2938395  13.0732656  42.2845984  26.8480039
  13.6523080  41.0415459  27.4887204  76.3415861  56.3129759  36.9128442
  75.8595181  56.0635710  37.7012849  75.6890392  56.7407990  36.3584208
  79.9560070   4.7861469  39.7458339  79.2392445   4.9963540  39.1472530
  80.5503845   4.2443207  39.2268300  -0.1407218  63.4985018  40.8735514
  -0.0567984  64.4382143  41.0351944   0.7480360  63.1577587  40.9747076
  66.2424660  62.3877001  34.2264199  67.0734167  62.3698950  34.7012258
  66.4809322  62.1975613  33.3191085  60.1987267  57.3363590  30.4351377
  59.3160725  57.1711493  30.1036811  60.0668335  57.9014874  31.1963630
  17.3517824  40.6867933  67.4064398  17.7958513  40.2625275  66.6722536
  16.9410921  41.4615393  67.0225954  12.1636796  46.3618565  51.1538553
  11.4240385  46.4052343  51.7599058  12.5945974  47.2121572  51.2406111
  69.2093325  54.9437523  64.9722242  68.6990404  54.3434334  65.5157757
  70.1171589  54.7917891  65.2348852  53.9819765  37.4010992  63.6195135
  54.2697144  36.5062475  63.8002825  53.2273340  37.5306797  64.1939354
  63.2882881  30.2368474  67.2243214  63.4374332  30.9798527  66.6395760
  63.7037802  30.4929185  68.0477428  40.5234361   4.0644492  46.3230610
  40.0113226   3.3451880  45.9534311  41.3806654   3.6793650  46.5049744
  40.1755167  50.7126758   3.9453443  40.1808573  50.0563607   3.2485993
  40.1629854  51.5513996   3.4842380  70.4208088  43.2071638  41.3001919
  71.0824060  43.8988972  41.2954664  70.9210396  42.3980236  41.4064741
  15.1733518  43.0661058  58.0958128  16.1110139  43.0572891  57.9035950
  15.0952650  43.6052084  58.8828993  67.6202774  46.9792175  67.8971577
  68.3201313  47.5593853  67.5974178  67.6498175  47.0416641  68.8518620
  61.9439055  58.4838550   9.0779098  61.0563780  58.7239902   8.8116963
  62.3412825  58.1204955   8.2865270  74.3324709  52.4923086  60.7926893
  74.0860891  53.3664227  60.4902697  75.0461483  52.2300196  60.2112246
   2.2289777  23.5226393  46.8185377   2.7139211  22.7085972  46.9542027
   2.3063875  23.6939692  45.8799839   0.7443071  48.1834555  67.4454975
   1.3628126  48.1290197  68.1739998   1.1624837  47.6913261  66.7389822
  63.4165335  26.3560295  60.8229828  62.9518986  27.1587157  60.5862474
  63.1384039  26.1741686  61.7206478  70.4065084  63.3360624  64.9922514
  70.7016754  62.5083256  65.3716660  69.4722891  63.3738756  65.1972771
  70.2414465  27.6792192  60.0548315  70.4159784  28.0261254  59.1799450
  70.3030682  26.7294908  59.9525881  61.8546104  37.2477078  62.9425859
  61.2596035  36.5417528  63.1952238  61.7256308  37.9204416  63.6111832
  80.6066132  26.6812778  51.9965839  80.1823330  27.2529864  51.3567686
  80.9864616  27.2808766  52.6387930  70.6895971  44.1983652   8.7569135
  71.4708948  44.7513151   8.7499273  70.0744534  44.6601295   9.3266571
  76.8061304  43.4386301  52.6008511  77.7276421  43.1843758  52.6498699
  76.6749620  43.6885929  51.6862202  57.7104425  33.8399935  58.0356407
  57.4843311  33.1675816  58.6782646  57.7106190  34.6572042  58.5340357
  55.1434135  11.9619727  46.9958258  54.7212267  11.1057496  47.0656347
  55.7492495  11.9913757  47.7363157  58.4578323  43.8189602  63.8773394
  58.1543589  43.3569813  63.0958605  57.6653576  44.2054319  64.2499828
  72.0554018  15.4788637  40.0055170  71.1848783  15.6567311  40.3615904
  71.9958019  15.7386482  39.0861750  18.0203271  65.1316547  64.6227503
  18.9589811  65.2998257  64.5398235  17.8234411  65.3198290  65.5403852
  58.4214401  32.1747088  68.2501650  58.5371065  33.0716920  68.5636520
  59.0497446  31.6607976  68.7574720  56.7116785  57.0324564  66.8763447
  57.0277262  57.8183746  66.4306116  56.0064983  56.7070103  66.3168478
  63.0495405  36.0245180  51.7565107  62.7927017  35.4604602  52.4859667
  63.2738495  36.8596458  52.1669722  61.7471743   5.2029800  46.9712925
  62.0584059   6.0665035  47.2427559  60.9839058   5.0385082  47.5250101
  23.1751085  49.0757189   8.4690650  22.5402666  48.3597932   8.4948047
  23.8245226  48.8439623   9.1329797  82.3337936   6.7424059  47.0590544
  82.2390175   7.1386242  46.1928749  82.6097012   7.4643391  47.6237822
  73.1059170  49.7098932   6.7398723  73.4220171  48.9195142   6.3021358
  73.5998536  49.7437970   7.5590833  56.2992811  15.6673014  45.6837654
  57.0099545  15.8655787  46.2935734  56.7305470  15.5795062  44.8337507
  70.7547283  21.4508200  43.7861919  70.4362011  21.0762000  44.6074295
  70.0744343  22.0721459  43.5265970   5.3830266  18.6441338  41.2707281
   5.7399869  18.1170082  41.9855404   6.1119581  18.7418866  40.6580830
  66.8374205  31.7450953  67.0758677  67.3291159  31.0691857  67.5423622
  66.2446451  32.1074843  67.7342892  71.0139681   0.2892797  16.1773522
  70.3154780   0.4592817  15.5453332  71.8196417   0.3381412  15.6628259
   6.3497377  78.9697007   3.3059199   5.8012224  78.9064506   2.5240214
   5.9902597  79.7123150   3.7912353   8.5249925  46.9425432  13.7304624
   8.4503103  46.6568050  12.8199609   7.8794456  47.6442204  13.8150056
  72.9299593  41.2216949  26.6488600  73.5584736  41.4572573  25.9664321
  73.2857656  41.6119242  27.4472046  79.5971346  46.2312698  63.5603094
  80.0264168  47.0165443  63.2207680  78.6818123  46.3257027  63.2966852
  66.7610693  41.3580942  59.3412590  65.8190536  41.2461185  59.2135668
  66.9005156  42.3030519  59.2792606  63.1208086  12.7436507  58.5553598
  63.8462210  12.4237251  59.0916920  62.3354769  12.5058496  59.0482426
  14.0688920  42.2613811  68.7546587  14.5024801  42.0790005  69.5883036
  13.1355978  42.1643734  68.9438486  82.2015572  77.1514702  15.4887855
  81.6656113  77.5193501  14.7861779  81.5860844  76.6463757  16.0201073
  83.7336063  37.6159334  31.5078473  84.1202641  38.3648372  31.9615817
  84.2913723  37.4865818  30.7407713  80.4071522  58.2451344  35.5544066
  79.9420691  58.3628559  34.7261119  79.7327900  57.9548645  36.1685848
   1.8361307  73.8493919  54.3702126   2.5498319  73.3273268  54.0037346
   1.8311143  73.6279726  55.3014374  65.0413227  27.7527690  41.3467455
  64.2478371  28.2581377  41.5234280  64.9951363  27.0142961  41.9539976
  74.9941540   3.2484946  31.8756533  75.5536461   2.4721943  31.8520951
  74.7737789   3.3569172  32.8008103  72.7207422  13.3159471  53.3938789
  72.0835066  13.7112021  53.9888000  72.2733498  12.5472999  53.0399704
  77.7328634  37.7641106  35.1441503  77.4000549  36.8666410  35.1485038
  78.3933687  37.7779889  35.8368063  21.6212225  72.1623223  43.5748005
  22.1960020  71.9480222  42.8399944  20.7933092  71.7300200  43.3652687
  23.1334806  74.8536829  11.6409810  22.9184461  74.0560964  11.1574014
  23.7152315  74.5593623  12.3418172  65.6053305  40.3385782  51.3979578
  65.2456951  39.4866371  51.6451263  64.9296141  40.7329226  50.8464718
  51.7997004   1.1568372   3.2920821  51.4639021   1.0881822   2.3983510
  51.7030836   2.0829885   3.5137637   4.2422414  45.1888275  65.4407835
   3.7363267  44.4322681  65.1443005   4.4497228  44.9948978  66.3548803
  64.2683744  76.9831181  33.2460260  64.8063946  76.3860846  32.7261043
  63.9912415  77.6574850  32.6258159  32.2628618  57.9494047  30.3391528
  32.3419023  57.1759272  29.7808313  31.5538621  58.4577084  29.9452305
  51.3845373  13.5318296   3.3023866  51.0248829  12.9156034   2.6643069
  51.1668993  13.1502693   4.1528447  10.4886651  28.5126495  49.7956944
  11.2885023  28.0234385  49.6028996   9.8850465  27.8568554  50.1447105
   0.7111955  56.2727213  47.8265429   0.6851602  56.7539740  48.6535549
   1.2221837  55.4873800  48.0224180   4.1469503  37.1064568  58.8170528
   4.3293500  36.7484641  59.6858501   3.8840986  38.0120444  58.9815092
  74.0589857  80.9626484  46.4345026  74.1132927  80.3927708  47.2016573
  73.4548855  80.5124855  45.8440304  12.1712709  28.5719752  59.3700266
  12.0148015  29.1302800  60.1316357  11.8917203  27.7005029  59.6504164
  78.9962698   4.9362485   7.0574601  78.0995394   5.2056520   6.8586238
  79.0619875   4.0470378   6.7092927  20.4400087  61.7175150  62.1790171
  20.7351137  61.0854673  61.5235329  20.1027799  61.1797523  62.8954792
  64.4339466  12.5573206  37.8633189  64.9342060  13.3577752  38.0222106
  63.8813591  12.4622631  38.6391020  68.4007454  43.8855028  38.2297826
  67.5724316  44.0309048  37.7726316  68.1737709  43.9352369  39.1583538
   9.2575002  45.2671194  60.4797125   8.8262201  44.5823002  59.9685764
   9.8468233  44.7929430  61.0662937  65.5742193  61.4742235  24.4209798
  65.5092455  60.7592133  23.7879212  64.9396730  61.2499026  25.1016172
  78.0030727  55.8501482  52.0771885  77.2833872  56.2622643  51.5992260
  77.6623917  55.7263565  52.9630995  75.3395367  48.5754919  65.2629423
  76.2502146  48.8686752  65.2323198  74.8293591  49.3554354  65.0446749
   0.6141115  43.9257669  53.3789110   1.4636827  43.4982061  53.4868336
   0.5939413  44.5946503  54.0633249   6.3809419  48.1080389  53.3329391
   7.0619989  48.3297348  53.9679575   5.8893514  48.9209032  53.2153559
   4.5496202  80.8959866  43.6542654   4.8817373  81.7261982  43.3126640
   4.9730230  80.2283955  43.1145620  76.6545677  32.4484062  40.1931095
  77.2197104  33.2066035  40.3413630  76.0108471  32.4875355  40.9004402
  84.2130184  57.8748226  26.6190243  83.9852142  56.9451284  26.6170335
  83.7229156  58.2399321  27.3557281  43.4582424  76.1238718  37.4375081
  44.0186119  76.7512989  36.9808316  43.0003595  75.6581068  36.7377663
  70.1043510  56.1070299  50.5722237  70.8032084  55.7842875  51.1411428
  69.9220228  55.3778315  49.9795532  64.5544720  14.8286724  61.6172314
  63.6650372  15.1823950  61.6126633  64.4449091  13.9081204  61.8555832
  69.7040224  40.2763033  41.4034986  70.1387835  39.6274614  41.9568682
  70.1327801  40.1907158  40.5519819  27.2306753  20.4800861   3.3726771
  27.9372669  20.8986204   2.8809627  27.6244665  19.6822612   3.7257131
  66.5249157  44.5817518  62.1940851  66.9263983  44.5832634  63.0630159
  65.5836201  44.5515919  62.3652124  41.2341333  66.5577415  20.1431115
  41.5849233  66.7375306  19.2708428  40.4462934  66.0385016  19.9820836
  63.2159830  26.3350265  10.0612958  63.8628794  26.9884126   9.7951444
  62.4737955  26.4799182   9.4744428  47.0712972  65.5185918  23.5148557
  47.2030283  66.1419276  24.2292340  46.2490297  65.0782398  23.7297948
   1.6871858  54.8809624   6.2801003   0.7984663  54.5629692   6.4391279
   1.7079187  55.7472944   6.6866356  63.9219856  67.2464323  59.8958015
  64.7340202  66.9980383  60.3375340  63.9460802  68.2029915  59.8703814
  25.3307653  73.0144739  39.8099113  25.6161905  72.8157425  38.9181352
  26.1415220  73.1908512  40.2871895  66.1242700  68.1603030   2.4963506
  66.5958334  67.4949840   2.9975589  66.8087984  68.6344770   2.0243247
  82.9122543  46.2780809  47.7297068  82.7850628  45.7588959  46.9356680
  82.0829391  46.2013054  48.2014799  66.0610987  20.9664218  11.2404855
  65.9480883  21.1905067  12.1641954  65.3888441  20.3066652  11.0701020
   3.2077241  63.1229687  53.9071798   3.4846139  64.0129852  53.6893892
   2.2601057  63.1890249  54.0250111   4.4846845  58.8168383  38.5342860
   4.1991830  57.9071188  38.6187696   4.7266221  58.9073277  37.6125979
  24.3123461   2.6157130  22.9216862  23.8345457   3.4451331  22.9194355
  24.9068189   2.6837862  23.6688185  21.1167074  37.4780059  38.2174110
  20.2283979  37.5194359  37.8632617  21.5984083  38.1500101  37.7351236
  75.1744413  61.0214853  41.5561819  74.8743534  61.7738485  42.0662117
  74.5286560  60.9345102  40.8550167   6.2859894  72.1637610  16.8846162
   6.0468794  73.0433730  17.1767457   5.9711958  72.1173719  15.9818490
  12.9752231  14.3990363  44.0947914  13.2583881  13.4862746  44.1487980
  13.6712385  14.8371542  43.6050510  61.9467570  24.8239820  22.2008260
  61.0024286  24.7145431  22.3126443  62.3104693  23.9552514  22.3718865
  85.1783657  67.3780394  50.6376839  85.5953026  66.5490437  50.4028225
  85.8882999  68.0194807  50.6100607  11.0172677  61.8408728  61.4872456
  10.0770689  61.6616726  61.4753580  11.1760736  62.3401546  60.6861639
  63.7625910   6.8003337   3.1919606  64.4683005   6.4985053   3.7638934
  63.0367113   6.9894473   3.7865718  57.1858813  10.3928583  23.6279996
  56.8674971   9.7299831  23.0152543  57.4847151   9.8929899  24.3876393
  13.8240743  76.8567610  43.7605906  14.0032411  76.7672205  44.6966028
  12.8768468  76.9845915  43.7091923  58.3678366   9.5693128  13.2652028
  59.1305948   9.1795938  13.6924584  57.8321482   9.8997609  13.9863618
   1.9658876  57.5403261  57.1459198   1.4754224  57.4007273  56.3358641
   2.7127958  58.0785847  56.8839407   9.0505720  11.4208508  31.8324995
   9.9490571  11.7291808  31.9503140   8.8239027  11.6791785  30.9391212
  13.9833761  68.5424614  19.5862150  14.2600465  67.8297281  20.1621413
  14.7853208  68.8152075  19.1404259  79.0367651  38.8998532  50.4661274
  79.6240950  39.0218997  51.2120390  78.5342073  38.1145883  50.6829739
  86.1324596  80.6791401  54.7055674  86.0589027  79.7607279  54.9650764
  86.6802979  80.6631374  53.9208031  18.3748937  50.9248734  50.5507612
  18.5726667  50.0452948  50.8724070  17.9469896  51.3591576  51.2886810
  68.9894772  31.8946171  51.5838814  69.9160242  32.1182203  51.4958620
  68.5250282  32.6660585  51.2592268  86.2469006  73.1518459  49.6199322
  86.0000229  72.4200010  50.1853371  87.1864319  73.2614422  49.7665501
  68.2863903  22.2719812  28.0702162  67.6016665  22.9401374  28.0393457
  68.7168550  22.4089861  28.9141130  69.1429949  70.2693844  47.0260477
  68.5461092  70.1193666  47.7591610  69.5517635  71.1131716  47.2188044
  12.6642633   5.4251343  59.0555906  13.6104417   5.5396456  58.9669037
  12.3736310   6.1986351  59.5387697   7.3016572  65.3174496  26.4344525
   6.7769266  66.1179495  26.4440346   6.9563318  64.8135138  25.6975460
  40.1746035  66.9314575  59.9796820  39.2939901  67.1853018  60.2559376
  40.4883289  67.6757097  59.4659758  40.4661204   2.6021354  12.7695020
  41.1035658   2.2890012  13.4112485  40.8436991   3.4151904  12.4339326
  85.3220654  47.9820251  17.7971077  84.5311260  47.5089359  18.0556166
  85.1758194  48.2093954  16.8788791   4.7156263  50.4398441  71.0352516
   5.3750825  50.0829506  70.4402924   4.6069074  51.3486052  70.7549572
  11.3474775  34.0731025  56.7756414  11.8277765  33.9376879  57.5924683
  11.1527563  33.1896043  56.4629984  47.5216223  16.0013406   1.8144448
  47.8171993  15.5040090   2.5770219  46.8507124  16.5910642   2.1584495
  13.3834672  58.4090710  49.4356728  14.2107320  58.8456964  49.2326546
  13.4959722  58.0866146  50.3298759  17.8045011  36.2795210  29.0791512
  18.4362150  35.7765007  28.5652113  16.9902158  35.7807922  29.0124846
  69.2255831  37.8724575  25.9793854  69.2077446  38.7446117  25.5853558
  70.1423454  37.6029682  25.9232283  86.9412184   0.5366267  60.9639359
  87.0411349   0.5495299  61.9158173  85.9989453   0.4441012  60.8232498
  54.0721537  33.9175193  11.9088300  53.1998755  33.8040082  11.5313752
  54.5661284  34.3838136  11.2344487  75.4333401  41.8103838  42.8237057
  75.1759243  42.1063900  41.9505787  75.4023361  42.6004171  43.3632565
  85.8916950  60.5031443  46.8344021  86.5307426  60.9190416  46.2557173
  85.7788467  61.1252594  47.5530624  77.1388531  56.0112906  30.3749204
  77.2711182  55.2420139  30.9289503  77.8322887  56.6170120  30.6366158
  24.2810750  64.6010065  40.9987497  23.9642644  65.2969170  41.5745687
  23.6436296  63.8946676  41.1035347  72.8181028  77.6846170  33.0455565
  72.1901798  78.2644320  33.4765553  72.9473448  76.9676542  33.6664391
  26.1866308  63.6690596   2.5450833  25.7378698  62.8378323   2.3904784
  26.5840269  63.8871316   1.7020162  22.7613951   4.2865981  33.4956551
  22.4260736   4.6646250  34.3086052  21.9825292   3.9636076  33.0425787
   3.0473114   8.3463706  46.9628429   2.6036287   9.0981520  46.5701580
   3.6558510   8.0475844  46.2870884  22.3813034  42.2984092   5.4639609
  23.2773377  42.5952117   5.6228955  22.4826409  41.4379852   5.0569757
  60.7926798  69.2818594  64.6212864  61.3067675  69.9491644  64.1667032
  60.1144171  69.7751379  65.0826693  85.4398632  80.2025700  62.9890680
  86.0544109  79.6676922  63.4915352  85.2701950  80.9610748  63.5477448
  75.6502342  40.0879097  52.8385544  76.1155558  39.2514277  52.8399849
  76.1706543  40.6505060  52.2650719   3.3744957  52.0239703   6.8656619
   3.3670952  52.9116123   6.5075191   4.0459015  52.0464103   7.5475343
   3.7509370  59.3972683  55.5681086   4.3808866  59.2668629  54.8593187
   3.0791498  59.9647474  55.1900911  27.0201326  34.2502904  24.7068453
  27.4114728  34.7327805  25.4350519  27.1222806  33.3294225  24.9472594
  74.2750978  70.8316326  59.7171640  73.6021233  71.3998604  59.3423986
  73.8159609  70.3274059  60.3888655  56.0349776  37.7296655  14.5077546
  55.8326651  38.5905950  14.8739465  55.2002550  37.4147241  14.1609414
  -0.1953196   0.1810015  52.9731607   0.6919552  -0.1256525  52.7862310
  -0.2223562   1.0684432  52.6154470  68.4119129  46.8210936  49.5763063
  68.9975166  47.4755764  49.1955757  68.9960670  46.2065172  50.0204802
  71.5657997  58.0468178  48.2205105  71.1881208  57.7675772  49.0545464
  70.8927679  58.6019611  47.8267193   7.4152494  40.7936001  69.4576216
   7.7862859  41.6114330  69.1264009   6.5016866  40.8122635  69.1725016
  83.8754845  57.6025105  50.3183079  84.6960831  57.3436880  50.7376766
  83.2343674  56.9650507  50.6327009  18.9278723  34.7332876  18.4632524
  19.5937515  34.0709750  18.6481317  19.1436554  35.0517146  17.5867398
  64.7918320  64.0902996  63.2462549  64.9416399  63.2876778  63.7458420
  64.5868778  64.7500658  63.9087725  21.1681200   0.6090773  65.8401108
  20.6170441   0.0702322  66.4077425  20.7277180   0.5898989  64.9904585
  13.4699751  14.6242369  61.2148714  13.5773159  14.7736586  62.1542215
  12.6891447  15.1257266  60.9802628  14.8897005  51.7302036  55.9826708
  15.0391317  51.6875172  56.9271708  13.9659906  51.5031147  55.8758163
  15.4977060  39.0871310  26.1788511  14.5516134  39.1265917  26.3187957
  15.7161451  38.1605506  26.2786651   8.4758211  34.5314169  19.3124366
   9.2898870  34.0291357  19.3478262   8.6731458  35.3408575  19.7837138
  11.3756013  51.5780258  70.5619574  11.2840200  50.8107185  69.9970865
  12.2734666  51.8764162  70.4169178  60.0318480  58.6606407  33.0767202
  60.9664536  58.4769869  33.1716967  59.7649431  58.9937544  33.9334750
  75.6359577  71.2269020  51.7689896  76.4440727  70.8515930  52.1187353
  74.9784851  70.5435467  51.8993330  73.6095142  64.7756815  69.1261053
  74.4900799  64.4527388  68.9349413  73.0966091  64.5456791  68.3513403
  86.1056900  80.9581184  19.5143723  86.1749268  81.4715290  18.7094831
  86.5242767  80.1236725  19.3029463  30.7097508  15.5977981  12.2188600
  31.1563135  15.8913867  11.4247449  29.9487759  16.1737506  12.2925695
  78.0475712  79.1891766  12.7648532  77.8255510  79.1551542  13.6953270
  77.2700977  79.5589399  12.3464715  64.2536497  75.1808596  69.8942947
  64.3378782  75.9692240  69.3579912  64.9440765  74.5994949  69.5756102
  14.8146606  12.8489531  66.4417410  15.4944158  12.2347201  66.1644697
  15.2300478  13.3725966  67.1269321  66.7620611  37.6979661  21.0760927
  66.3576126  37.2369099  21.8109941  67.4390984  38.2421994  21.4781666
  22.5347258  64.8773734   4.0771230  23.3734537  64.4350116   4.2078097
  22.7492930  65.8098762   4.1021855  38.4865786  15.8266799   8.4275086
  39.3079020  15.8996074   8.9136632  38.7558056  15.6252210   7.5313170
  29.6008993   3.9596880  33.6148477  29.2816187   3.5258997  32.8235698
  29.8652197   4.8311938  33.3201599  73.4553242  44.8155499  46.2102699
  73.7653303  44.0946150  46.7583418  73.5829782  45.5971527  46.7478895
  63.2875944  50.1541393  17.6578076  63.3226801  49.7419326  18.5209878
  63.3411528  49.4238727  17.0413049  26.4648462  74.8684359  59.6111107
  26.0526395  75.6539917  59.9705887  25.7325483  74.3281078  59.3144178
  80.7406927  25.6567876  30.9591325  79.7891165  25.7311504  30.8870156
  81.0790850  26.3071077  30.3436692  83.9720631  13.4135854  40.4084015
  84.0027332  14.1652334  41.0002804  83.3561611  13.6732388  39.7232246
  12.9506326  52.0335579  67.4924755  12.1039319  52.4340773  67.6897287
  12.7303434  51.1891222  67.0992374   7.7133871  57.3727226  62.4859858
   8.1360746  57.0996332  61.6717434   7.5604463  56.5564442  62.9619265
  13.9152170  30.4387832  34.6003914  13.7651945  29.5139956  34.7965789
  13.2101751  30.6730247  33.9968371  18.1044794  61.5254545  34.4825816
  18.2202554  60.5773830  34.4194007  17.6402212  61.7640495  33.6802340
  64.8132658  36.9271684  62.8146410  64.8738050  36.7264271  63.7485981
  63.8772154  37.0492101  62.6560736  65.7738972  26.4055514  46.3289642
  64.8638201  26.4974284  46.6110182  66.2200546  27.1622372  46.7092276
  12.4709058  51.2157345  17.7203369  11.8435503  51.1749458  16.9985414
  12.6114488  52.1517658  17.8629160  55.6325150  60.3762150  50.6370735
  54.8619413  60.5588818  51.1747408  55.7953024  61.1935806  50.1662827
  68.8744831  77.0292044  39.5745420  68.2393360  77.7272987  39.4149137
  68.7860918  76.4476967  38.8193822  20.5499387  71.2963438  64.7930622
  19.9402929  70.8867550  65.4068995  19.9897981  71.6710806  64.1133165
  35.3530527  49.7185850  35.6259251  36.1138750  49.8009777  35.0509596
  35.6984640  49.3197250  36.4245701  39.6757961  15.7762925  20.9351190
  39.8406721  15.1731365  21.6598638  38.9318253  16.3033168  21.2266381
  68.4587145  45.9230185  14.1725492  68.0454922  46.1468744  15.0064349
  68.0977535  46.5536451  13.5494554  35.5541159  72.9563001  17.1121343
  35.0843550  72.5294498  17.8286298  35.8531595  72.2349886  16.5584977
   2.8798414  61.4363337  36.7675734   2.0290113  61.5494585  37.1912742
   2.7455545  60.7188368  36.1483812  45.2814985  75.2436498  29.4463189
  45.0456167  75.3722338  30.3650411  44.7124601  75.8454374  28.9664491
  52.0204950   1.1941565  49.9602365  52.1356321   0.7005538  49.1482401
  51.6397692   0.5638255  50.5717611  83.6765194  67.6731825  35.6978989
  83.7271881  67.5746059  36.6486597  83.1272030  66.9439077  35.4104304
  71.3293743  24.7711825  39.6489024  71.1887455  25.7082057  39.5131040
  71.8858480  24.5040035  38.9173412  55.8578968  58.6436987  64.5449448
  55.1226473  58.0594349  64.7300863  55.5274487  59.2386389  63.8718319
  72.0942354  41.8866634  51.1150074  71.6922379  42.2767210  51.8912029
  72.3172474  40.9952450  51.3831043  41.9444443  24.7475545  11.6022428
  41.9556214  24.7352950  10.6451924  42.2650696  23.8822667  11.8566258
  20.1142717  53.2025051  21.1647320  19.4906641  53.7904882  20.7385659
  20.8754659  53.7530279  21.3484073  57.1122456  51.0575342  64.3587017
  58.0078506  51.1925745  64.0490484  56.9179630  51.8380833  64.8775768
  48.6758829  11.3868682  31.6338952  49.5542456  11.2373607  31.9837030
  48.1038786  11.3538139  32.4006780  25.9275461   3.9558733  69.8950386
  26.2835813   3.1151808  69.6074581  25.0477911   3.9846457  69.5189619
  12.1180368  57.1340275  53.9401817  11.7597127  56.4716339  54.5310068
  12.8820158  57.4790382  54.4022799  53.5620165  70.9637451  58.5437775
  53.7053680  71.5678215  57.8152323  53.6817741  70.0944996  58.1612825
  14.0383459  17.8140771  36.7269754  13.7499357  16.9394755  36.9879842
  13.3056474  18.1672144  36.2223172  16.9056154  23.2749117  53.1637526
  16.0854078  23.6465586  53.4883547  17.2262312  22.7347697  53.8860273
  69.3272043  34.4607894  24.8452123  70.1590944  34.0708368  24.5766576
  69.5044924  34.8315637  25.7096990  24.4552637  61.9085503  13.6908126
  24.3670774  62.8428078  13.5020757  23.8726163  61.4813185  13.0629373
  35.6369234  12.0903433  64.0757847  36.3632227  12.5947035  63.7092590
  35.0472570  11.9469775  63.3355284  59.6739222  12.0189206   4.7601445
  59.4189192  11.1326520   5.0165256  60.4059530  12.2341697   5.3380998
  79.5222044  62.8288555  66.1227989  78.6426878  62.4514198  66.1378670
  79.6645260  63.1403065  67.0166540  77.9804468  26.1636066  31.3488197
  77.5746155  25.7471347  32.1091390  77.6991940  27.0772505  31.3976192
  75.7007456  73.4456205  29.8718476  76.4232254  73.6264372  30.4731488
  74.9126625  73.5614777  30.4026341  64.8282146  27.1078539  35.0646186
  65.2741766  27.2565937  34.2308164  64.1528940  27.7853274  35.0992322
  72.9294586  69.6063900  56.2414789  73.8132572  69.9552631  56.1256361
  73.0613947  68.6767340  56.4273882  75.0807905  23.4935784  59.8742628
  75.6539488  24.2601013  59.8869371  75.1330233  23.1407380  60.7625246
  76.5342236  11.4663434  25.8990407  76.9996929  11.9487774  26.5822864
  77.0483112  10.6682169  25.7768154  72.1192026  31.9451404  66.8016624
  71.6924000  31.1480713  66.4874172  72.3677731  31.7439723  67.7038717
   1.6007639  10.8044756  49.7130919   0.9474111  10.4861964  50.3360415
   2.4342562  10.7201136  50.1761341  60.1987934  25.4332757  64.7132254
  59.4661427  26.0483742  64.7464848  60.5451393  25.4248476  65.6055307
  16.9505334  49.4450617  57.7134275  17.1461797  48.6235428  58.1640482
  16.4002443  49.1873884  56.9738150  63.9065933  80.2357197  70.2224445
  64.3056393  79.7903824  70.9698820  63.0253696  79.8662567  70.1660585
  28.5671640  72.7390412   2.2232326  29.2318846  72.7448586   2.9119666
  28.5078169  71.8219975   1.9553884  80.2000427  49.4678116  38.9677358
  79.6874094  49.3856764  39.7719073  81.0455799  49.8110247  39.2567039
   4.1624570  41.6982841  41.1726475   3.5895277  41.9528198  40.4493237
   3.9517904  42.3152018  41.8735504  71.7407751  40.8119345  58.8816118
  71.9514704  40.0962830  58.2818794  71.2202597  41.4194632  58.3560658
  86.9849300  58.5954905  63.3526516  86.4491558  58.8849735  62.6141548
  86.3833141  58.0941200  63.9030313  65.2988291  64.0583992  30.0817060
  64.4039392  64.3977642  30.0970912  65.7574415  64.5616865  30.7544684
  76.8384361  60.9384632  50.8634806  76.5667105  61.7103195  50.3668642
  77.4914742  60.5135536  50.3074026  68.6844851   8.2590358   5.2993186
  68.9286638   7.3485725   5.1329930  68.0351092   8.2085435   6.0007413
  57.8339697  22.2873370  21.4019044  57.3850561  21.4425103  21.4331563
  58.0247999  22.4229734  20.4737790  52.0445490  58.7407684  49.3060017
  52.2640657  58.9696646  50.2091360  51.3565540  58.0801868  49.3868017
  16.5483500  29.3072955  21.8284352  17.4994255  29.3776576  21.9105466
  16.2613751  28.9482562  22.6680596  77.6630878  53.5550833  66.2253046
  78.4557199  53.6514711  65.6974077  77.6493216  54.3342066  66.7811871
  73.3957100  59.7929525  46.7713547  72.6547480  59.4049025  47.2367954
  74.1165257  59.1797638  46.9150686  63.7461185  47.5735617  56.5106773
  64.3290663  47.2520304  55.8229160  64.1553211  48.3848953  56.8115568
  70.9469248  35.3982751  13.0590470  70.4229571  36.0026138  12.5332387
  71.6913820  35.1774280  12.4993833  30.8006693  55.9926193   3.3779700
  31.6920305  56.0288303   3.7249501  30.9003617  56.1699264   2.4426349
  15.4021717   8.3825816  67.0638371  14.7840954   8.1895960  66.3588762
  14.8993898   8.9083518  67.6859283  23.0281377  66.3993645  63.2092094
  22.2964025  65.7915354  63.1027174  23.4223581  66.4544725  62.3387051
  10.8372999  42.9511118  67.6998997  10.9398580  42.8829861  68.6491489
  10.0264764  43.4458494  67.5814867  17.8505160  36.9025152  19.7559007
  18.2693125  36.1492030  19.3395265  18.3247782  37.6599996  19.4130738
  22.9085088  79.5009661  31.8268800  23.5755849  78.9454508  32.2301722
  23.3662534  80.3171539  31.6255164  49.8922230  46.7419021   7.3216899
  49.4989134  46.0152213   6.8385013  49.1905047  47.0592182   7.8901322
   6.7897249  64.4806433  38.2756305   6.4890600  64.7219658  37.3995042
   6.1880422  63.7900209  38.5535645  34.1435839  19.4209497   2.4708636
  33.5150171  19.8340814   3.0628617  34.9749829  19.4527738   2.9441436
  85.5909468  14.0552728  11.1942418  86.3169886  14.5509546  10.8155568
  84.8244120  14.3319099  10.6921132   1.2706876  44.8982334  65.7300377
   1.8444944  44.6460533  66.4534903   1.6046358  44.4093990  64.9778748
  18.8531709  80.1637554  25.8889127  19.3889165  79.9394798  26.6497731
  18.0110765  79.7403479  26.0557294  76.2633657  52.7304363   9.9593031
  75.9520340  53.3351278  10.6328416  77.2108412  52.6932859  10.0902271
  86.3387203  36.0234952  50.6317759  85.8107662  35.4040575  50.1280022
  86.2096214  35.7621527  51.5435123  47.1321321  69.6673874   1.6018613
  47.7838541  70.1284508   2.1299823  46.2935186  70.0330094   1.8834336
  85.7841015  59.4136286  61.1787605  85.7976151  59.1678572  60.2537489
  85.9632969  60.3539038  61.1793995  73.7466170  29.5036762  34.1325410
  74.0594126  28.8466041  34.7543462  72.7948309  29.4954030  34.2338880
   4.0099645  63.5183907  65.6772184   3.8049913  63.9668703  64.8568010
   4.5136953  62.7494097  65.4104424  62.6394488  24.5293252  17.5627358
  63.3015372  23.8851611  17.8135713  63.1121851  25.3612630  17.5374253
  83.2782007  51.9324081   0.5019887  82.7748324  52.7202861   0.7071956
  83.3778883  51.4860980   1.3428815  16.0293889  70.5643559  51.7623997
  15.5436349  70.4307079  52.5762844  16.7574048  69.9449873  51.8135118
  19.4184328  54.2146063  50.0564241  19.7560239  53.3232117  49.9687719
  18.5527349  54.1052485  50.4499245  71.6496302  27.1963327   0.8022054
  72.1528460  27.3229949   1.6065438  70.7458998  27.0902936   1.0992702
  84.5660425   3.8012330   5.6126435  85.0861384   3.8004081   4.8090680
  85.0296427   3.2029455   6.1986144  65.8471727  79.8784494  30.9017205
  64.9961090  80.3115559  30.9675813  65.9160376  79.6243811  29.9814296
  54.7428442  12.3258151  57.5270271  53.8126398  12.5293005  57.4292755
  55.1733137  13.1803072  57.5547171   8.8290143  43.5138798  47.4020195
   8.4558130  42.7204132  47.7859068   8.1560922  44.1821289  47.5318480
   3.5244298  64.0660810  36.0033703   2.9298425  63.6842489  35.3576922
   3.6758638  63.3628559  36.6348553  77.8180981  67.8384924  58.0662775
  76.9019461  68.1143713  58.0381203  77.8878069  67.1694565  57.3852777
  75.1989294  21.2201727  46.9328117  74.2540670  21.3475836  47.0178175
  75.3589846  20.3554858  47.3108673  67.6687551  19.0118540  63.9729023
  66.8006445  19.3983210  63.8577318  67.9701353  18.8303412  63.0827045
  40.2600504  35.1189153   8.0204089  40.0368763  35.7967536   7.3824771
  40.3655935  35.5921619   8.8457187  16.7362810  61.5452766  45.4222107
  17.0874525  60.6784344  45.6259251  17.4926782  62.1292353  45.4777670
  28.4921480  73.6904812  46.0268021  28.5860467  74.6301889  46.1828947
  28.9697481  73.2791328  46.7471647  11.7516351  73.9659882  66.6701794
  11.6769052  73.4700727  67.4854803  12.3636651  74.6728659  66.8750429
  16.9197488  36.7631960  34.7997427  16.9656301  36.0799074  35.4685068
  17.6738668  36.5960383  34.2344069  72.4257374  76.3746357  52.0599270
  72.7693176  77.2594261  51.9360971  73.2010365  75.8371162  52.2218323
   8.2629705  66.8041658  34.4098973   8.8171030  66.8247843  35.1901174
   7.7019048  66.0387611  34.5347691  52.7056528   2.3121966  59.6134567
  51.8353678   2.7097262  59.6416330  52.7969576   1.9991530  58.7135124
   4.4247365  75.9087086  62.9771996   4.0881086  76.6742182  63.4429359
   5.2647424  75.7232189  63.3969688  78.5226059  76.2482357  51.3886976
  78.6687040  75.7441902  50.5881834  78.7649059  77.1443129  51.1550951
  34.5826126  34.9100606   6.0123046  34.8977638  34.4219034   5.2516349
  34.8328615  35.8168809   5.8354314  23.4303880  59.3888903  33.6520934
  22.5545145  59.0301085  33.5094237  23.9700914  58.9791918  32.9760027
  21.3800954  80.0994747  54.6063185  22.0842361  79.5323569  54.9206400
  20.9009456  80.3470973  55.3970957  42.1049309  24.7922134  37.5181699
  41.7226696  25.5032063  37.0037818  41.3514900  24.2950749  37.8366256
  73.1477213  38.9540100  57.3978615  73.9265013  39.1339231  57.9245138
  72.8143597  38.1241155  57.7390003  64.9994802   1.4801630  45.9264231
  64.7582674   2.4024166  45.8398294  65.4802036   1.2818512  45.1227999
  75.8448172  16.6652882  35.8256316  76.0432482  16.9437921  36.7196631
  75.9227657  17.4635625  35.3032207  66.8005896   9.3842292  69.3430519
  66.5822268  10.1147902  68.7644100  67.5855350   9.6735024  69.8082590
  23.6921548  62.6274132  54.5410442  22.8838682  62.2384058  54.2070150
  23.8368845  63.3932244  53.9853287  37.1553993  71.2391256  23.2805181
  36.6392898  70.5916845  23.7608123  38.0457163  71.1318420  23.6152697
  33.5564899  79.8657777  52.8023815  32.6144504  79.9629464  52.6632643
  33.6765957  80.0137935  53.7404060  57.2487688  14.2128110  50.4718256
  58.1956577  14.1622007  50.6024933  57.0792866  15.1399148  50.3045368
  50.8889532  25.1067829   8.4642100  51.2912798  24.2382479   8.4606791
  51.6163540  25.7070279   8.6280102  38.6603308  13.1545758  45.1858711
  38.0352759  13.3699393  45.8780861  39.4755888  13.5744989  45.4601860
  54.7611141  73.5830342  59.4365454  55.6293201  73.9043777  59.1932678
  54.2196655  73.7481188  58.6646557  46.1942100  75.2158951  43.4654284
  46.6436338  74.6032261  44.0475655  46.5764236  76.0683935  43.6737299
  49.7021770  26.0288072  38.3323193  50.1727676  25.8290815  37.5230718
  49.9077559  26.9469023  38.5085821  31.1449623  74.3327134  42.4936771
  30.6452798  75.1286381  42.3118687  31.7253923  74.2365937  41.7386341
  55.1346874  11.1768770  21.4298606  55.8989239  11.6813982  21.7084885
  54.7216082  10.8970618  22.2467422  44.7623396  11.6303515  46.4743948
  44.7711611  10.8234167  45.9596014  44.0432787  12.1425736  46.1045122
  37.3279095  57.2413158  36.4286041  37.5555158  56.3265705  36.2622762
  36.5083170  57.3745966  35.9524369   3.9324569  65.1301872  13.3535695
   3.1157231  65.3440129  13.8046300   4.4443440  65.9382354  13.3891118
  78.2891703  13.6962068  45.8601952  79.2134237  13.9446318  45.8766603
  77.8744459  14.2738390  46.5009546  80.8885860  31.9744086  43.2084560
  80.2007484  32.2489262  43.8148880  81.5722847  31.6102219  43.7707281
  59.0028906  23.8290119  45.0747442  58.4233809  24.5765233  44.9276924
  59.4227695  24.0131283  45.9150028  64.2429399  26.0226369  50.4780388
  64.6577311  26.1789489  51.3264179  64.6364784  26.6724181  49.8956776
  73.3135986  12.9105842  44.8783350  73.3917236  12.8433096  45.8299637
  74.0232134  12.3641717  44.5405340  22.3847198  68.4938919  23.5782528
  21.6624736  69.1215729  23.6029959  22.9920148  68.8529336  22.9313254
  18.2865739  10.4000199  22.4092531  17.8405321   9.6685684  21.9823360
  18.0611050  11.1622250  21.8759251  47.7472019  34.2820501  56.9151878
  47.8941870  34.0122914  57.8217506  48.3723879  34.9926710  56.7723894
  42.8326559  33.6295557  67.4641657  42.6414108  33.9137721  66.5703678
  42.0195150  33.2245827  67.7658796  38.7376428  18.6038864  27.1114922
  39.5557880  19.0889716  27.0039606  38.6379337  18.1179643  26.2928534
  29.3002844   2.5380260  38.7548161  28.7690806   2.0018975  38.1660724
  29.6634126   3.2227284  38.1930757  15.9171486  60.1310574  38.7783408
  15.2110338  60.5125820  39.2999482  16.6473484  60.7414042  38.8808751
  65.3668022  16.8045437  54.2614031  65.4431486  16.1585879  53.5591602
  66.1604881  16.6860294  54.7831774   1.8022562   3.9531915  15.5358918
   2.1708490   4.1060417  16.4059575   0.9096218   3.6510341  15.7036336
  36.3578033  80.1809300   8.4463924  35.4062700  80.1496639   8.3472037
  36.6943693  80.1023442   7.5537682  20.1541830  10.7408503   5.5881770
  20.5879045  11.0884718   6.3674577  20.8314873  10.7523350   4.9118932
  24.2672395  56.2585651  65.7287502  25.1991081  56.0402047  65.7417297
  24.0134287  56.1707269  64.8100042  49.7124958  23.9933658  68.2374001
  50.5870295  24.2046642  68.5641718  49.8598909  23.6763310  67.3463345
   1.5049959  22.0052433  65.1941395   1.1590028  21.5311432  65.9502840
   1.0054613  21.6676307  64.4506884  37.5307870  13.2745516  66.2356424
  37.6514006  12.4379575  65.7864237  36.9881773  13.7905431  65.6393528
  52.8810310  61.6992103  10.6611848  52.4944019  61.9247579  11.5072787
  52.2342205  61.9883763  10.0175667  26.5844869  51.8252503  29.7027111
  27.1887254  51.4580308  30.3479099  26.8469476  52.7423536  29.6235538
  56.8380022  17.7306497  17.2579193  57.0595932  17.4928665  16.3575923
  57.1226692  16.9809926  17.7806139  70.6616068  42.5927446  16.2716420
  71.0511446  42.8010774  17.1208127  71.2999487  42.0174665  15.8499749
  60.7278133  73.6698583  11.8277677  61.3334895  72.9372481  11.7152055
  61.2310195  74.4396118  11.5622552  28.8912392  23.3959174  32.1210456
  29.4442201  24.1063309  32.4462461  29.4871306  22.6528764  32.0259929
   7.6804113  48.8816296  20.1039982   6.7759204  48.6419951  20.3057551
   8.2037210  48.1645381  20.4619884  19.1034698  73.1435519  29.7630095
  18.3776569  72.8794371  30.3284025  19.8539543  73.2124864  30.3531432
  24.1125345  58.6890136  51.2767601  23.1933927  58.8241135  51.5073395
  24.5965099  58.9442932  52.0621443  69.7933149  55.0539827  44.5092440
  70.3936577  54.7950554  45.2083683  69.6874857  55.9986067  44.6220493
  54.4881487  22.7779388  43.0576897  54.6433735  23.3295345  43.8244200
  55.2441216  22.9356956  42.4921370  33.0997873  44.1934026   1.8636497
  33.2013155  43.2419259   1.8388351  32.2113062  44.3479151   1.5427812
  61.4577770  11.2979865  32.1449590  62.0972109  11.2480354  31.4344239
  61.2763739  10.3851140  32.3685408  68.9122009   2.9723436  25.9565544
  69.5427942   3.6907941  26.0056663  69.3415546   2.3137107  25.4105783
  18.2394885  18.8838060  56.1169366  17.8227424  18.1573470  55.6534604
  17.7206373  18.9881928  56.9145135  36.2493419  76.7855369  37.4440336
  35.7245206  76.6629838  36.6529751  35.7538271  77.4177109  37.9646587
  40.5772734   2.7025259   6.7430151  40.2140665   2.5513950   7.6156384
  40.4754162   3.6436179   6.6008818  83.3661747  66.7074262  41.7017746
  83.6551475  66.0276603  41.0929680  82.7963829  66.2492119  42.3195171
  70.4356527  18.5513842  37.7135110  70.1881933  17.6267457  37.7071309
  69.8044777  18.9722776  37.1298194  51.7583513   7.4614036  70.8182335
  51.4308834   8.0149120  70.1092720  51.1710310   6.7055833  70.8227968
  45.3927135  17.8292036  30.2807546  46.2870789  17.6981127  30.5956531
  45.1855040  17.0242143  29.8061085  29.5847059   8.0337554  41.0676527
  29.2964673   7.1605873  41.3336039  30.4837251   8.0977303  41.3900089
  65.4104376  23.2523441  41.3244915  64.4934511  23.0450892  41.5045357
  65.3747177  24.0147853  40.7468748  52.6699734  21.2096143  12.4922693
  52.9970217  20.3208160  12.3533273  51.9060421  21.0979986  13.0581176
  41.8769836  65.0882088  29.0103865  42.3760891  64.6957826  28.2940578
  42.4418115  64.9913000  29.7770739  13.2054163  39.8382455   5.9903510
  13.7061191  39.1627517   6.4477761  12.5529886  39.3524019   5.4858478
  74.1018391  18.9450419  55.6469536  74.2083502  18.3322811  56.3745594
  73.2150745  19.2897820  55.7519960  11.4913297  44.8210573  34.5538163
  11.1668230  44.9007511  35.4508018  12.3958040  45.1312208  34.5978832
  74.7572756  29.3609357  39.1559458  74.5464802  28.5657692  39.6453428
  75.5656338  29.1479731  38.6896467  61.7678881  14.3076468  31.6685843
  61.6663742  13.6569917  32.3632622  61.0332537  14.1433740  31.0773468
  80.5648327  22.9461646  65.4059935  81.0223866  23.4717631  66.0622120
  80.2817154  22.1643734  65.8802032  58.5157776   5.0085926  65.4264402
  58.7499237   4.1909006  65.8655167  58.8575363   4.9096674  64.5378208
  44.8334694  71.0495149  49.2899323  45.3447389  70.6486033  48.5870075
  44.4529771  70.3087305  49.7618389  86.2155628  36.3683009  66.3173294
  85.7970524  36.2396836  67.1685314  86.6003227  37.2432208  66.3693666
  81.8189240   0.3177254  62.0821524  81.2463188   0.5830182  61.3624477
  81.2352085   0.2411854  62.8369045  59.5418358  25.1920724  36.0749364
  58.9529657  25.8983588  35.8091927  58.9620876  24.4522929  36.2561750
  66.9902372  52.0869780  43.1386757  67.2598124  52.9987240  43.2495117
  66.0729885  52.0734978  43.4119987  74.3901825  16.8846095  57.2513628
  75.2587891  16.5168667  57.0885086  73.7901783  16.1514890  57.1143866
  40.5484295  74.4120752  47.5712872  41.1013507  73.8637256  48.1279087
  39.6977186  74.4177227  48.0100250  54.6710109  76.2583082  34.7467613
  54.3402099  77.1277421  34.5211816  54.3818187  76.1185371  35.6484628
  34.7828699  25.6136540  12.2824033  34.4176889  25.3640512  11.4335378
  34.7377325  24.8142580  12.8069528  77.6921415  22.5568628  14.3374872
  77.4688482  22.6381040  15.2647257  77.5648785  21.6287494  14.1409075
  62.7748251  18.8473833  34.0200901  62.0879841  18.1806993  34.0160990
  63.5919428  18.3496094  33.9924002  70.3311634  22.6738667  32.4631190
  71.1511755  22.8230691  31.9924259  70.5759239  22.1122122  33.1985569
  79.0216160   8.9319283  40.6330633  78.8917875   9.1693014  41.5512276
  79.8648691   8.4791845  40.6196547  81.7053509  32.6656008  45.7960367
  81.5611362  33.3796883  46.4169312  82.2673893  32.0495057  46.2659025
  63.8511658   6.7594969  29.8325706  63.8556051   7.3860210  29.1089129
  64.7761631   6.6258067  30.0393081   1.6607881   9.3730301  56.5993881
   2.3818899   9.5154274  55.9862280   1.9348932   9.8209453  57.3996782
  64.9782896  13.9730227  44.7892141  65.3149748  14.8475528  44.5940924
  65.5705118  13.3797657  44.3270969  80.3714037  81.3748196   4.3163331
  80.2509356  82.2709063   4.6305736  81.2206173  81.1093549   4.6693070
  85.5737616   4.7206037   3.3741935  86.3949610   4.9192874   2.9243167
  85.0140310   4.3433969   2.6954825  61.0214138   6.6789174  19.3782771
  60.1742363   6.2610507  19.5329046  60.8229685   7.4163252  18.8011456
  71.5593195  35.5397606  36.1306167  71.9328880  35.3541398  36.9921422
  70.6309319  35.6985044  36.3012695   1.6654897  11.4681208  33.1062484
   2.5562597  11.5720880  33.4408450   1.4037633  10.5922139  33.3900070
  62.0731306  13.6405265  70.7222319  62.2913170  14.1496468  69.9415731
  62.2818851  12.7369928  70.4849958  57.4477959  14.6947229  33.8775015
  58.1967974  14.1027856  33.9470601  57.8085232  15.4931700  33.4920263
  69.5940495  63.5182337  13.3785947  69.1309739  63.4357742  14.2122586
  69.1019297  62.9615191  12.7751668  78.4877539  17.4229217  60.0417137
  78.0379009  17.0951712  60.8204603  79.3695068  17.6367915  60.3466845
  72.1684074  22.2939348  27.8778315  71.4051485  22.7414656  27.5126100
  72.0004463  21.3651562  27.7184892  58.1074315  78.3892154  64.1810560
  58.8039399  79.0082773  64.3998480  57.9484259  77.9103058  64.9944401
  47.5413895  13.7016618  62.9995489  47.4505043  13.0186856  63.6640120
  47.8569555  13.2397068  62.2228575  10.9169985  58.6344258   0.0312121
  10.0161672  58.9402262   0.1371320  10.8847881  57.7076534   0.2684625
  45.5082321  55.5095850  35.0858068  45.3854894  56.3058888  35.6025910
  46.2998485  55.1098763  35.4460979  85.8537292  24.8865080  46.0927343
  85.1870155  25.5022740  46.3969707  86.0307503  24.3308377  46.8517637
  85.7395840  23.5375595  67.2694302  85.6017017  22.7248192  66.7829418
  85.1418304  24.1646767  66.8624353  45.3238678  14.8423314  23.7862158
  45.3441620  14.4992042  22.8928590  45.0290489  15.7477295  23.6883950
   6.3054824  57.1357404  53.0792999   6.7254400  56.4179169  53.5532188
   6.8599891  57.8958260  53.2554388  83.8354683   9.4668370  31.1367607
  82.9867363   9.8849410  30.9915829  84.4355202  10.1940238  31.3021922
  24.0477037  25.0831223  70.3269958  24.3109083  24.7684383  71.1918259
  23.2453990  25.5800819  70.4869080  46.8211412   7.8492993  11.3683343
  47.3608923   7.2845942  10.8151531  46.2861538   8.3484709  10.7512069
  56.3321114  11.4371181  40.8853483  56.1566973  10.7729840  41.5519714
  56.1498737  12.2690415  41.3222980  79.4076681  40.9985399  27.4326897
  79.4967079  41.7617130  26.8618417  78.4984064  40.7209158  27.3213220
  71.8814039  32.5128341  51.9453573  72.2549677  31.6444087  52.0954227
  72.2217035  33.0472088  52.6629019  80.7826424  41.3930464  40.4899025
  80.7902527  41.0505342  39.5961094  81.6305161  41.1359358  40.8521509
  59.6319914  29.4483376  48.6747074  59.2539597  29.7126794  49.5134258
  58.8817549  29.1633153  48.1530380   9.1304613  24.9592686  34.1027689
  10.0074411  25.0709724  33.7357903   9.2734647  24.4964743  34.9283624
  29.3829726  69.0697558  67.0631699  29.5845031  69.8392828  67.5955678
  29.6597480  68.3275612  67.6005454  43.2389879  18.8636100  34.1941404
  43.0940247  18.9407432  33.2511306  44.1703463  19.0520132  34.3094921
  12.7450109  34.3643427  49.1264963  12.5279451  34.4942117  48.2033253
  13.5626245  33.8668036  49.1126060  55.7146883  56.8503141  11.1780250
  56.3603115  57.5529909  11.2531829  55.3265142  56.9733572  10.3117621
  55.6799126  23.3185410  50.4997206  56.2703371  23.8109493  51.0699511
  55.6821012  23.8049841  49.6753407   4.4008493  53.1168492  70.8157497
   4.2609643  53.6472399  71.6001913   4.3875884  53.7468059  70.0951870
  16.8850660  81.1142345  38.6742520  17.1134758  81.2486320  37.7544713
  17.6832866  80.7650984  39.0707135  43.9251709  24.9862766  25.5101180
  44.5961475  25.6515980  25.6629920  43.1183195  25.4849529  25.3815055
  76.5608358  54.5414877  33.1115437  77.2562742  54.0786457  33.5788512
  76.1931324  53.8859272  32.5188637  68.5945082  30.4045320  49.0222454
  69.3584394  30.8485603  48.6541700  68.6474133  30.5765176  49.9623823
  64.8856735  19.7044933  50.9823608  64.3085814  18.9720595  50.7661676
  65.3656197  19.8783612  50.1726389  73.6094952  25.7678032  52.5995541
  73.7731361  25.3573132  53.4486437  74.1719961  25.2899075  51.9900990
  36.3231969  18.3289742  16.4363086  35.9369826  18.6608720  17.2468114
  36.7641640  17.5197268  16.6949558  66.7445469  27.1167088  37.2760892
  67.3951483  26.5321374  37.6649618  66.4778662  26.6755629  36.4695501
  25.9082603  79.7380195  63.6333227  25.4183197  79.6357991  64.4492531
  25.5064010  79.1105883  63.0324316  73.0133438  36.7402720  45.9443140
  72.1805191  36.5692878  46.3840866  73.6075401  36.0737371  46.2891197
  60.8020878   0.1918231  66.2765884  61.2224722   0.9833560  66.6127205
  61.2249088  -0.5238996  66.7511368  65.1151466  78.2499399  52.2985077
  64.7713565  79.0554391  51.9122267  64.4169712  77.6072299  52.1731615
  30.7776165  66.4733314  28.0997610  30.6761312  66.5861153  27.1546602
  31.2467575  65.6442105  28.1930184  59.9895954  22.0882702  36.0636139
  59.2769861  21.5068746  36.3289380  60.4472494  22.2936893  36.8788362
  83.3845710  68.7911545  32.8974199  83.1967163  69.6815597  32.6005697
  83.5153389  68.8761209  33.8418317  39.7379589  72.0129537  55.0883913
  40.5942058  71.8033515  54.7153807  39.5187044  72.8683709  54.7190428
  76.5554785  42.3715396  68.4183419  76.7489647  41.4348785  68.4565669
  76.6573070  42.5996284  67.4943082  79.8886108  27.7130151  41.6823053
  79.5343113  26.8841553  42.0043230  79.1184855  28.2630515  41.5387964
   1.4597822  38.1990242  68.8566446   0.6711317  38.1754088  68.3147001
   1.6732240  37.2784781  69.0091896  28.5818983  33.0392943   7.7042325
  29.3243814  32.5520960   8.0614312  27.8660894  32.8675572   8.3160766
  42.8541851  31.4145446  52.5806093  42.4313927  30.5579400  52.6415014
  42.8324413  31.7564511  53.4743977  23.6667823  66.5289210  54.7918606
  24.0425348  67.1233868  55.4412079  22.7286768  66.7184757  54.8081064
  69.4322777  24.9870610  34.4088554  69.4905472  24.2593050  33.7898183
  69.5239639  25.7705808  33.8667107  55.5140734   4.9600285   7.8823519
  54.7381973   5.5091834   7.9949325  56.2290478   5.4764533   8.2543057
  70.3568125   2.8841850  60.5428267  70.6663179   3.6779454  60.1064968
  69.4125795   3.0129468  60.6327152  83.2572460   5.9849811  33.3560658
  83.8516426   6.7287642  33.4546161  83.5269833   5.3707236  34.0388274
  16.0460592  70.6284050  16.4736112  16.0363746  69.9698857  17.1682199
  15.1547647  70.6215671  16.1246427  50.0248241  67.6259207  42.1960020
  49.1858959  67.7039002  42.6502657  50.6789827  67.8296136  42.8644466
  84.7817421  29.0697479  58.7032080  85.6637287  29.4412136  58.7217951
  84.9189377  28.1342936  58.5537672  75.7293558  18.7242222  48.0014133
  76.3736916  18.8333678  48.7008047  74.9224091  18.4807169  48.4550381
  62.2609091   4.8917925  35.6282806  62.8235817   5.3869188  35.0328970
  61.4077473   4.8767510  35.1945519  77.4532175   2.3723614  51.5339708
  76.5701818   2.0070453  51.4790058  78.0092859   1.7198548  51.1082315
  67.5486708  18.4842253  42.3300457  67.3136234  19.2581332  41.8181372
  67.4006653  18.7444293  43.2392311  36.0516786  74.0972691  43.1029367
  36.6937399  74.7117709  42.7474403  36.4570617  73.2371240  42.9931784
   1.9748521  13.3815062  28.6265564   2.6484037  12.7049494  28.5570812
   1.4960885  13.1616724  29.4257402  71.3752508  36.7628169  57.9116917
  70.8327818  37.0685720  58.6386490  70.9501600  37.1164656  57.1303701
  83.4161949  19.9293435  23.0102658  82.6656532  19.5802438  23.4909463
  83.1262493  19.9537992  22.0983624  53.1989860  77.9634895  37.1492219
  53.0892849  78.9001547  37.3130965  53.5637188  77.6188355  37.9643393
  79.0796804  39.4305396  54.1610479  79.7429657  39.5203137  53.4767771
  79.5615673  39.1021872  54.9201250  62.2408199  28.4985662  35.7286477
  62.8997278  29.1038489  36.0688066  61.5527201  28.4949279  36.3940334
  85.4928685  56.7845742   8.0448897  85.4515648  57.5710121   7.5007947
  85.4803658  56.0598604   7.4196990  72.7862787  35.0057817  61.1422491
  72.1237993  35.6790781  60.9872532  72.4464989  34.2287707  60.6983662
  15.2531814  25.7134258  54.2670155  16.1358118  26.0010826  54.0336847
  15.1437425  25.9901678  55.1767778  20.5445194  70.3064608  35.8347535
  19.7094059  70.6673967  35.5371976  20.8812809  69.8266326  35.0780582
  48.0320501  13.3181822  59.9075699  47.6537704  13.1155324  59.0519571
  47.8060341  14.2360640  60.0580454  85.0934124  41.8797567   2.5000699
  84.9287463  42.2212497   3.3789905  86.0044575  41.5870572   2.5236400
  87.0061874  23.0475092  25.6496358  86.1419678  22.7002764  25.8704829
  86.8240643  23.8483167  25.1579380  50.6694173  79.4235856  30.4434347
  50.0365734  78.9157041  30.9511757  50.4392480  79.2494001  29.5307922
  33.3756637  73.6701070  40.2152824  34.1058302  73.0512266  40.2238178
  33.3771801  74.0301060  39.3283606  62.9793453  74.6579545  28.1372046
  63.6584472  74.5279293  28.7991309  62.1637153  74.7018056  28.6362600
  34.3191076  25.2037716   4.2593199  34.3981767  24.8474526   3.3744371
  33.9420057  26.0745978   4.1340539  39.7536993  73.8808601  23.7664557
  40.6224537  74.2769383  23.6985040  39.9220514  72.9393672  23.8049269
  47.5091505   3.7163699  26.3381624  47.5813627   2.8571180  26.7537379
  46.6002750   3.7633443  26.0415554  12.4960708  67.0886635  43.6562777
  12.0350408  66.2969791  43.9336252  13.4128379  66.8213629  43.5905790
   0.7658983  24.5532409   4.2933066   1.2813545  24.2664603   5.0471576
   1.3201261  24.3607322   3.5369952  17.7110601  34.0535593  35.8805346
  18.1682134  33.3966756  36.4056516  16.8967271  34.2163658  36.3565421
  67.1389914   4.7785178  33.1666327  66.4613819   4.5873228  32.5181532
  67.7300358   5.3869963  32.7231765   4.7744966   0.3576906   9.4632488
   4.3638444   0.0120727   8.6706936   4.8278356   1.3015625   9.3132752
  81.2277603   3.9921913  32.4892664  80.3336239   3.7410492  32.7209234
  81.3554096   4.8411334  32.9126287  84.6193218  29.4731569  61.3636541
  84.6155167  29.5925522  60.4139376  84.6088219  30.3627157  61.7169285
  82.8685665  11.6890597   8.6796325  83.4837341  11.8672657   7.9682660
  83.4092045  11.6894341   9.4695342  54.8356915   3.6174983  43.1845427
  55.0512218   2.8740147  43.7475777  54.3690729   4.2251396  43.7583590
  34.9038458  76.0617434  44.5776272  35.0796461  75.1658355  44.2900991
  35.7215166  76.3472884  44.9851894  53.6622810  18.3174801  12.9012108
  53.2445145  18.0664814  12.0773768  54.5444489  17.9504073  12.8439844
   0.2801513  73.6288436  68.7831990   1.0746955  73.3400257  68.3342947
  -0.2966357  72.8651722  68.7643493  64.2992067   5.6693810  54.5952320
  65.0330830   5.8470792  54.0069389  64.5125055   6.1487484  55.3958178
  64.1153765  10.3955114  31.1595201  64.4557858   9.6509850  31.6555381
  64.7742271  10.5543339  30.4835558  23.4194113  40.1255755   2.1567853
  24.2213846  39.6753093   1.8915828  23.6901499  41.0323964   2.3003467
  48.1240558  80.2767630  35.7046199  47.2768068  80.6964776  35.5554891
  48.4957170  80.7461396  36.4514709  63.2161045  78.0681573  30.9232903
  63.4609317  77.6601513  30.0927353  62.5590801  78.7220030  30.6844521
  31.2594152  22.5482003   3.9758523  31.9437338  22.8882352   3.3993800
  31.6437841  21.7637078   4.3670877  37.9203057  14.5796359  34.4461226
  37.6999903  14.6031773  33.5149193  38.4386396  13.7815928  34.5495129
  74.0327930   5.8636653  20.6289530  73.5064220   6.3472474  21.2655997
  74.5970774   6.5269268  20.2315903   7.7897144  32.6874343  23.3864720
   7.8109623  32.8087405  24.3357213   7.9807211  33.5549287  23.0298169
  14.4742799  18.8959873  55.0628138  14.9424673  18.8143611  54.2319298
  13.5885263  19.1598725  54.8137140  47.4035883  18.9001811  61.1599207
  47.5633097  19.8438084  61.1429024  48.2750177  18.5086489  61.1004066
  51.5269184   1.5876673  27.7844763  51.2823200   2.2892246  28.3879828
  51.0013676   0.8378036  28.0632854   9.9480797  35.3388581  14.7542127
  10.7326389  34.9053339  15.0900014   9.2241550  34.9137757  15.2140744
  11.1672998  36.7943767   1.6393216  11.7284895  37.3245666   1.0734637
  10.8241917  37.4131740   2.2839912  25.3552366  24.9527740  12.9865468
  25.4488016  24.7338486  12.0594275  24.4890333  24.6221542  13.2244861
  51.7734671   8.9910507  54.9588633  51.3561821   9.2546052  55.7790089
  51.9427347   9.8143572  54.5008802  58.6140108   1.8517247  32.6175046
  59.1565466   2.6079750  32.3939610  58.8267565   1.1988273  31.9506502
  13.4662676  79.2317896  26.6939259  12.9957676  80.0089934  26.9952774
  13.8381576  79.4890556  25.8502769  81.4947224  36.0909295  21.5236807
  80.7357311  36.1871552  20.9484339  81.4299107  35.1963925  21.8580985
  85.0463248  23.9615170   8.8582213  85.8011580  23.5552780   8.4322770
  84.5051861  23.2242135   9.1406806  86.0514259  26.6110730  66.3487625
  86.5437603  27.2735238  66.8335247  85.7850361  27.0529556  65.5425310
  62.9766893   0.3100722  38.4589839  62.7281427   0.6608461  39.3142128
  63.4304810   1.0332502  38.0261827  73.4810495  38.6120772  27.3288536
  73.6189842  38.6634374  28.2746696  73.1449986  39.4755411  27.0885801
  48.1366777  17.4595428  13.4918880  48.3999300  17.4707091  12.5716674
  48.7520504  16.8571007  13.9097548  12.1190191  12.1773624  28.5230875
  11.3338685  12.7195799  28.4472084  11.7870260  11.3011801  28.7188196
  13.0449319   1.5678111  12.0335174  13.5814405   2.2027740  12.5080740
  13.6621595   0.8888054  11.7611098  11.1458755  41.4091513  12.4646314
  11.1462332  40.6106486  11.9367822  10.6979013  41.1614036  13.2734426
  84.8360825  53.8942245   2.4939473  85.2396918  53.1222323   2.8906329
  83.9451743  53.9051799   2.8437932  56.6740036  72.4338370  25.5487084
  57.4998665  72.2235351  25.1128602  56.8887519  72.4340867  26.4815068
   4.6560407  42.4319928   1.4559205   4.4403911  41.5619332   1.1201747
   5.5801464  42.5510608   1.2366469  57.9464031  60.6791774   3.3736260
  58.8784814  60.7103399   3.1580098  57.9240966  60.5513278   4.3219884
  46.0066271   3.2253605  47.6703691  46.6842604   3.6469424  48.1988668
  46.0983658   3.6207923  46.8035078  62.6365757  27.9375386  20.3454137
  62.5814629  27.8934312  21.3000083  63.3441639  27.3342705  20.1182222
  83.5314083  68.6892497  10.0164628  83.8230800  68.8780855   9.1245544
  83.9294433  67.8440081  10.2247155  17.2690798  51.7297045  14.1952451
  18.0886341  51.6893164  13.7023671  16.7434479  52.3825184  13.7328752
  45.7260609   3.5654846  53.2956648  46.0776377   2.6855135  53.1604767
  44.8762798   3.4224823  53.7123823  53.5151481  78.6409258  50.2722263
  53.1756973  78.8064491  51.1517763  54.2906952  79.1980409  50.2060366
  82.5593567   4.2429504  28.2036209  82.4718285   4.7906533  28.9837432
  81.9968510   3.4880415  28.3766341  86.4506817  39.8161054  70.7359171
  85.9212017  40.3207350  70.1184750  87.0321083  39.2946887  70.1824713
  70.6644201  37.0346022  21.7654467  70.4617023  37.3984170  20.9036016
  69.9115324  36.4820051  21.9752765  81.4722538  26.3458920  25.1526475
  82.1577549  26.8299103  25.6131268  81.1639118  26.9508147  24.4779396
  16.3668943   1.4575954  45.0786877  16.4850736   0.7291952  45.6883574
  16.6222406   1.1014763  44.2276812  85.4061317  34.5777321  18.6550868
  86.2078571  34.6748471  18.1412506  84.7330284  34.3607807  18.0100298
  77.0756292  43.7758112  49.4713831  77.3889637  44.6778774  49.5372391
  76.9965696  43.6178017  48.5306311  75.1365232  46.5716648  41.9077539
  75.7327652  45.8506489  41.7056084  75.7097960  47.2850943  42.1881294
  38.7655544  80.2219564  63.3672810  38.5755443  80.7749045  62.6094055
  38.2180929  80.5782307  64.0669823  45.2974749  18.5984147  15.7074535
  45.6758213  17.8769481  16.2100172  44.4158316  18.7030506  16.0652125
  46.9962788   1.1639380  58.2785463  46.9854689   2.0304513  58.6850786
  46.3231134   1.2095098  57.5995684  49.8140335  73.3922957  34.4092655
  49.4902753  74.1688406  33.9527678  50.3380727  72.9307120  33.7546229
  83.4858036  15.0652325  30.7316303  83.9066792  15.9246588  30.7535911
  83.8783455  14.5875645  31.4623666   2.1849323  49.9504635   0.8001788
   2.9329849  50.4756937   1.0844071   2.2520996  49.9349532  -0.1545350
  83.6322403  19.6859205  70.2666807  82.7415848  19.3368697  70.2331400
  83.7163925  20.0430632  71.1507607  67.2291660  39.6404243  67.8924942
  68.0156612  39.3335271  67.4414158  66.8779802  40.3247881  67.3228073
  62.0001984   4.8852068  53.4279108  61.6615629   4.0853053  53.8300467
  62.7231503   5.1513612  53.9960098  57.5409342   0.4188030  20.4937966
  58.0127836   0.8748452  19.7969277  56.9060065   1.0602348  20.8126386
  64.1308212  22.5862169  35.9598708  63.9177370  23.4246302  36.3696194
  63.7420416  21.9308519  36.5391636  48.0431747  45.2963734   5.7151181
  47.7127075  46.1464643   5.4246557  47.2642946  44.8247910   6.0103881
   7.6187063  23.4233594  32.5203919   8.2640577  23.7004685  33.1707501
   7.5391698  24.1711473  31.9281769  70.1501417  27.7944708  47.6720190
  69.2938709  28.1533837  47.4391794  70.7610750  28.5159278  47.5220346
  65.7462787  71.6527139  48.8678122  65.4148388  70.7560312  48.8193893
  65.5879306  71.9179892  49.7737885  60.2666569  30.4838443  59.5075321
  60.0444508  31.0848856  60.2185869  61.1967897  30.6398034  59.3439484
   8.8835073  25.1719141  37.9904675   9.7861314  24.9010825  37.8226519
   8.9391733  26.1171842  38.1304598  33.6918664  31.3178301   5.8375436
  33.2447935  30.5353498   6.1601532  34.2604757  30.9972858   5.1374179
   4.4930196  49.6224308  55.9313679   3.6018873  49.2886782  55.8278322
   4.5690942  50.3111076  55.2709341  81.1911106  33.5565567  32.2774339
  80.5443954  33.7234354  32.9631019  81.2799549  34.3942976  31.8229795
  24.7464395  20.1503992  15.3969526  25.5963254  20.4536939  15.0776768
  24.3483663  19.7159135  14.6426368  72.9595947  12.2251832  62.4457359
  72.9592562  11.2726712  62.5403595  72.7000761  12.3756671  61.5367603
  73.4079695  58.1753969  20.2722239  73.4191418  58.8716269  20.9290099
  73.3231258  57.3684406  20.7800245  50.8112837  62.3730997   0.7956679
  50.5478502  61.4568738   0.7098468  51.4480520  62.5060085   0.0934632
  79.0954399  22.6205826  32.8980589  79.6699333  21.8549967  32.8898787
  78.3670902  22.3796058  32.3256350  77.3718977  41.0663939  50.6479406
  77.5681973  41.9084072  50.2371931  78.0411530  40.4723501  50.3081703
  70.1310205  34.8678970  64.0311480  69.5307159  35.3022814  63.4251976
  69.9056339  33.9397931  63.9674616  74.8337078  34.5372629  21.2289953
  74.4117165  34.2193937  20.4308009  75.2244234  33.7561560  21.6207218
  50.8820868  36.8725896  15.5150664  51.2059546  36.3091874  14.8122740
  51.0445356  37.7626538  15.2026129   8.3573652  37.5184011  40.7790613
   9.1627145  37.6168752  40.2711773   7.6550317  37.6568794  40.1436234
  33.6539198   3.2819403  33.5500288  33.0141378   3.0575598  32.8743315
  34.0984083   4.0587176  33.2105136  45.9900713  64.8259925  26.8550324
  45.3819799  64.6817969  26.1300063  46.5832710  65.5071639  26.5382433
  35.3809762  15.8785188  50.1817894  34.9541498  16.0661185  49.3458080
  36.2821031  16.1788237  50.0633383   6.2012411  36.4987063  12.9218495
   5.6052804  36.4305854  12.1759081   6.1342741  37.4123740  13.1992590
  80.2915573  24.1389298  36.1649370  79.9635077  24.0954828  35.2667570
  81.1452293  23.7074208  36.1292672  14.7689748  60.0087833  32.8312016
  15.3778005  59.4125891  32.3951817  15.2414155  60.8398104  32.8803825
  70.2408600  19.0731812  33.5835552  69.8964262  19.0623569  32.6905394
  71.1471415  18.7783659  33.4943032  19.5739770  58.7225485  28.2683730
  18.6265493  58.6295986  28.3682132  19.7060609  59.6541977  28.0928183
  14.8741937   5.5350245  28.9372659  15.1278568   4.8152483  29.5150280
  15.3975559   6.2784041  29.2367864  32.1302366  75.6126093  44.6332026
  33.0869245  75.6196009  44.6637487  31.9199800  75.1596408  43.8165951
  77.9140615  42.8513527  65.9505558  78.3912897  42.0565605  65.7122564
  78.5316849  43.3503866  66.4850950  54.9556303   5.7147557  46.2891674
  54.4553995   6.1132914  45.5770063  55.8706617   5.8723795  46.0565662
   6.3599706  34.6071672  64.0880442   5.4296804  34.5570421  63.8683128
   6.4478422  34.0772033  64.8802900  84.9561882  35.7865500  68.7128448
  84.2550850  36.3890767  68.9611292  84.6080017  34.9179435  68.9141369
  18.2540632  26.7253160  33.4470487  17.7645231  26.0110664  33.0390930
  18.1936765  27.4459028  32.8198838  14.1171670  15.1096320  40.2758741
  14.7085119  14.4742382  40.6793880  14.6498704  15.5425656  39.6087694
  50.4287195  30.8400822  60.7872581  51.1940861  30.4613352  60.3548288
  49.8552752  31.1068940  60.0687790   8.0866552  37.2705460  29.3346524
   8.8201166  36.7676473  28.9805746   8.1985975  38.1477022  28.9681864
  20.6584573  42.9256010   1.7640775  21.3113523  42.9377127   1.0642102
  20.4024816  42.0061445   1.8369462   7.6857591  23.9895844  54.5828152
   8.1489397  24.8149157  54.4395447   7.9117322  23.4530902  53.8229847
  78.6233234  51.3011312  49.8466539  77.6984739  51.4823627  49.6791887
  78.6688805  51.1393499  50.7889843  21.9351698  10.4632394   3.5595639
  21.6447474   9.5517604   3.5265716  22.8630520  10.4108207   3.7887414
  82.6768208  45.0087547  22.1980166  83.4132481  45.5158615  21.8563199
  82.8250885  44.1212893  21.8714261  20.6023527  13.1593072  44.4711018
  20.6697870  12.2045028  44.4652700  21.2365556  13.4482205  43.8149357
  83.8906765  55.0505161  39.0176153  83.1380272  55.6405067  38.9766669
  84.1620922  55.0718641  39.9352813  40.1257921  25.1612282  49.3812466
  39.7764230  24.7495604  48.5908651  39.3776441  25.2106547  49.9762678
  48.8273668  75.5554151  32.7037215  49.4073581  76.2885939  32.4980831
  48.5762643  75.2020030  31.8503308  66.5757490   1.9336335  15.4041417
  66.9212366   1.1098401  15.7479890  67.2128130   2.2028987  14.7424062
  53.9867235  64.9244217   1.6233571  54.9196363  65.0128321   1.4281638
  53.8759447  64.0011147   1.8502076   2.9267240  56.1295663  39.1006303
   1.9977784  56.3412820  39.0085602   3.0792546  56.1268984  40.0455952
  15.6979585   7.3339128  36.9443107  15.6942869   6.8420148  37.7654409
  16.0806013   6.7318022  36.3061261  15.0470567  18.2984579  48.7871790
  15.0304151  19.0716958  48.2232141  14.7349287  17.5872266  48.2277536
  21.2624288   9.6324211  16.0640335  21.8551755   8.9507014  15.7475781
  20.4511190   9.1679043  16.2695289  11.7880560  45.0642229   5.0382598
  10.8884264  45.2936266   4.8052962  11.7438246  44.1398907   5.2829774
  15.6631113  28.9343548  59.7810507  15.1078058  29.5114970  59.2568541
  16.2463403  29.5279169  60.2540827  71.3391352  31.0663533  48.6118126
  71.5902710  30.7979250  49.4956160  71.8057442  30.4607105  48.0358744
  69.2912579   3.7348151  68.0208063  69.0669155   4.3961889  68.6753988
  70.1252270   4.0315598  67.6565695  82.7602673  42.0773411  51.3682079
  83.0510235  42.2871971  50.4807091  83.2045269  42.7179956  51.9235659
  68.8254595  31.8222642  58.4913445  68.2805538  31.5851617  57.7409554
  69.0300894  32.7474785  58.3559322  11.7564416  34.6942830  19.4833314
  12.5807119  35.0368285  19.1376805  11.6604543  33.8371253  19.0682435
  49.2238642  75.6002191   2.9882272  49.2659021  75.9237126   2.0883258
  49.0572763  76.3812260   3.5159619  13.8975263   3.5493302  34.3415117
  14.0322328   2.9512754  33.6063814  14.7212339   4.0318301  34.4117832
  76.8813896  13.7975951  66.9498785  76.6734695  12.8734370  67.0874573
  76.7261409  14.2072936  67.8009246  75.1083755  50.1047373  51.8565798
  74.8773479  50.9579325  51.4892673  76.0433340  50.1725531  52.0502043
  49.7692537  72.9352569  27.6557255  50.1956987  72.0937954  27.8179550
  50.4037428  73.5868203  27.9542589  33.2465673  59.1948358  23.5558255
  32.3029257  59.1917054  23.7163671  33.6375261  59.2607859  24.4270452
   5.3734327  18.3348572  48.8236475   5.2266622  17.8714716  47.9990482
   4.5617795  18.8195252  48.9737797  51.4532232  50.6457090  65.1535416
  51.2648106  51.4464283  64.6640730  51.1130571  50.8162451  66.0318565
  85.0857067  45.6712484  11.5961170  85.1729298  45.7055330  12.5487185
  84.2548561  45.2196836  11.4477730  21.5665651  29.1054869  44.2752600
  20.9591794  29.3617344  43.5812521  21.9436002  28.2800150  43.9708376
  81.2921715  18.0898666  47.7362347  81.6090012  18.8832378  47.3044777
  82.0858002  17.6492393  48.0399370  36.6155458  20.1752853  19.3029535
  37.3095251  20.4261351  18.6932874  36.6126562  20.8699179  19.9615204
   8.8613153  52.9858637  21.5246630   9.1356302  52.5712013  20.7067156
   9.2295385  52.4290943  22.2107005  41.1090899   8.3552593  18.3987141
  41.1438513   9.3020248  18.5353100  40.2553225   8.2029027  17.9936206
  61.9447756  34.2795086  53.7083006  61.2688732  34.4435120  53.0506659
  61.9661760  33.3266950  53.7973070   7.2574926  50.0902081  55.7499266
   6.3635660  49.7865009  55.5921841   7.4563718  49.7977400  56.6393900
  63.4995604   8.7189656  16.4269590  63.5380554   8.3636773  17.3149467
  63.6355925   9.6597666  16.5393007  86.5594769   5.9768707  35.8153296
  86.8763065   6.8678576  35.9636354  86.8910313   5.7461041  34.9475455
  58.4330559  26.6602373  48.1693935  58.8045502  25.8380270  47.8497171
  58.6876202  26.6955924  49.0914488  52.9675245  23.0912328  58.2480717
  52.5803280  23.9421701  58.0426025  53.8102293  23.0956531  57.7941370
  40.5532766  10.1449502  28.9163613  40.4109979   9.3946701  29.4934821
  39.8872495  10.7797849  29.1802216  34.3320252   9.0343110  13.1433614
  34.2107226   9.4296233  14.0066369  35.1074864   9.4685285  12.7879174
   0.0237966   6.7364007  20.5635881   0.1500822   6.2853271  19.7288334
   0.7958436   6.5051460  21.0800004   7.5095106  25.6143570   7.3647708
   8.0400968  26.4018631   7.2441667   8.1475568  24.9151158   7.5068843
  67.2508574  74.5239258  60.2943325  66.8478870  74.4957495  61.1621189
  68.1336927  74.8590326  60.4509878  66.0178375  52.5843716  48.5761213
  65.2750397  53.0306482  48.1695271  66.7092514  52.6192141  47.9150915
  75.6986856   7.3474038  29.9522400  75.8412409   7.9357266  29.2107654
  74.7621107   7.4175191  30.1370072  85.6996559  67.8165872  69.5818047
  86.3056968  68.2050045  70.2127395  85.0150179  68.4761388  69.4700266
  68.1344557  26.6268992  27.9406691  67.8202009  25.8049870  27.5639200
  69.0753651  26.4935493  28.0552769  77.6237774  46.7030334  46.6815329
  78.1209040  46.7203999  45.8637381  78.2194376  47.0751524  47.3318768
  48.3569479  72.1782207  54.8364925  48.0478716  71.3236713  54.5357466
  48.3043480  72.1296024  55.7910109  69.7952270   0.8907434  64.4123231
  68.8743782   1.1479541  64.3662505  70.1071643   1.2638684  65.2367620
  22.6293016  62.3313741  36.1982377  21.9121528  62.9439763  36.3614972
  22.1954656  61.4977340  36.0163911  65.1672506  19.6810746  27.5660825
  65.9029865  19.2379797  27.1434855  65.4328537  19.7662067  28.4817457
  49.5289755  78.2730963   4.1870105  49.1920328  79.1586324   4.3231264
  49.7548580  78.2430493   3.2573295  74.4894171  35.1927805  30.5465603
  74.5157528  34.2505479  30.3800178  75.2800131  35.3679776  31.0569453
  62.6902294  37.3146057  42.1622562  62.3566341  38.1254601  41.7782545
  62.5329828  36.6496968  41.4918804  11.8098665  19.2020047  41.6931343
  12.0185590  19.8366106  41.0075998  10.9270025  18.9001906  41.4794016
   3.5880971  67.5473642  39.5755363   3.6259962  68.5035419  39.5982146
   3.5567117  67.3309422  38.6436510  80.9650517  14.0271246  47.2603559
  81.3194561  13.5895467  46.4863110  81.7026806  14.5250511  47.6127911
  81.5907764  14.8086154  61.0214281  80.6950665  14.4763803  60.9618711
  82.0028210  14.2671180  61.6946554  21.0284830  27.2367239  35.0725913
  20.4838872  27.0202374  34.3157673  21.2791181  26.3882089  35.4378843
  33.3851457  27.7965498  27.2701573  34.0473676  28.3221340  27.7189875
  33.8814664  27.0949888  26.8485999  74.4686222  73.4468972  52.6927137
  74.9762249  72.7182268  52.3354864  75.0196743  74.2161476  52.5483990
  82.1775055  26.4815688  36.1246324  82.9902458  26.1823368  35.7170224
  81.4985085  25.9270883  35.7402635  70.6226540  15.4463029  27.4967480
  70.8851242  15.6197309  28.4007740  69.7073698  15.1736605  27.5611901
   1.9231248  69.0148449  15.0582063   1.1724401  68.6619043  14.5805597
   1.6285539  69.0599060  15.9678388  77.9813719  32.0681874  11.2023671
  78.3385134  31.4948181  10.5241902  77.7537299  32.8742550  10.7390531
  84.9038696  57.9814196  23.3713865  85.4087162  58.7849045  23.4969759
  84.0574074  58.1641960  23.7792230  57.0450640  52.8180647  38.2158923
  56.3929892  52.7107096  37.5234270  57.7987432  52.3098373  37.9160523
   2.4721933  34.6140027  34.2486215   1.5387464  34.7123289  34.0609145
   2.5097871  33.9460135  34.9331689  73.7661648  53.2763958   5.2383351
  72.8123522  53.3561850   5.2280945  73.9892626  52.9577589   4.3637329
  81.8002224  14.6309328  67.3804855  81.0777855  14.4417214  66.7817259
  81.8057919  13.8928246  67.9899120   2.3607374  16.3451374  52.7142382
   2.2618318  16.9780183  53.4255123   2.5955034  15.5271339  53.1524038
  33.7143350  48.3016626  17.4907525  33.8151384  48.7724254  16.6634400
  33.2088972  47.5215296  17.2623666  68.6487103  40.9729052  31.6825700
  67.9657269  40.3041744  31.6319203  69.4151640  40.5633354  31.2812805
  85.8928967  31.2801933  34.8833013  85.6232166  31.2586451  35.8014750
  86.2174702  30.3968930  34.7082114  71.1792850   0.8151300  19.0163827
  70.3223419   1.0837656  19.3476248  71.0520077   0.7195410  18.0725110
  32.1402288  12.8118753  65.0073624  31.9176603  13.4006333  64.2862082
  32.1727586  11.9434035  64.6061993  59.3509531  39.9903059  63.1101322
  58.4741306  40.3606939  63.0089903  59.2362547  39.0545583  62.9444456
  73.0095005  44.2730856  41.5156364  73.9088631  43.9786386  41.3718176
  73.0363560  44.7206688  42.3613167  28.1086469  50.8016634  23.6093068
  28.4705282  50.8265114  24.4951153  27.6557279  49.9598885  23.5591364
  20.2433420  22.3189259  45.3045368  19.5078302  22.7539349  45.7358503
  20.0296140  22.3549533  44.3722010  19.6661687  22.2072625  33.4740019
  20.1688982  21.9442010  34.2449021  20.2330232  21.9917822  32.7334094
   7.7765394  43.5192156  26.6845393   8.2205415  43.1396484  27.4428439
   7.2605634  42.7983475  26.3234973   9.4065977  19.1859424  48.4355879
   9.7511316  18.6626732  47.7119064   9.0010858  18.5467839  49.0214825
  32.3397851   5.4983914  21.8139815  32.9811311   4.8055685  21.9718027
  32.0516801   5.3571707  20.9121585  42.2025776  76.8623551  42.0396376
  43.0404234  76.8846836  41.5773153  42.3628425  76.3019442  42.7989054
  16.8130327  21.5806508  64.4281054  17.3103643  21.1062264  65.0942993
  17.1586156  21.2576532  63.5959578  54.8254801  33.6254720   1.1224492
  55.5198694  34.2716882   0.9941514  55.0113417  32.9429553   0.4775746
  66.8888903  52.2876835  26.1672926  67.6617384  52.5172234  26.6832805
  67.2189093  51.6941977  25.4926896  77.6905584  50.9259272  55.0269365
  77.0575714  50.2967787  55.3729582  78.3147335  51.0550928  55.7410479
  64.0138102  41.7065048  57.1696234  63.7504148  40.7876873  57.1183252
  64.6914911  41.7991400  56.5000010  79.2806149   7.4287611  58.0800056
  80.1204491   7.2605038  57.6526880  78.6334944   7.0186460  57.5061750
  74.6850538  36.4230418  50.5791330  74.6448946  35.4743052  50.4586411
  73.9040661  36.6326976  51.0913229  85.5001736  80.0656033  41.7206764
  85.1642704  79.1950846  41.9342184  85.7884121  80.4236984  42.5602722
  50.4513550   8.3454734  43.0351257  50.9609222   8.2883447  43.8433981
  50.7113409   9.1807586  42.6466179   7.1053339  34.6256232  46.4252758
   6.2476564  34.5640683  46.0047626   7.4090314  33.7197566  46.4836645
  65.7638454  15.8124149  59.2498398  65.4165411  15.3103900  59.9871206
  65.0926352  15.7372963  58.5715580  56.4131260   8.4488851  31.2162685
  55.7080460   8.0571592  31.7316794  57.1183681   8.5944718  31.8468785
   3.6959768  20.0036144  38.5354352   4.5471693  20.2725744  38.8809276
   3.3292699  19.4383836  39.2153406  64.4774389  37.4859858  44.0880060
  63.8772631  37.2407198  43.3838272  64.9963427  38.2021642  43.7218666
  75.7551003  71.5145254  41.7832947  75.3131628  71.7064095  40.9561920
  75.1578379  70.9241867  42.2426558   6.3897348   8.5483468  25.4307365
   6.2154890   7.8827834  26.0962415   6.1971212   9.3786931  25.8662343
  83.6837196   6.7212838  64.8361015  84.5218849   6.4106828  65.1785135
  83.1951237   5.9223998  64.6378946  16.8221593  18.7232947  52.6980877
  16.1650014  18.2693136  52.1705627  17.2594190  18.0265629  53.1875801
  14.5251919  53.6880688   6.8948014  14.3506075  54.0729979   6.0359748
  13.8288999  53.0421189   7.0137723  70.4676485  26.2852263  31.8978524
  69.6427155  26.3340259  31.4148068  71.1047602  26.7159510  31.3279414
  45.7375097  24.7146273   8.9071238  45.1686525  23.9466977   8.9611226
  45.1587820  25.4547501   9.0902126  74.0064048  69.3412339  48.6710215
  73.4444141  69.5601427  49.4143105  74.8444843  69.1019331  49.0667200
  29.1979980  57.9975171  60.6028716  28.5463332  57.4028547  60.9742801
  29.6209049  58.3950086  61.3640432  26.6947103  75.5016378  23.8216146
  27.3212648  76.2178043  23.9253648  26.0513044  75.8350138  23.1962140
  82.3463821  53.5014296  56.7586946  82.9132462  53.4730291  57.5294685
  81.8959332  54.3435192  56.8235588   4.2311120  19.2340156  56.7957894
   3.5571885  19.6824475  56.2849454   3.8366723  18.3929750  57.0266585
  77.1371841  29.9177861  17.2132063  76.2495327  30.1109123  17.5148892
  77.1875334  28.9619112  17.2133207   5.6975198  14.0847540  41.9814301
   4.7837663  13.8194096  42.0857143   6.2011934  13.3019483  42.2044945
  72.1258879   3.6230308  43.4299612  72.9567671   4.0305310  43.6745358
  72.3415184   3.0726287  42.6771021   3.8216997  10.8092713   3.6461848
   4.1027093  10.4195237   2.8183174   3.6049772  11.7145920   3.4233409
  50.9707928  29.8866916  51.0198927  50.5862999  29.9702263  51.8924856
  51.9150400  29.9375939  51.1683512  61.8901205   1.8997729  40.8656788
  62.1670580   2.6463759  40.3345251  62.6967335   1.5823521  41.2716913
  78.0187130  14.3269491  40.8218241  78.9458847  14.0900290  40.8431292
  77.8316832  14.4794047  39.8955393   2.8054453  80.4277185  12.6843389
   3.3213831  79.9313787  12.0489724   2.6636864  81.2771539  12.2664865
  80.8895302  32.7836657  12.3508477  81.3801003  32.0103788  12.0722830
  80.1041031  32.7789497  11.8037534  55.9743500  28.9797378  53.5348129
  56.6817522  28.5211015  53.9881039  56.1251307  29.9046993  53.7296104
  19.9149442  27.2738647  42.0013332  20.3896451  27.9858446  41.5724087
  19.3084550  26.9538832  41.3334846  23.6902261  24.7020745  52.9738808
  23.4399915  23.8430572  52.6337290  24.5851064  24.5823717  53.2918453
  13.1668592  23.6809659  40.8456612  13.1851411  22.7245831  40.8807325
  13.6911989  23.9024878  40.0761032  42.8880882  14.8021507  13.6596763
  43.0753899  15.7353318  13.7612820  43.3500004  14.3846047  14.3866718
  33.5244490   3.9052714  63.9115047  33.2449938   4.0194930  64.8198462
  32.7152086   3.9602030  63.4032297  11.3142324  68.0258421  20.2216847
  11.1826349  67.3094109  19.6006902  12.2088314  68.3240036  20.0573094
  82.6169491  15.9121203  55.7092237  82.8261280  14.9931264  55.8763361
  82.8483772  16.0471714  54.7902966  68.2409859  19.1409409  11.2387586
  67.6279306  19.7965789  10.9062946  68.3367395  19.3517649  12.1675301
  21.3606477  45.1198673  34.3355012  21.0392118  46.0128021  34.4603086
  22.2911191  45.1673794  34.5550156   4.8584867  48.5809088  16.2015116
   4.6216894  48.2884407  17.0816374   4.2685914  49.3140030  16.0259235
   3.3833337  16.3138318  48.4062243   4.3078638  16.1712444  48.6090612
   2.9558778  15.4917467  48.6464071  62.5951004  52.3848009  33.7773752
  63.2042646  51.9108057  33.2112646  62.9906607  52.3373461  34.6477270
  66.4346981  18.2545873  61.4496039  66.2810611  17.4780484  60.9114437
  66.7787933  18.9055844  60.8380215  26.1686039  12.0154870  65.7907915
  25.2587485  12.2963905  65.8881903  26.6763806  12.6851761  66.2489510
   5.8848787  37.7500701  30.9979844   6.3456941  37.7038312  31.8356824
   6.3873506  37.1795321  30.4164004  84.6118164   4.7632131  25.6573057
  84.3976402   4.8763388  26.5833545  85.3501701   5.3538752  25.5083442
   5.5785966  37.8877735  42.3819494   5.0193716  38.0230880  43.1469250
   6.1258531  37.1378064  42.6149702  68.0270672  30.3224397  44.6465302
  67.3096275  30.0736570  44.0637589  68.3620882  31.1400604  44.2784452
  72.0598555  18.6639571  29.3289971  72.1047211  17.7103305  29.3983936
  72.8262854  18.9024734  28.8075304  73.1448078  41.5672541  66.3583946
  73.2683516  42.4902678  66.1369896  73.6348915  41.4484310  67.1719837
  69.9860954  66.5156317  52.2457933  69.4346905  65.7894850  52.5371647
  70.4358006  66.8079853  53.0385876  59.4097519  60.7188272  50.4472256
  60.3626919  60.6890202  50.3621387  59.0958977  60.0221586  49.8707008
  18.4684206  65.0810051  14.1562366  17.7831865  64.5359659  13.7694263
  19.1578222  65.1058531  13.4926522  79.7790098  49.3621778  36.0571742
  79.5744324  49.2964077  36.9899392  79.6997499  48.4658337  35.7308030
  10.7670618  76.3322687  58.9594841  11.0288549  76.3623285  59.8796940
  11.5900255  76.3916302  58.4742689  16.5947843  33.8643456  41.8515539
  17.3893381  33.4384751  42.1733618  16.8396116  34.2111707  40.9936476
  61.0524130  47.1936226  56.2197590  61.9702530  47.4524784  56.3022280
  60.5606365  47.9960775  56.3942671  64.2914104  51.3492918  26.1183167
  65.0828838  51.8828440  26.1899114  64.2424107  50.8804989  26.9514227
   4.2117525  34.7362208  48.3444691   3.4540487  35.1344490  48.7728786
   4.9675394  35.1488972  48.7624454  33.1649518  79.8482752  67.1892309
  33.6274839  79.2526054  66.5997601  33.2217622  79.4280481  68.0473757
  63.4940338  39.7339201  49.7284937  63.8099575  40.5021572  49.2528486
  62.8134394  39.3663049  49.1646814  60.8938456  60.7323456  26.0306263
  60.0339651  60.3518295  26.2096190  60.7189846  61.4360857  25.4058003
  65.7505083  52.4242544  32.1711063  66.6667318  52.4870348  32.4409723
  65.7348204  51.7023087  31.5427876  60.8476830  72.5436449  34.3066120
  61.1194181  71.6286898  34.2341924  59.9944067  72.5065899  34.7387910
  11.3717866  68.8229752  31.4999557  10.6828237  68.1692982  31.6193676
  11.0587812  69.3723249  30.7812977  30.1605319  67.2556813  57.0684020
  30.8355331  67.2183688  56.3907580  29.3454551  67.0617826  56.6054933
  19.8822999  60.8426571  45.5516720  19.4396139  60.7551193  44.7075224
  20.3530527  61.6738319  45.4901981  80.4531097  40.5786800  58.1911659
  80.3304768  39.8156261  57.6264143  80.3923607  41.3277006  57.5982809
  15.0324274  56.8553972  34.1781545  15.2246118  56.7813921  33.2433701
  14.1219926  56.5710735  34.2587376  79.6156168  70.4990864  39.0521049
  80.0724792  69.7343636  38.7018180  79.6456623  71.1415577  38.3431888
  46.3255405   0.2747985  69.3562712  46.8483543   0.6140586  70.0827705
  46.9056606   0.3310319  68.5969721   2.8752161  61.1236954  48.5022879
   2.3150468  60.7119036  47.8443575   3.6559034  60.5706549  48.5322046
  67.8970003  56.9014406  54.2618704  67.9289246  56.8869591  53.3053112
  68.2940578  56.0719204  54.5273495  30.6143022  77.8155804  15.8598411
  31.1478067  78.0091906  15.0890481  30.1781106  78.6429930  16.0631979
  45.5219580  30.8233253   2.1893437  44.6964765  31.2720791   2.0065148
  45.3222681  30.2450160   2.9254897  75.2276659  54.7490406  38.8346267
  75.6789064  55.1535320  39.5755696  74.9088430  53.9133739  39.1755795
  77.7126455  70.1385784  29.3678951  77.2664452  70.7402277  28.7719417
  77.0112753  69.5993710  29.7333622   9.5992113  47.6124525  49.4302511
   8.8375593  48.0470371  49.8139954   9.6832967  46.7965603  49.9236917
  69.8656654  22.0880795  38.1385374  70.1915407  22.4187446  38.9756155
  69.0373087  22.5487947  38.0051422   6.6201807  45.1443148  42.0338488
   7.1046377  45.7824993  41.5101576   6.8824983  44.2948532  41.6791153
  16.7825819  44.9508905  68.6657810  17.3673940  44.2057562  68.8036299
  16.0625864  44.8071003  69.2799091  84.4214535  45.8792496  58.5558128
  84.5917511  44.9398184  58.6243725  83.9898109  46.1051750  59.3797493
  75.3933287  25.3594494  32.5069904  75.2992439  25.0497246  33.4077954
  74.5465755  25.7549238  32.3000193  82.2167683  57.2047043  53.2119799
  81.5296936  57.0697594  53.8646269  82.2687912  56.3717556  52.7432394
  75.3606272  79.5027447  16.2324703  75.7760525  78.6943674  16.5327680
  76.0904503  80.0984383  16.0629451  19.1812588  53.5457579  12.7034600
  18.6197925  54.1910700  12.2738488  19.6736408  54.0500645  13.3511193
  60.2741575  60.5287743  47.3623896  60.1505804  61.1223888  48.1030512
  61.2202215  60.5209064  47.2170115  81.1792850  54.1649771  36.6600847
  80.9477711  53.2762146  36.3903952  80.7315922  54.7305012  36.0308123
  84.2430878  57.6218462  35.8227682  84.3567467  56.6715336  35.8378410
  84.0215206  57.8221703  34.9133658  86.4899063  33.7103105  33.9260197
  86.4370728  32.8840041  34.4062877  85.6600857  34.1493511  34.1127396
  20.4412103  40.1823282  48.4832335  21.3293767  40.4825735  48.2902479
  20.5035520  39.7957277  49.3566656   0.7787729  28.4478474  10.9867895
   1.3488698  27.9763222  11.5941525  -0.1046633  28.3015847  11.3249934
  10.8097387  55.6472015  28.1292248  11.6780115  55.2706575  27.9858923
  10.2104974  54.9052238  28.0478716  15.6633974  24.2862630  42.4696875
  15.1685262  23.5851622  42.0456696  16.3491178  24.5098519  41.8403816
  70.8250904  45.2208042  63.5273695  71.5046310  45.1337957  62.8588724
  70.3582239  46.0224199  63.2914066  55.1239516   1.5518014   3.8313897
  55.6061674   2.3024289   3.4846099  55.5648352   1.3437002   4.6551259
  58.3682966  11.8253279  43.3785582  58.2467413  10.8839440  43.2550526
  57.4979401  12.1511769  43.6077547  59.1328334  81.0951219  47.5934696
  59.1122150  80.6877866  48.4594297  59.8878574  81.6827331  47.6231050
  50.0633144  77.8064602  45.3517866  49.8558569  76.9023406  45.1156473
  50.9926414  77.9013180  45.1430225   2.7198911  13.7258708  14.8213589
   2.6630712  13.0082858  14.1904271   1.8899942  14.1935372  14.7275579
  76.1606979  25.6168199  37.6034856  75.8900499  25.1149940  38.3723497
  76.7283249  26.3035703  37.9533458  49.1946650  25.5460429  25.2651978
  48.9587212  25.8453655  26.1432433  49.6635199  24.7242308  25.4102373
  14.6659374  63.6022877  19.3080091  14.6754646  64.4477510  19.7567117
  14.7951889  62.9595326  20.0054288  70.2522516  54.5676470  30.1471376
  70.2719784  53.9178514  30.8497071  70.7208061  55.3216887  30.5050659
  52.5259018  77.3372169   7.5465602  53.1482982  76.9046347   8.1311309
  51.6881656  76.9131123   7.7324837  68.3314991  60.6636058  37.7181339
  69.1860866  60.3724658  37.4001098  67.7065086  60.0679337  37.3048639
  23.7350940  50.0175674  64.9142448  23.1360435  50.5873634  65.3966455
  23.5588931  50.2097203  63.9932321  17.5356292  30.7674439  63.8695524
  18.4490108  30.7202919  64.1519473  17.3242616  31.7006053  63.8971780
  82.3792744  16.0393894  50.0426102  82.2745323  16.9730937  50.2255201
  81.8378258  15.6041121  50.7010889  80.6399345  29.3776536  14.3697250
  81.2614536  28.6604309  14.4943559  79.9603081  29.0101719  13.8046634
  28.5287475  65.4388820   3.5470909  29.0075731  65.2783369   2.7339596
  28.0055999  64.6479117   3.6771438  25.2640151  54.9813910  69.7021470
  24.8775291  54.8848136  70.5725099  24.7688388  55.6938644  69.2979093
   9.4879365   6.6740769  44.7161341   9.0878702   5.8815861  44.3581724
  10.3630758   6.6964418  44.3290091  78.0069971  33.8047242  30.0654554
  77.1364594  33.5994840  29.7244644  78.4520483  34.2410445  29.3389678
  17.4460268  62.5448226  38.5652256  17.1232986  63.2229589  37.9717541
  18.3793640  62.7345311  38.6607552  66.3857508  22.4743247  43.8030672
  67.3106813  22.7199697  43.7830925  66.1300468  22.4289155  42.8817701
   4.5582605  48.6275721  49.1313648   3.7302614  48.2813549  49.4642115
   5.0072313  47.8650761  48.7663221  30.6261468   2.6008293  22.1945000
  31.4747453   2.3544973  21.8264866  30.8369089   2.9887938  23.0437899
  28.4532737  77.2121104  38.4588051  28.5902834  78.1463709  38.3019042
  28.5457515  76.8082427  37.5959206  64.8868370  29.0824699  48.0050468
  65.1798868  28.6909866  48.8279057  65.3316832  29.9293351  47.9709148
   3.4384561  67.8035735  45.6455088   3.7956166  67.0788156  45.1322889
   4.1446233  68.4492301  45.6718636  16.2979889  72.3946111  43.0153513
  16.1905098  72.9276203  42.2275829  17.0945835  72.7313732  43.4255457
  77.1772099  14.1682494  13.1705225  77.9659033  14.6126866  12.8596044
  77.2448969  13.2826364  12.8136754  64.3365192  -0.0462794  18.9749122
  63.4571171  -0.2426215  19.2979193  64.5488214   0.8039518  19.3599665
  85.9461212   0.4764137   3.4535462  86.6927433   0.8645711   2.9973310
  85.9297085   0.9163421   4.3035021  78.7415171  16.8020654  48.2351732
  79.6133471  16.6369081  48.5941553  78.4577942  17.6123869  48.6583900
  40.0925684  33.4453678  28.3627772  39.1492844  33.5235786  28.5053396
  40.4141045  34.3466043  28.3876801  20.6718778  31.3633968  55.0485925
  21.0278653  31.6128535  55.9013979  20.8728599  30.4309590  54.9686150
  65.9995842  42.3027431  13.2276773  65.4867363  42.9627668  13.6941421
  66.0837364  42.6487218  12.3391676  33.5556078  67.8607558  14.5648181
  34.0430259  68.3428012  15.2328646  34.1284513  67.8686344  13.7979937
  44.1462469  23.3583426   5.5247802  44.1248894  22.9898858   6.4079648
  44.9548006  23.0172920   5.1424694  63.5922337  13.3993828  25.0690603
  64.1689491  13.2247043  25.8127785  63.0965614  12.5885391  24.9547219
  33.8194036  77.2979765  29.4294572  34.2493200  77.9887795  28.9252806
  34.2773914  76.4964311  29.1764665  53.5244608  28.8616014  42.6117039
  52.9313707  29.3599486  42.0494556  53.2516384  27.9509211  42.5000668
  74.0549183   3.6386794   3.8238922  74.1415834   3.6171713   2.8708664
  74.8651505   4.0469819   4.1289198  74.3529892  76.1640607  19.2654097
  75.2926921  76.1549138  19.0834761  74.2306137  75.4838692  19.9276757
   8.8232542  20.6371164  31.7722273   8.1618047  21.2348843  32.1206450
   9.5834184  20.7638097  32.3399711  63.0695391  10.8832800  27.2875953
  62.7843094  10.8354104  28.2000542  62.2569466  10.8732271  26.7817998
  58.8170337  54.5261537  20.4934573  59.0230274  53.9461814  21.2265539
  57.9792976  54.9238168  20.7307267   7.0539403  14.5602918  31.4259648
   7.8889394  14.2358649  31.0886765   7.2311521  15.4685259  31.6707897
  79.3197012  23.2530332   8.2669598  78.9150143  22.3892140   8.3462036
  79.2293882  23.6406088   9.1375118  64.7076464  38.8246989  19.5897067
  65.5046797  38.6698222  20.0966430  64.3295336  37.9540968  19.4659626
  75.2524256  41.0433639  62.2412829  76.0346483  40.6922408  61.8157564
  75.5889009  41.5506801  62.9799627  28.2340288  74.3168758  36.7427373
  27.7071857  75.0051420  36.3365865  27.6493883  73.5600363  36.7830324
  79.5688009  37.8518367  19.6461165  79.3022013  38.6934066  20.0161409
  79.0124607  37.2094703  20.0866723  69.5617342  30.2732062  29.4892144
  68.6902094  30.1179028  29.1251326  69.8948240  31.0258484  29.0005255
   4.5194459  27.6223540   6.9508827   4.8250032  28.2441235   7.6113927
   4.2242647  28.1708145   6.2240475  79.4924831  68.9010055  63.2595603
  78.8741683  68.8524826  62.5304775  80.2387523  69.3870742  62.9087709
  78.2224321  25.6214976  41.8909407  77.6577520  24.9934292  42.3413801
  78.5340214  25.1516151  41.1174059  14.0595270  11.3993633  26.3381839
  13.5437513  11.2391102  25.5479169  13.5679174  12.0693064  26.8132925
  62.1830845  77.4214812  41.4538527  61.8116283  78.1615608  41.9339895
  62.9409885  77.1546205  41.9740438  79.8506451  35.2520490  28.4081411
  80.3115845  35.4277802  27.5878477  80.4941559  35.4438066  29.0903091
  40.8065248  16.4849353   9.8703647  40.8739305  16.8837118  10.7379270
  41.6706014  16.1039019   9.7141093  56.0458517  12.4551678  38.3798575
  56.5863419  12.1274066  39.0986586  55.1826429  12.5892973  38.7711453
  64.9225998   8.2551742  32.4877691  65.4666567   7.6500845  31.9836831
  65.5217695   8.6398494  33.1274986  76.1546087  28.1326652  27.6030374
  75.5012131  28.7884784  27.8463793  76.8032789  28.6183953  27.0936012
   4.5100427  25.3702831  26.0744619   4.0642286  24.6745038  26.5575457
   3.8097215  25.8207321  25.6023598  70.1726246   5.5292779  12.9693997
  70.8254910   4.8323807  13.0351758  69.5216274   5.1903874  12.3549151
  45.5930805  60.8105957  24.1192985  46.1899376  61.5531742  24.0267277
  46.1528587  60.0400316  24.0238571  45.6416130  73.7673419  40.9237480
  45.4614448  74.2679488  41.7194653  45.2504396  72.9091077  41.0869980
  82.3676586  75.7190465  43.9262152  82.8494548  75.0180553  43.4872246
  81.9652748  75.2949046  44.6841240  84.4770527  23.8316512  43.9578485
  84.5016766  24.4220042  43.2047844  84.9993515  24.2745948  44.6266079
  85.6077480  11.3806021  32.7286363  86.3738060  11.4111912  33.3017349
  84.8613930  11.4676535  33.3216095  85.1939011   8.0567992  33.6251569
  86.0881233   8.3698696  33.7614822  84.8660755   8.5795307  32.8933692
  68.8559055  37.7254915  39.6246219  69.5259953  37.9867005  38.9929676
  69.2721891  37.0384026  40.1450539  73.2447815  59.8841917  22.8629708
  72.7107906  60.6425535  22.6263809  72.6654911  59.3405663  23.3969402
  53.5776424   3.5401881   1.3245404  53.7416935   2.7194312   0.8601303
  52.8253317   3.3517051   1.8855563   5.8830762  10.8784282  26.6200042
   5.6034399  11.6999340  27.0239377   5.3633047  10.8164620  25.8186173
  60.2334309  34.6081901  51.5930128  59.2826748  34.5119143  51.6480207
  60.5182409  33.8694692  51.0550451   5.3146768  11.4658117  53.7738991
   5.3522325  12.4207616  53.7201166   5.9903360  11.2350678  54.4114542
  68.5162639  79.3291061  43.2181597  68.2671547  79.3510365  44.1421175
  68.1216049  78.5241484  42.8827286  86.7249584   3.6626250  24.2821336
  85.8700752   3.7709352  24.6988726  87.2859287   3.3119017  24.9739003
   9.7346426  22.8523636  29.7637463  10.6844259  22.7925777  29.8665261
   9.3992448  22.0514798  30.1666474   3.4330202  48.3599710   3.3086789
   4.3762517  48.4369135   3.4523019   3.3543992  47.9653549   2.4401578
   7.7480913   7.9379034  34.6851897   8.3974004   8.6407757  34.7097468
   7.3510671   7.9480666  35.5561066  31.4402675  73.6287611  26.6826344
  31.2847852  74.4379895  27.1696734  32.0983457  73.1619315  27.1976471
  64.9735975  38.9673853  15.8096182  65.6496859  38.9495087  15.1322579
  64.9152374  39.8878908  16.0655391  58.2617950  71.4678906  47.2355223
  57.7041626  71.3756691  46.4630079  57.6617908  71.7285382  47.9342937
  33.5623575   1.2554181   7.3154557  33.3552194   1.4159079   8.2360893
  33.1776357   1.9983234   6.8503606  80.3237438  12.9941428  21.9629312
  79.8119164  12.2780609  21.5867829  79.9685955  13.1048775  22.8448820
   7.3154569   8.0948591  62.0143700   8.0067564   7.9828906  61.3618279
   7.2413469   9.0428066  62.1245289  61.3954210   8.9533478  34.9410558
  60.7403231   8.6049980  34.3362951  60.9028959   9.1576445  35.7359886
   2.1054674   2.8773665  44.1072273   1.6689706   2.6158264  43.2964897
   1.7522645   3.7458825  44.2999935  82.5452042  23.0371165  45.7507229
  81.7191601  23.1857395  45.2905226  83.2142162  23.3822608  45.1595116
   3.0388284  43.4720135  54.8046637   3.8491559  43.0032253  55.0042868
   3.3293081  44.3049622  54.4331169  80.8214474  21.4571857  21.1522055
  81.3845825  21.9344163  21.7616034  81.0497284  20.5372095  21.2855029
  83.5857582  11.4826083  22.4510860  84.3228149  11.9844854  22.7990842
  82.9243565  12.1421731  22.2419119  76.7987490  15.1928353  47.4440765
  77.4293852  15.7753778  47.8673697  76.1285830  15.7795203  47.0934916
  18.8476873   0.9086511  51.8741560  18.2226301   1.6038001  52.0798159
  19.6675039   1.3690625  51.6948318  64.4495368  15.8434331  48.0950069
  65.0381612  15.1534593  48.4010935  63.7409019  15.3753054  47.6535034
  34.8906589   7.4130504  22.9233869  35.5327512   6.9265859  22.4063714
  35.3386617   7.5985353  23.7486871  55.8129907  50.3938893   0.7889398
  56.1759353  50.8696596   0.0418504  55.3050995  51.0496608   1.2666877
  65.6257058  29.1816871   6.8853744  64.8114050  29.2587344   6.3881715
  66.3110132  29.1435544   6.2181886  78.7832588  72.5230837  60.8930159
  78.0860829  72.3128748  60.2717400  78.8651073  73.4757090  60.8478594
  59.8409462  73.5305170   8.4195598  60.2867699  73.1567530   9.1796716
  60.4948521  74.1002802   8.0145820  12.7863312  19.4513667  65.1592016
  13.1841815  20.3111005  65.0220680  12.3636091  19.2472589  64.3250084
  32.9425735  70.2206305  21.7204125  31.9965983  70.3408316  21.8035729
  33.3121711  70.7167343  22.4508317  15.8405161  14.7485662  58.3358145
  15.4326332  15.5338156  57.9707861  15.3399098  14.0230811  57.9625893
  46.1611140   0.5902927  11.9564755  46.1683977   0.0787513  12.7654870
  47.0601106   0.9058635  11.8645318  46.1062265  37.6673845  19.8714574
  46.7910636  37.6339237  19.2035420  45.2904415  37.7325485  19.3749936
  29.0334700  61.7794947   9.3523629  29.4026638  61.4876512   8.5188373
  28.7546444  62.6803998   9.1884740  77.2903538   4.3130367  12.6786359
  77.4589122   5.1222913  13.1612618  77.4827541   4.5332305  11.7671903
  48.3585358  67.6273397   3.1661447  48.6228526  67.1242694   2.3958905
  47.7056563  68.2448224   2.8364547  33.4321836  52.4841396   4.8604949
  33.6239758  51.6117326   4.5164712  34.0785534  52.6154856   5.5541738
  11.1535144  25.7939363  54.5313501  10.3388929  25.9606767  54.0571928
  10.8760345  25.3645825  55.3406048  19.6944237  73.9043573  11.3987668
  20.3924096  73.9342192  12.0531018  19.3304360  74.7896484  11.3962586
  74.9169493  38.5387914  14.1499169  74.3758786  37.9704015  14.6980126
  74.2977191  38.9502065  13.5469850   4.1891316  22.0479298  61.9843340
   4.5950565  22.8473735  61.6491461   3.2757598  22.1075058  61.7042685
  41.9491709  20.6730907  25.1225408  41.8334437  21.1711471  24.3133576
  42.4474896  21.2572114  25.6941255  73.4144616  50.8755684  47.4130058
  73.4269094  51.6976404  46.9228220  73.1647408  50.2151108  46.7667341
  68.0183077  66.7253236  21.0892137  67.5510884  67.5602487  21.0602506
  67.7696872  66.3407663  21.9297727   4.0831310  64.1621304  60.9336185
   4.6304527  64.9474001  60.9287930   4.2932320  63.7186909  60.1117611
  82.5069391  10.6362498  36.2737203  81.6088819  10.7575274  35.9654737
  82.5229361   9.7439474  36.6197991  38.9021397  78.1584263  66.3126659
  38.8177156  77.9735899  65.3772831  38.8615274  77.2986031  66.7313337
   3.2160641  21.7760150  13.9557965   3.0215050  21.0619323  14.5628102
   4.1646744  21.8892591  14.0153726  62.0820117  60.6970850  15.7816728
  61.5310002  60.5679289  15.0097020  62.4115873  59.8228172  15.9896787
   9.5892191  64.0753317  52.2770596  10.5381370  64.0773678  52.1514273
   9.4668585  63.7602663  53.1725979  44.6146858   9.0010946  26.6374810
  44.5307708   9.9343841  26.4421399  43.9901496   8.5762327  26.0495408
  78.3996869  15.9062593   5.2579148  79.0255976  15.1881473   5.1641973
  78.0107499  16.0000007   4.3883308  12.0456779  71.9838238  69.0908480
  12.6542962  72.4817085  69.6366739  11.9215548  71.1594486  69.5611954
  18.1325197  25.9822869  44.1977882  17.5368929  26.6730094  44.4882441
  18.8256741  26.4457607  43.7277269   0.5514242  32.9209375  41.4497948
   0.5801937  32.0149970  41.7574930   0.8737034  33.4355569  42.1897507
  25.5027890  26.4545703  50.3553772  24.6501422  26.6335154  49.9588919
  25.8480287  25.7139254  49.8568916  64.4801116  19.8613977  41.8956041
  65.3193879  19.9787927  41.4505625  63.8265347  20.1242518  41.2475491
  65.9482979  44.4580317  43.3828306  65.5683279  44.8503208  44.1689396
  66.8743109  44.3430424  43.5961676   3.5214922  71.4374018  60.6226826
   3.5878152  72.1999502  61.1974430   3.9839128  71.6971302  59.8258543
  61.9155383  64.0468577  19.4513257  62.8345204  64.2828468  19.3247827
  61.7064190  63.4882740  18.7026628  44.4905508  61.3677625  19.5900949
  44.0056229  62.0258454  19.0920957  45.3513062  61.3376097  19.1724523
  45.1451099  69.3915657  31.3793405  44.2222488  69.3178228  31.6224893
  45.1574302  69.2336873  30.4353364   8.2928318  54.7902346  66.3856316
   7.5154477  54.8284864  66.9428015   8.8017106  55.5629015  66.6311169
  15.1534283  27.7524233  34.5295572  16.0130823  28.1691575  34.5892048
  14.8831904  27.6294947  35.4395533  35.5154467  74.3116692   2.9318507
  36.4434880  74.0863470   2.9966720  35.1219124  73.9346603   3.7187608
  72.5950015  22.2474925  22.2758897  73.2322026  22.9239433  22.5052770
  71.8032766  22.4918382  22.7551587  74.4679105  29.2799473  65.6733942
  74.6085834  30.2238059  65.7480717  75.2110600  28.9671040  65.1575565
  14.5265818   5.1691739  26.1818345  14.5151091   5.4813497  27.0866235
  15.4561330   5.0955121  25.9656461  32.3768568  21.6197181  42.8861713
  33.1576633  21.0778880  43.0001640  31.7509031  21.2747645  43.5228968
  48.6597133  81.6724089   0.9966548  49.3270302  81.3694695   1.6123994
  48.6934102  81.0416344   0.2774747  34.7946573  18.2785432  11.6963037
  34.5272089  18.5295265  10.8121617  34.2073275  18.7680261  12.2722276
   6.2620474   5.6445663  26.1866792   7.1196796   5.3463142  26.4895661
   6.4408041   6.0817592  25.3541215  39.0354443  50.6039766   9.8272832
  39.9744642  50.7418577   9.9516233  38.9471293  50.3776196   8.9014371
  66.6712291   8.1028764  24.5254739  66.4708424   8.9711826  24.8749192
  66.7432619   8.2358568  23.5802968  71.0205400  29.9399304  69.3202925
  71.4251887  30.8026314  69.4110489  70.8410370  29.8568988  68.3837509
   3.3654977  47.0849864  28.4795507   3.4323503  46.1733787  28.7636884
   4.2426778  47.4431770  28.6155065   0.6748746  51.1703825  54.3268871
   0.8205380  51.6685438  53.5226154  -0.1226165  50.6690168  54.1569614
  64.9005378   8.8852517  28.1336625  65.7141501   8.5357683  27.7701695
  65.1559079   9.7137229  28.5394414  56.3723441  -0.0071366   6.0383637
  57.3091599  -0.1730902   5.9331639  56.3281587   0.7945745   6.5594562
  61.4609126  26.9299762   8.1428512  60.8247594  26.5648191   7.5278647
  61.5189648  27.8555887   7.9059918  70.7030618  23.3309865  62.1116209
  71.1668086  24.1019773  62.4383354  69.7885966  23.4824681  62.3504496
  72.9946829  15.6963413   5.7642873  72.2598840  15.9125964   6.3383372
  73.7585963  16.0735051   6.2006553  83.7431885   6.7612378   3.6552079
  84.5862747   6.3175218   3.7476810  83.6799622   6.9632451   2.7217086
  69.6669079   8.7242238  24.4324143  68.7160636   8.7730806  24.3337186
  69.9509609   8.1399410  23.7294419  11.4738739  47.0540047  47.2101259
  10.9237969  47.5333452  47.8297091  11.7648816  46.2821102  47.6956463
  20.5711126  26.7853332  38.2911968  20.5733609  25.8964419  37.9360914
  21.0750699  26.7204571  39.1023993  68.2422805  79.5756534  18.6914380
  69.0578127  79.4157628  18.2164891  68.2549477  80.5140117  18.8799985
   0.7628801  64.0379953  66.3186407   0.6070743  64.9163151  66.6657925
   1.2897816  63.6049795  66.9902802  35.3010893  41.1069632  66.7320633
  35.7935238  41.6139793  66.0865593  35.9050107  41.0047102  67.4676275
  -0.1740088  11.7161298  45.2600813   0.4516660  12.4246395  45.4110003
  -0.1962533  11.2358809  46.0877848  60.0696727   5.5032174  24.8390229
  59.7753792   5.0264089  24.0629609  61.0249052   5.4539649  24.8024591
  37.6560069  18.4980552  11.7646058  37.5743795  17.9616802  12.5531896
  36.7891002  18.4629648  11.3602861  65.2310276  78.9335612  15.9220918
  65.8070684  78.3740381  16.4429982  65.7067037  79.0702609  15.1027806
  60.1685863  17.3083846   7.6604779  59.7494075  16.4707630   7.8577407
  60.7480962  17.1183317   6.9227250  16.3865530  46.6558743  58.5409641
  15.4956889  46.3089561  58.5882807  16.7113757  46.6052103  59.4399357
  51.8443942  79.4291214   6.0237773  52.2578311  78.8198832   6.6354354
  50.9481621  79.1055898   5.9324964  23.5548973  43.4871864  62.1769333
  23.1900930  42.6277637  62.3879814  24.4853902  43.3217096  62.0251799
  79.6571971   3.0861108  35.4469522  79.7967101   3.9217870  35.0015195
  78.7087560   2.9586856  35.4255326  54.3651540  10.8290355  18.8826497
  54.9301819  11.5127961  18.5228665  54.6021385  10.7853477  19.8090203
  34.2681766  25.6254785  25.9653791  35.1404072  25.2857082  25.7653745
  33.7084270  25.2694957  25.2753099  18.3529270  67.7041010  15.3477319
  18.7399924  66.8616275  15.1097234  18.7862552  67.9439024  16.1668523
  46.7688871  17.8161113  23.0321725  46.4979888  18.6390607  23.4391149
  47.6007558  18.0221860  22.6058324  70.2481889  39.3303180  69.1794443
  69.6817398  38.6806011  69.5956612  69.8273301  40.1695633  69.3659258
  78.6502028  56.2137297   2.3777993  78.7951279  55.3064517   2.6462730
  77.6978779  56.3056854   2.3486884  68.2216812  21.7213266  16.6030629
  69.0438438  21.2967985  16.3580068  67.5453473  21.2038057  16.1660512
  14.5642949  10.9780805   5.4840167  14.3774510  11.9010894   5.6553920
  15.1516247  10.7168977   6.1932834  57.4439703  15.1501911  18.1716188
  56.6017743  14.7042720  18.2615884  57.6955123  15.3702180  19.0685876
  82.9203106  22.3899381   4.2009957  83.0162168  21.5144937   4.5760043
  82.9121614  22.9753225   4.9582894  83.6579653  49.8481417  60.8755112
  84.5932078  50.0319433  60.9636641  83.2338497  50.6962776  61.0060024
  29.0841986  15.8247249   0.9203084  29.1876484  15.2809350   1.7012246
  29.6521498  16.5791528   1.0768397   1.2480207  29.4373941  30.8706403
   0.3621671  29.1748762  31.1207986   1.7238197  29.4947290  31.6992283
  64.8988498  10.3784816  25.3897603  65.4645563  11.1503522  25.3691323
  64.3127162  10.5308549  26.1310132  42.3922528  44.3045394   2.4849780
  41.6380215  44.7308032   2.0779546  42.4204672  44.6634834   3.3718761
  34.3289972  65.9097079   1.2682040  33.6498869  65.3829721   1.6896184
  34.7517187  66.3766173   1.9889911  62.8919078   6.1138456   8.3364327
  63.2033969   6.9863527   8.0957349  62.9136426   6.1073081   9.2933591
  86.0340095   1.2762992  39.4289525  85.3147937   1.8771522  39.2341836
  86.7147017   1.5042751  38.7957700  85.5735851  25.1112382  11.2832673
  85.7838608  24.2754285  11.6997273  85.4230166  24.8897521  10.3642972
  19.1504985  75.1343492   5.3173812  18.6586690  74.4952587   5.8330377
  19.8575884  75.4169086   5.8973964  26.8851900  75.1028633  42.0303059
  26.4080095  75.6689835  42.6369619  27.4929690  74.6148300  42.5858784
  23.6852503  63.1353426  57.2622776  23.5653400  62.9277325  56.3355875
  22.7979875  63.2748699  57.5932264  61.4716959  42.3122406  61.3194418
  61.7337322  41.4087391  61.4962435  61.3235950  42.6924706  62.1853113
  84.3971515  46.3306873  20.2505525  84.4348407  47.2695033  20.4333909
  83.7725855  46.2519901  19.5294698  36.9311864  61.4255194   5.3490289
  36.6362775  60.8777098   6.0764678  36.1453218  61.8944601   5.0684150
  60.0943994  22.8501105  60.4924583  60.7728552  23.5090303  60.3449774
  59.5779967  23.1967473  61.2200594  27.3150921  67.0595884  47.7133989
  27.1862411  66.6019630  48.5441923  27.8866506  66.4817333  47.2077942
   6.5449048  15.4426400  11.8041356   6.8967200  14.6710889  11.3600953
   6.1012627  15.9349744  11.1134656  54.0599335  38.7724273   6.2908061
  53.2310323  39.1764800   6.5475114  54.0932504  37.9563014   6.7898734
  55.4901390  10.2456062   5.2096303  55.9119580   9.3866412   5.2314838
  54.9566645  10.2303188   4.4150193  82.2814370  78.1732873  46.0982545
  82.4581290  77.8967313  45.1990731  82.1213007  79.1146854  46.0322125
  53.0660487  74.2378072   1.6314776  52.6860857  74.1158489   2.5015290
  53.9890695  74.0081862   1.7388852  31.3421656  12.1465747  31.2390168
  30.7407452  12.8908508  31.2150319  31.0488011  11.6255824  31.9865068
   4.4784714   7.8113239  15.5452378   3.9053155   8.5490863  15.3368505
   4.8902394   7.5849168  14.7113259   2.3150992  32.1179748  63.9813948
   2.8761098  32.4832678  63.2972479   1.9764343  32.8826237  64.4470692
   2.4667741  31.7247979  20.9261735   1.6238285  31.4612834  21.2952741
   3.0776430  31.0475032  21.2165864  17.7887560  57.2672860  49.5055802
  17.7222992  56.3640574  49.1957505  18.3283783  57.7068201  48.8484223
   6.2242007  75.3063202  33.8465476   5.8485299  75.8781958  34.5159221
   5.9925735  75.7241440  33.0170894  68.8422513  59.6551553   8.8666232
  68.4268642  59.2513827   8.1046136  68.4610439  59.1991345   9.6169313
  73.6361789  48.8766623  70.0909853  73.0381918  48.1629705  69.8689651
  74.4572913  48.4396362  70.3168488  76.4445316  10.8572686  61.4936829
  77.3392009  10.9822309  61.8102026  75.9248280  10.7322180  62.2877216
  85.2676273  16.5408914   3.6022456  85.7424784  16.2038152   4.3619330
  84.3506528  16.5478866   3.8767274  12.9327869  53.4419441  64.0379286
  12.5877941  52.5724792  64.2409992  12.2040105  54.0364027  64.2160797
  74.3609678  46.4648533  39.1913080  75.1096606  45.9210205  38.9464879
  74.4222366  46.5421534  40.1434088   2.0060278   5.1667802   9.5698007
   1.8354703   4.7303169   8.7351449   1.3646389   4.7903173  10.1723989
  85.0865341  74.9594212  60.2586317  85.7185155  75.5018473  60.7304382
  85.1842957  74.0883446  60.6432152  63.8689602  36.1959426  19.2801316
  63.1875158  35.7186334  19.7534688  64.6824003  35.7512395  19.5184262
  17.6472807  39.1794920  59.9494362  16.8907857  39.5945764  59.5351267
  17.8964698  39.7813606  60.6507874  80.8935266  49.9742126  58.3241796
  81.4607715  50.3505373  58.9971113  81.4884299  49.4858170  57.7551508
  15.8534313   8.2740705   2.2539075  16.1590410   8.9697616   2.8360160
  15.7229782   8.7075298   1.4105065  70.6711806   4.7763746  20.8607991
  71.1492336   4.2046945  20.2600701  69.8870385   4.2785613  21.0921701
   7.5361563  17.2897451  15.6909974   8.4317900  17.3811261  15.3658517
   7.0200731  17.0746200  14.9140771  65.2113438   1.1879481  41.1848974
  65.5501986   0.3172339  40.9768963  65.1779843   1.2098063  42.1412659
  63.2150531  80.2350000  27.0489438  63.8020397  79.4803313  27.0025476
  62.8738475  80.3280834  26.1594804  59.3966112   7.5968950   9.9398835
  59.9564347   7.0560615  10.4969628  58.5049468   7.3674505  10.2016576
  40.6102407  73.1370214  37.0313771  40.9595979  73.1645635  37.9221280
  40.9840441  73.9073995  36.6035684   2.1731378  46.7099540  15.8858712
   3.0700732  46.8532913  16.1878522   2.0218397  47.4055259  15.2459271
  11.6245317  19.2954218  62.8486347  10.6998718  19.1854703  62.6269436
  12.0254254  19.6281719  62.0456409   2.7191402   1.5549104  21.9261392
   2.1908094   1.8806569  21.1974462   3.5312844   1.2549941  21.5178426
  21.6366792  68.1741858  61.1251831  21.9351864  68.2351923  60.2177668
  22.3190522  68.6144400  61.6319132  47.1392894  58.6396018  23.6901410
  47.9538370  58.1516460  23.8111527  46.4574004  58.0518082  24.0153440
  80.3374649   4.6163957  10.4176934  80.3338147   3.6761539  10.2383454
  81.1940933   4.7817914  10.8114751  82.9414984  68.6670303  69.9553776
  82.2668004  68.4268570  69.3202972  83.0557629  67.8824568  70.4916859
  76.3437379  21.0460441  43.9012750  75.6502796  20.9433191  44.5530351
  76.1894549  20.3396480  43.2740338  17.5418222  57.6015806  70.4325104
  17.1550083  58.4472275  70.2056074  18.4860218  57.7579355  70.4159975
  45.0584388  60.4452077  12.1527608  44.3941093  60.8335701  11.5834840
  45.8836019  60.8261970  11.8524488  62.8866012  29.0363281   5.4442294
  61.9369412  29.1175525   5.5324395  63.2192010  29.9175947   5.6144507
   1.5842844  12.3606174  20.6930860   1.6305162  12.8891914  21.4897664
   1.4542009  12.9974096  19.9903710  63.0166227  19.8008745   0.6942542
  62.9302651  20.7341735   0.5000051  63.9578129  19.6650712   0.8035691
  76.0778392   8.1287258  14.0949472  76.6887117   8.4735076  13.4436448
  76.4706469   7.3031108  14.3783124  16.6492200  68.7471870  18.3235009
  17.1045709  68.8787631  19.1551145  17.0077312  67.9283837  17.9810651
   0.5807047  19.8372161  20.6713915   0.8449742  19.4856381  21.5215588
   1.3395289  20.3387451  20.3732514  75.5002022  24.5413463  19.9261411
  75.2430440  23.7593047  19.4377549  75.1403225  24.4054668  20.8026441
  30.2228460  55.1259414  16.7251046  30.5052854  54.2299930  16.9087728
  29.6896258  55.3688995  17.4819978  39.4893420  19.8599212  20.0866063
  40.3467715  20.0361316  19.6993192  39.1290618  20.7264488  20.2751859
   6.7696406   4.0399425  20.7973321   7.4181129   4.6853750  20.5160268
   5.9298946   4.4094722  20.5243714  73.3135176  79.2356638   1.6585477
  73.4945727  78.3280925   1.9030078  73.7519455  79.3485693   0.8151801
  54.0977550  77.8412989  17.8985532  53.3265829  78.3169273  18.2072671
  54.6707917  78.5199550  17.5417836  10.5980921  40.3365278  56.3862610
  10.9641051  39.8715544  55.6338882  10.9733462  41.2153292  56.3304234
  59.2026782  58.6319009   7.8355821  58.9100814  59.5264498   7.6612170
  59.6032000  58.3465520   7.0143683   8.8984085  42.0791595  29.3428929
   9.7649218  41.7146747  29.1625054   8.3636070  41.3207023  29.5773442
  71.5082503   3.2436408  63.9813948  72.1219969   2.7920283  63.4020948
  70.7880354   2.6238955  64.0972614  27.0875145  19.4761436  30.4251702
  27.5550152  19.9146240  29.7142442  27.6123310  19.6577709  31.2047895
  49.3052406   4.3334882  37.9313691  49.9394173   4.5185296  38.6240514
  49.0193523   5.1964204  37.6316197  24.7332311  40.0480270  69.4818497
  25.6787920  40.0759888  69.6280146  24.3591976  40.4784393  70.2506590
  51.1465032  17.7321021  54.8742326  51.3320637  17.8572719  55.8048852
  50.4512430  18.3612697  54.6818860  42.1347082  45.4503912   5.2043088
  41.8342913  46.3334826   5.4190906  43.0872929  45.5277700   5.1511319
   7.5353504  21.3629167  24.2495759   6.6459466  21.6297834  24.4818910
   8.0939389  22.0514600  24.6102937   8.8930053  44.8957348  65.3432798
   8.7209153  44.5761204  66.2289762   8.5214943  44.2250538  64.7702217
  59.7677845  16.3290422  19.4795545  59.8436999  17.2473590  19.7387155
  59.9740712  16.3261239  18.5448487  17.7945495  11.2648332  62.0632839
  17.6039481  11.5187609  61.1602783  17.5405669  12.0261919  62.5848770
  13.4374928  43.9713812  66.9155121  12.5482106  43.6312103  67.0139742
  13.9618719  43.4505606  67.5237942  62.1301079  68.7684683  27.6758512
  62.1560288  69.4319943  26.9864305  62.8985501  68.9537910  28.2156499
  28.6129928  70.9751797  63.8978529  29.2399144  70.9705162  63.1745386
  29.1265821  71.2478018  64.6582031  37.2514731  68.0141167   4.0169509
  37.6137936  68.0978612   3.1349404  37.9396868  67.5765065   4.5180400
  73.3375157  23.4898345   7.6418860  72.8794623  22.6495521   7.6232703
  73.1001330  23.9103858   6.8154367  18.0414343  45.8207750  48.0284643
  18.7941957  46.2728930  48.4094810  17.2844601  46.3301802  48.3178234
  66.1224902   0.6181400  10.4481729  65.9158093  -0.1576359   9.9269326
  65.9060837   0.3678291  11.3463624  69.4323982  16.7829149  25.1630719
  69.8412848  16.9573037  24.3153508  70.0922693  16.2895458  25.6503041
  28.0179906  47.9673338  68.5157156  27.4476862  48.3067989  67.8259706
  28.4756589  48.7389517  68.8494444  47.2291994  43.0619764  64.6002579
  47.7138901  43.4245157  65.3417873  46.7471075  43.8072014  64.2418432
  74.8045063  69.8856596  12.2890504  74.6680260  70.1404861  11.3765367
  74.1978360  69.1584066  12.4279340  71.9735647   0.6885736  12.5915845
  72.1277488   0.9773605  11.6921075  71.3738144  -0.0524838  12.5057347
  74.2190243  35.7922714  34.1996606  74.8629499  35.6560056  33.5046704
  73.5557986  35.1191728  34.0470250  75.9760486  79.6389692  60.7321215
  75.9187125  78.6836778  60.7130623  75.6629180  79.9149408  59.8707151
  32.9070163   5.6637018  43.3676656  33.6117697   6.3076131  43.2974465
  32.9255939   5.3872363  44.2838891  51.0176945  39.6573114  64.5113277
  50.5063725  38.9636230  64.9279547  50.5730629  39.8153687  63.6785316
  65.6268882  66.1299992  61.4870596  65.7078743  65.2486372  61.8515825
  65.8877849  66.7099714  62.2024584  74.4561315   3.4904020  34.5103295
  73.8706434   3.4930723  35.2675851  75.2674223   3.8823478  34.8334630
  57.8737592  46.3068740   7.9527696  57.5251372  46.5121620   8.8202651
  58.7371867  46.7197864   7.9377587  67.2192812  72.2929195   1.6421254
  67.9049707  72.8734878   1.3119729  67.6714135  71.4701132   1.8286689
  70.5324615  14.2689578  31.0196622  70.9537924  14.8976438  30.4336007
  70.7449711  14.5816295  31.8990357  25.0729775  33.3709264  69.7411966
  25.9705305  33.0553794  69.8463678  24.7052908  33.3460450  70.6246090
  71.3250006  47.0195930  13.6622079  70.5260838  47.5419395  13.7337716
  71.2147034  46.3232868  14.3096765  72.4069547  72.6417065  58.9856005
  72.5122451  73.4388494  59.5049381  72.2469067  72.9551697  58.0954552
  19.0781033  41.0817862  33.1008601  18.8635099  41.7791748  33.7203979
  19.1229701  41.5212345  32.2516799  83.3246947  81.3299111  23.4279378
  82.9702950  82.2190837  23.4261640  83.5184384  81.1474637  22.5084718
  54.5259476  69.3153572  62.1669006  54.6067858  70.2677155  62.2190094
  54.5005322  69.1281319  61.2285328  15.3198028  32.8250885  49.7227478
  15.5266154  33.0717039  50.6242132  16.1704898  32.7760792  49.2866707
  82.5552681  27.8483605  67.8557444  83.0283540  28.6547375  68.0611134
  81.9762855  28.0880117  67.1321583  58.9251567  12.4133317   2.1504052
  58.9095488  12.3841207   3.1070312  59.6934528  12.9438655   1.9394858
  81.1647630  10.9712379  30.6175740  80.4996896  10.5580108  30.0669797
  81.1623884  11.8895738  30.3476079  12.2383381  16.1255758  46.3362058
  13.1611515  16.2363260  46.5650781  12.2535349  15.6900804  45.4839547
   4.3924549  56.1552572  51.7323303   5.1880795  56.5179443  52.1217823
   4.3019101  56.6169024  50.8987141   2.2651244  43.6184852   7.2770913
   2.3336698  42.6818816   7.4623044   2.5481011  44.0440242   8.0864556
  33.5877466  74.7518206  64.8534632  34.2402530  74.5008039  64.1996622
  33.2575727  75.5974531  64.5499372   3.2555581  43.5532348   3.4363015
   3.2717849  42.9800575   4.2027457   3.9160944  43.1862323   2.8487380
  23.8598943  81.5397167  61.0756540  24.7180724  81.2421703  60.7736158
  23.8618636  82.4827003  60.9113169  14.9756266  20.9556548  60.3390534
  15.7700993  21.4838378  60.2611478  15.2019812  20.2745311  60.9723409
  33.8208699  67.6066303  60.1823521  32.9883170  67.4452877  59.7384453
  33.7565351  68.5104179  60.4909897  68.4043492  23.8164823   5.7759126
  68.1394613  24.7344987   5.8334811  68.7599743  23.6150806   6.6414769
  74.5998884  20.1142280  17.4602540  74.8113240  20.3296964  16.5518983
  74.3512512  19.1902129  17.4355825  12.6483704  15.1273267  17.8024228
  13.2015873  14.7621887  17.1118768  12.4537255  16.0170858  17.5080140
   1.5271307   8.0397241  30.3556760   1.4133407   7.1144979  30.5730184
   0.6944944   8.2968967  29.9596913  68.1798840  79.9912433  66.7433293
  67.2981167  80.2062348  67.0474656  68.0498529  79.6345881  65.8646329
  66.1649538  16.4243524  21.7128690  66.0238869  15.6645076  21.1480935
  65.4787279  16.3597886  22.3770650  65.0745881  26.4890592  28.3719190
  64.6680618  27.2131507  27.8958352  65.8246995  26.8851631  28.8153966
   1.3517573  57.5007057  68.4756327   1.6487966  58.3734179  68.2179976
   0.5260825  57.6545811  68.9347792  11.3844038  42.7006500  26.0561402
  11.3223864  43.6086528  25.7596334  11.3874317  42.1850173  25.2496942
  24.5346665  79.2458105  57.9303885  24.6943903  79.5201874  58.8334036
  25.3142500  78.7446928  57.6908779   3.7481691  40.9889953  12.5898488
   4.5301439  40.4768913  12.3837121   4.0211130  41.5664928  13.3027585
  21.4317393  46.1268759  70.3305006  22.2737193  45.7829571  70.6288671
  21.6216993  47.0258904  70.0623226  52.0840991  37.9696433  18.5583718
  52.5598956  37.8116863  17.7429612  51.6693813  38.8230674  18.4322198
  61.0014290  27.7553384  38.1555589  61.4861358  27.3061673  38.8480504
  60.0853438  27.5327747  38.3213456  31.6991911  77.9538564  40.4010613
  32.5293377  77.6641015  40.7793935  31.7718402  77.7390126  39.4711144
   3.9844681   9.6748416   5.9422954   4.1777660  10.2516477   5.2032693
   4.7419263   9.7645013   6.5206130   3.8130952  44.2210166  12.8955110
   3.0326868  44.6171253  12.5078424   4.4744183  44.2695587  12.2052033
   6.6163899  12.5958364  38.3716233   7.3791290  13.1642501  38.2650216
   6.7900206  12.1108119  39.1783650  16.2144400  13.1575935  25.6611093
  15.5568958  12.8375165  26.2787087  15.7632710  13.1720369  24.8170312
  44.0264381  18.5101430   9.0510638  43.2040895  18.7817685   8.6433919
  43.8398851  18.5103814   9.9899037  60.1077962  63.2733945   4.6044763
  60.6823635  62.5674204   4.9006303  59.8718739  63.0305461   3.7091573
  67.5959606  48.1232612  12.9347547  67.3533977  49.0460651  13.0111344
  67.6064081  47.9555576  11.9924195  18.4809995  42.7090073  68.9690208
  18.3241892  41.9447136  68.4144974  18.3873057  42.3796654  69.8628807
  22.7146317  24.3699424   0.4512866  22.9854609  24.8156707  -0.3513400
  22.0041538  24.9101369   0.7971795  85.6707788   7.3526780   8.5463174
  84.8435474   7.3963325   8.0667193  86.1481930   8.1357114   8.2721551
   9.9690128  75.0200323  47.0491918  10.9084297  74.8834661  46.9264062
   9.6304012  74.1566161  47.2860177  78.5943914  49.5749633  33.5964139
  79.1217304  48.8937824  33.1791051  78.7486220  49.4567268  34.5336850
  30.7680107   2.9559295  29.4535096  29.9835039   2.8360717  29.9886830
  30.5454041   3.6725919  28.8593133   3.6648966  74.5155672  12.5931962
   3.6021257  74.6500663  11.6475709   4.1461969  73.6934809  12.6867612
  18.8149668  21.8651788   2.1005424  18.0546213  21.7732065   1.5263970
  19.5065476  21.3681571   1.6636022   4.9919498  74.8001289  46.2884045
   5.5862868  75.3141832  46.8349743   4.2534065  75.3856802  46.1213207
  64.6490622  34.8735540  46.1173280  64.2440427  35.7150094  46.3274320
  64.0427197  34.4632022  45.5007299  85.4747940  11.3184564  15.8847268
  85.0926662  11.9414012  15.2665456  84.7364856  11.0300414  16.4213403
  63.7936122  38.8336437  24.2434056  63.0959309  38.1817930  24.1758473
  63.4320331  39.5134036  24.8121007  28.4252810  58.8157606  66.0872889
  28.3326268  58.4780550  65.1964426  27.5324202  58.8303089  66.4319897
  15.9058024  34.5121114  28.3210977  14.9837280  34.3647115  28.1106599
  16.3123728  33.6500518  28.2329019  64.4914722  46.6739225  69.8305035
  64.9785089  47.1510839  69.1586828  65.1651764  46.3389158  70.4222202
  54.7077096  20.8486669  39.2924436  55.0983662  21.7224901  39.2849954
  53.9567573  20.9270351  39.8807939  80.1079202  29.9673478  17.2641595
  79.1668630  29.9190109  17.4323972  80.1980329  29.7372167  16.3394101
   8.6578966  38.1996124   2.4137052   7.9878117  37.7100198   2.8906949
   8.9152266  38.8999097   3.0133613  86.5890885  37.8593175   4.8506005
  85.9080554  38.5313384   4.8791631  86.9036294  37.7985875   5.7526000
  70.2374328  41.4484470   8.6529239  70.3544629  41.0451476   7.7927621
  70.4350782  42.3743884   8.5122092  70.8496117  68.7464046  42.6333952
  70.3330540  68.6541891  43.4339571  70.4872822  69.5204782  42.2023964
  40.7292593  43.5850208  16.9554170  40.3682340  44.3893783  16.5827020
  40.4692317  42.8986041  16.3410409   9.9242617  26.9243162  27.9448541
   9.5319034  27.1909778  27.1134885  10.5815221  27.5962131  28.1259473
  51.6788555  71.5888718   4.3574317  51.6180063  71.8083886   5.2871306
  52.2371388  70.8117942   4.3308528  82.6067878  18.3763378  36.3658841
  83.1799126  17.8144042  36.8874200  81.7257858  18.1834094  36.6865857
  82.5320674  70.9782569  14.4777520  83.2147170  70.8321254  13.8228734
  82.6608158  70.2786033  15.1181729   8.4000565   1.1170785  12.4563916
   9.3297816   1.1729352  12.6771386   8.3414651   1.4801900  11.5726789
  30.6011510  60.3708839  66.5752077  29.8044181  59.8444557  66.5094662
  30.3323340  61.2475348  66.3005161  66.3260020  20.3468196  15.3174050
  65.6742985  20.8190601  14.7992261  67.0152462  20.1253955  14.6911843
   3.3848764  15.0102870  55.1195367   3.6684586  14.5910709  55.9319909
   3.8684894  15.8359592  55.0945981  60.1741243   8.8074625  68.9798117
  60.0068140   9.6351565  68.5290670  60.9403468   8.4437502  68.5361433
  16.7384888  11.7705409  20.5543073  15.8945061  11.5777747  20.1459439
  16.9062544  12.6873414  20.3362210   5.2315308  35.5110853  17.4722703
   5.1114727  36.4526717  17.3488553   4.5817734  35.2713601  18.1330140
  38.1055809  41.8846576  16.4680894  38.4002091  42.3117702  17.2724565
  37.1933724  41.6517417  16.6408761   5.9211518  56.6747730  22.5172265
   6.3423969  57.5254028  22.6405461   6.5568377  56.0420005  22.8514894
  73.5897864  47.4813526  19.7699197  73.0031658  48.1458251  20.1312860
  73.0050469  46.8372886  19.3705590  85.8793045  27.4599187  42.8560098
  86.2189985  27.5165765  41.9629129  85.1478482  26.8454711  42.7955182
  12.5085331  29.1772239   5.2830442  12.0913340  29.8622672   4.7606500
  11.9682623  29.1141431   6.0706695  64.5908356  74.2382578  40.0363477
  64.3707180  74.9671677  39.4562848  64.1816044  74.4647554  40.8714898
  31.5020064  80.3969554  21.6714604  31.1478402  80.6502012  20.8190187
  32.4468276  80.5241588  21.5856584   2.7702190  48.6895244  30.5564435
   2.6957728  49.2221229  29.7645886   2.8343035  47.7901714  30.2350362
  72.6562179  18.6732166  39.4576009  73.1310893  19.4131486  39.0791448
  71.9127072  18.5398452  38.8696988  78.1031109  66.9933956  39.4347222
  78.3472157  66.5484588  40.2463086  77.3986364  67.5887935  39.6905454
   7.9486538  33.1670348  26.2354215   8.8270618  33.3569543  25.9059270
   8.0045654  32.2693126  26.5628369  84.1082121   7.4321143   0.8277448
  84.4103027   6.7464893   0.2320226  84.4375826   8.2448976   0.4441722
  14.3997599  34.6090238  13.0734284  13.7794424  33.9036243  12.8894265
  14.7907616  34.3709104  13.9140542  25.3891683  20.7793617  69.5915031
  25.6889939  20.0407314  70.1213741  25.6248927  20.5420589  68.6946487
  77.4858881   6.0253064  10.3096421  77.4247802   5.5204551   9.4987042
  78.3813835   5.8803623  10.6151135  83.4934855  47.8268497  28.4726747
  84.0145446  47.0805805  28.1763490  83.0168415  47.4985282  29.2350705
  44.3332624  57.7524757  59.5358086  44.2477560  56.9277573  60.0140905
  44.2743683  58.4282351  60.2111721  70.6105519  71.4663605  28.8708718
  71.3820124  71.2295393  29.3856462  69.8689604  71.2011865  29.4148953
  78.6120177  37.5387065  17.0011361  77.8339864  37.5798051  17.5572045
  79.2952109  37.9720132  17.5127252  41.8334473  69.4589762  17.6233991
  42.5922394  69.5715169  18.1959374  41.5663159  70.3509978  17.4016603
  11.3481928  13.1295507  13.1114228  10.4364301  13.4146612  13.1716569
  11.8513895  13.9428823  13.0723603  26.4341332  70.8635776  14.0846093
  26.2550951  71.4239185  14.8397286  27.2793175  71.1688201  13.7548860
   8.5007764  39.3399589  12.0235665   9.0660859  38.7213390  12.4861272
   8.9564134  39.5105617  11.1992391  31.5634966  48.2686424  69.8618793
  32.1400619  48.8121462  69.3248463  30.7435918  48.7605810  69.9063969
   1.3287569  44.6101348  43.9812215   0.7036115  44.2608516  43.3460649
   2.1845676  44.4742172  43.5745938  15.5130887  63.4073591  68.2794714
  14.7464824  63.8993692  67.9854155  15.6096756  62.7065229  67.6346970
  81.2926555  23.8432519  25.7849916  81.3808513  24.7929685  25.7044538
  80.6345392  23.7209956  26.4692243  13.7100494  36.3607121  55.4268360
  12.8082669  36.6477442  55.5704784  14.2141426  36.8043518  56.1089659
   3.4309555  15.7427157  62.3515129   3.6064888  15.6018103  63.2818699
   3.6683155  14.9143065  61.9348383  81.2003685   6.8616693  18.0315908
  80.4043985   7.3898618  18.0922063  81.5578700   6.8644636  18.9195188
  15.9138811  81.0140399  10.0822671  16.3174725  81.5976886  10.7246812
  15.3373874  80.4511193  10.5989965  53.8887314  37.0163600   9.7009690
  53.4046564  37.8227632   9.8788007  54.6576310  37.0684259  10.2686914
  44.7713400  27.2369401   0.3254636  45.2043129  26.4022653   0.1463302
  45.4605890  27.8923147   0.2175077  19.6930408  61.1008215  64.9599695
  19.4925010  61.4830828  65.8143044  19.9719226  60.2066374  65.1571751
   8.9919759  45.8530013   6.2781747   8.2624317  45.2337997   6.2539514
   9.2475105  45.8861224   7.2000392  42.7547730   7.1981971  13.9737638
  43.4045184   7.7934091  14.3476422  42.1795858   6.9802205  14.7071679
  60.4322288  20.5267541   5.2053674  59.5714389  20.2385347   4.9017222
  61.0331140  20.2609222   4.5093043  14.3885923  81.8845586   1.1781915
  14.6621025  81.7229918   2.0811399  15.1242388  81.5798835   0.6469424
  55.9919826  35.1881139   9.7530873  55.5882639  35.6519811   9.0195497
  56.2381261  35.8796279  10.3674539  19.6576572  23.7622897  28.1328519
  20.4018856  24.3068998  27.8764279  19.1023255  24.3443982  28.6514981
  23.6504151  38.0765407  20.4719766  23.0789591  38.0609338  21.2397130
  24.1140820  37.2396581  20.5014642  32.0522000   6.9555776   9.8858197
  32.2385002   6.1800020  10.4149755  31.5563227   7.5300710  10.4691632
   7.1241118  49.6964614  47.4893697   6.2181522  49.3952529  47.4204953
   7.5485016  49.0517013  48.0554135  74.8221243  27.8489988   2.4453815
  74.9105585  27.0947521   1.8627008  73.9085651  27.8258388   2.7301724
  43.2672239  78.4001497  33.6500772  43.9029432  78.1838564  34.3322118
  42.4183846  78.3521823  34.0898545  81.3939501   5.3012435  59.7280725
  82.1193696   5.8873813  59.5125802  80.6741787   5.5957477  59.1700109
  59.0902352  47.0546787   4.1312249  58.5301008  46.4643829   3.6272033
  59.4766471  47.6357906   3.4760745  38.2826115  35.2285688  14.7077592
  37.3605086  35.1953761  14.9624284  38.6817719  35.8347528  15.3318151
  71.6557503  65.1115227  66.7218304  71.5264511  64.5063734  65.9915495
  72.2995138  65.7421637  66.3992023  35.1407933  80.1940250  33.4944606
  34.7954202  80.5336666  34.3200469  35.5219626  79.3467426  33.7247896
  14.3220640  18.6840694  21.7175992  14.4020201  17.7317016  21.6643270
  13.5800434  18.8296716  22.3044808   0.5237986  22.3669498   7.4696477
   1.1328651  22.7800815   6.8576081   1.0753585  22.0727651   8.1945403
   5.5312372  31.5759723  45.0178559   6.2754275  31.2676208  44.5008119
   4.9195029  31.9276349  44.3710549  12.0544791  34.2626452  46.3282204
  11.5509164  34.4082165  45.5273056  12.9294550  34.0252042  46.0211849
  64.8744750  65.6413702  38.1927236  64.7188497  65.5112819  37.2572644
  65.7554841  65.2969579  38.3391221  77.7540780  27.6790111   1.1290057
  77.0063699  27.1510236   0.8490165  77.9208613  28.2674854   0.3927215
  33.5178305  12.4909179  21.8749173  33.0333544  12.0509164  21.1764081
  34.2308975  11.8888824  22.0877870  84.3215037  33.4258811  14.6676000
  83.9374066  33.5367839  13.7978871  83.8198686  32.7122705  15.0617536
   4.7572805  56.0648506  20.1431401   4.6027471  55.1445453  20.3562100
   5.3320457  56.3790386  20.8411058  48.2812620  36.9633071  14.3788560
  49.0592743  36.7880838  14.9082120  47.7977205  36.1372297  14.3829949
  51.9495750  17.3057116  69.3910313  51.6021109  16.5691508  69.8940039
  52.7635861  17.5380648  69.8378325  54.8344160  48.6665981  11.5477307
  54.5714976  47.8655021  11.0945828  54.5148874  48.5514419  12.4426396
   3.5806013  19.0757387  35.9580262   3.1505967  19.6097009  35.2900346
   3.4493567  19.5602720  36.7730268  62.4605373  21.2234466   3.5074599
  62.7193678  22.1060674   3.2424863  63.1193984  20.9638183   4.1514571
  14.2145658  39.9382210  66.8890095  14.3460393  40.8647680  67.0901585
  14.6660948  39.4737267  67.5937080  18.1740618  20.2465558  66.3809872
  18.3600354  21.0744691  66.8239403  19.0364707  19.8885143  66.1705399
  85.2407766  21.0125749  28.8962968  84.4807840  21.5392654  28.6488469
  84.9604202  20.5413787  29.6809037  81.3264453  48.8032532  70.6037378
  81.0419750  47.8893042  70.6032419  80.5428379  49.2981291  70.3643847
  84.0085865  37.4229495  21.3659604  84.1896296  37.3944585  22.3054536
  83.2995249  36.7925041  21.2394555  73.7515903  52.3066776  12.3203691
  74.3719078  51.5783279  12.3511537  73.7661064  52.6712100  13.2053216
  81.5727020  13.6268775  13.2341607  80.8485318  13.2657783  13.7454446
  82.2740818  13.7584703  13.8721116  15.2140356  49.2298953  29.3859132
  16.0740877  49.0845268  28.9917024  14.7007586  49.6469085  28.6938985
   0.1761223  24.8388021  14.8327287  -0.2326654  24.0182226  15.1079972
   0.2857472  25.3355758  15.6435426  58.8261223  76.0945944   9.7233613
  58.5347462  76.9459013   9.3968518  59.1046739  75.6201962   8.9400418
  36.4336897  56.5084903   9.9964269  35.7353474  55.8655708  10.1197274
  36.6443230  56.8060272  10.8814843  68.1189919  16.4828651  13.2747396
  67.4162001  16.4732091  12.6249536  68.3756507  17.4029605  13.3362897
  13.1446660  56.4302254  64.8911572  12.4899089  56.4177990  64.1930389
  13.7183595  57.1633768  64.6684504  32.9922843  41.0849190  67.7380943
  32.9458261  41.9694185  68.1010485  33.7326741  41.1132860  67.1320820
  62.9596448   0.9936846  52.4817324  63.4795928   0.1901186  52.4947500
  62.1696473   0.7599295  51.9944048  22.3760582  27.6150863  32.4013360
  21.6958929  28.2672469  32.5695642  22.2090937  26.9240682  33.0423005
  39.0725351   5.1760928   5.6446584  39.9725235   5.2786558   5.3352483
  38.7297607   4.4362228   5.1433261  24.5312834  69.0400839  55.9170675
  23.9437914  69.7917318  55.8388805  25.2734947  69.2564821  55.3526878
  24.6878458  19.0726583  12.8780301  24.0129210  18.7004869  12.3104127
  25.3947140  18.4273784  12.8645356  35.2780415   2.6284520  19.7884210
  36.0763098   2.7103202  20.3102525  35.3284622   3.3478944  19.1590722
  32.2622514  76.9169950  59.9354362  31.9928432  76.3478327  59.2145252
  32.6612091  77.6740885  59.5066309  13.1777598  24.5477788  16.7592462
  12.8953530  23.6482208  16.5940888  13.1146027  24.9789398  15.9069856
  16.2600018  58.3564060  36.0974248  15.8107830  58.4115951  36.9408639
  15.5906893  58.0418746  35.4897149  69.7607565  69.6310405  22.2688420
  70.3874541  69.6271471  22.9923566  70.0113392  68.8800148  21.7308839
  67.9713691  38.9975898  23.0225690  68.1673825  39.7244136  23.6137898
  67.4529267  38.3914916  23.5518106  45.6725347  32.8035773  61.6491270
  45.8005071  32.5154341  62.5529099  45.3625572  32.0227374  61.1904001
  47.3622764  22.4323405  66.0883093  48.3167315  22.5033129  66.1027575
  47.0939637  22.9630221  65.3382349  19.7185875  57.6074569   2.1855052
  19.6471478  58.0060451   3.0528291  19.6414925  58.3423774   1.5770848
  22.9889704  34.8065107  33.9126523  22.1486355  34.4166009  34.1535695
  23.5669018  34.6033876  34.6481641  10.4065348  55.7262294  24.3288835
   9.5641948  55.7706420  24.7813447  10.9978248  56.2476222  24.8718007
   5.5981852  28.3179347  11.9396432   5.3555871  27.8905027  11.1182530
   4.7897483  28.7315290  12.2423013  68.4970773  36.5757148  17.2512849
  68.1748510  36.4363830  16.3607820  69.4443620  36.4554565  17.1847756
   5.0895621  15.6498830   0.2515729   4.6676971  14.8189990   0.0327189
   4.3632389  16.2536447   0.4069932   9.9200822  73.8137691  19.2874368
   9.5218064  73.7466209  20.1552518   9.8698450  74.7451179  19.0722592
  80.2396799   9.0011947   6.4429648  80.3999162   8.1396882   6.8281396
  80.4377890   8.8885085   5.5132945  -0.3080128  75.3407924   0.1646598
   0.1846029  75.7382839   0.8826860   0.1538469  75.6197898  -0.6259553
   5.0966479  22.5901477   8.8253625   4.7579790  23.3117978   9.3552239
   5.1199557  22.9379480   7.9338916  38.0502821  22.4922626  20.1759465
  37.7218081  23.3755128  20.3439076  38.3361841  22.5126998  19.2626699
  40.0671947   4.1485728  69.8940802  39.2177427   4.5205725  69.6568489
  40.3798306   3.7335242  69.0901995  47.3808648  20.6765848   9.6729978
  47.5056769  20.7068830  10.6215413  48.1783797  21.0655313   9.3139394
  77.8148092  54.8781936  15.4476388  78.2054735  55.2877586  14.6757062
  78.1037713  53.9665572  15.4071839  82.4515296  32.3963516  18.0981286
  81.7280269  32.2959726  17.4794992  82.0385195  32.3448722  18.9600976
  80.6667186  60.0509803   5.1955445  80.4494191  59.5802753   4.3908961
  79.9176074  59.8989456   5.7716973  71.7950964  54.7050619  67.4154377
  72.5306416  54.1453075  67.6641893  72.0060301  55.5592918  67.7923155
  41.8265152  23.4691334  64.2011118  42.3534775  23.9070606  63.5327053
  41.3742733  22.7697492  63.7293434  75.6739987  49.0052383  39.4209035
  75.3776921  48.1574504  39.0897115  76.1219824  49.4093864  38.6777909
  82.8003121  39.4880836  28.8514073  82.4087454  40.0484721  29.5213826
  82.3053337  39.6841400  28.0559285  70.7321525  64.7549598   4.8108323
  71.0799623  63.8754337   4.9581225  71.1892009  65.3031795   5.4486402
  73.6018837  53.8484351  30.0032456  73.6664665  54.7146766  29.6011289
  73.1244362  53.3217971  29.3622048  10.0846006  47.2891681   9.2097600
  10.5075051  48.1384914   9.3363698  10.8082391  46.6632907   9.1804059
  52.6708055   3.5989989  50.1274061  52.0484805   3.9929713  50.7387447
  52.5603509   2.6558436  50.2477503  79.9972869  49.4791858   6.1163934
  80.5493308  49.4708984   5.3344663  80.2711964  50.2617709   6.5946849
  84.9530506  17.5733031  65.4064703  85.1410580  16.6651762  65.6435156
  85.3217745  17.6729907  64.5287848  86.4004493  20.9461610  33.9454587
  86.9240070  21.1545675  34.7192033  86.9412900  21.2273710  33.2074483
  26.8084742  11.6947191  15.8195718  25.9624983  11.6664378  15.3726228
  26.8682362  12.5861947  16.1629899  80.9875346   8.0448310  10.4774125
  80.6045247   8.1046789   9.6022256  81.9191957   8.2189576  10.3435548
  11.5008141  60.5473678  12.4256738  11.4877344  59.8726814  11.7468007
  10.6416155  60.4841010  12.8428109  44.9809957  69.8699526   9.6589978
  45.8808649  69.5447639   9.6321328  44.8199046  70.2021245   8.7758525
  77.4912942  62.5125663  18.8258393  77.0852650  63.3261649  19.1249021
  78.4299279  62.6538341  18.9493020  49.7795272  42.2299613  63.5437298
  49.5073200  41.4808978  63.0136061  48.9607096  42.6004446  63.8731384
  23.7906338  31.2791269  35.1343663  23.3397747  30.5702607  35.5931409
  23.6716582  31.0775344  34.2062314  68.2400084  79.4799519  46.0664797
  69.1610670  79.2194128  46.0682583  67.8392935  78.9480019  46.7540026
  22.7628065  15.8224742  16.2006314  22.2791172  16.3497178  16.8364747
  23.5106875  16.3678472  15.9567578   5.5778838  38.4945171  34.4382318
   4.7186519  38.1595342  34.1818364   6.1998202  37.9681794  33.9358457
  79.0891028   3.6376588  26.4228185  79.0411092   2.7216213  26.1493047
  79.3097902   3.5985200  27.3534043  75.7666313  28.2319427  52.8268623
  76.2728369  28.4814024  53.6000109  75.9484589  27.2991872  52.7122450
  18.2083523   2.8156433  69.0006208  17.4174881   2.8396088  68.4619284
  18.4275699   3.7360984  69.1453218  82.7894944  22.8230524  40.3845358
  83.6252874  22.5509596  40.7635403  82.3386782  23.2746696  41.0980034
  76.2967181  19.5732260  59.5022440  76.1818075  18.8143051  58.9303446
  77.2354579  19.5929897  59.6882725  70.7998204  36.4332771  47.4673986
  71.0754001  37.2059536  47.9606104  69.9201726  36.2424445  47.7930307
  69.5973097  74.0008848  27.5356603  68.7344288  73.8796913  27.1394515
  69.6336793  73.3480840  28.2347727   5.6381274  59.3361524   7.3239406
   6.2591243  59.8269526   6.7856916   5.5282498  58.5038308   6.8641599
  26.8297124  23.6622453  49.4762087  27.7352214  23.4440923  49.6968794
  26.7176151  23.3423591  48.5810328  58.1073881  69.1911844   9.9037774
  58.3832050  69.8700599   9.2879232  57.9623509  68.4178666   9.3586381
  77.4276280  79.5892640  62.7947617  76.9233083  79.6452855  61.9831228
  76.8288397  79.1827991  63.4212351  24.5447850  26.3730001  56.4212561
  24.2731953  25.4938245  56.6849232  24.6202278  26.8570781  57.2435760
  10.9585309  36.4772868  55.2293682  11.2394977  35.5622506  55.2299786
  10.0630391  36.4530945  55.5666208  37.4731207  18.6014009  44.1835022
  37.9222536  17.7834857  43.9701319  38.0366254  19.2854619  43.8219023
  82.0820844  20.5443072  38.9248657  82.8918719  20.0374913  38.8647580
  82.2775995  21.2338018  39.5593762  82.9212355  74.8184990  36.6582847
  83.6605930  75.3490918  36.3615465  82.4163579  74.6455406  35.8636689
  74.0549635  28.8052964  62.6853848  74.7042501  28.2433462  63.1083155
  73.3819198  28.9380288  63.3529377  17.3446238  50.0520515  62.8791189
  16.6809630  50.7208681  63.0478621  17.3190367  49.4887304  63.6525822
  39.2175364  29.6215391  55.6858063  38.5107684  30.2476525  55.8429527
  39.2251968  29.0680289  56.4667034  68.1533336  79.0950729  63.2028055
  67.8826737  78.1813841  63.2930708  68.2288348  79.2303081  62.2582197
  49.0670824  51.6619579  13.5034497  49.1999293  50.8554045  14.0015061
  49.9367977  51.8842760  13.1711801   8.5441846  27.1910644  24.9423814
   8.8960648  28.0806708  24.9106026   8.9467406  26.7474532  24.1957951
  68.1314326  66.0701970  15.8071168  67.6128245  66.4760522  16.5017732
  67.7977491  66.4610866  14.9995931   3.8850161  22.9501271  37.4699283
   4.3523934  23.4824729  38.1136656   3.9950833  22.0505071  37.7778268
  38.5483194  81.3519648  20.4725869  38.0120802  81.4907864  21.2532266
  38.8924605  82.2197322  20.2609857  18.9410526  81.9830636   6.8158992
  19.8624522  81.7797355   6.6549190  18.6312139  81.2672595   7.3707421
  11.0690021  66.3730918  67.6843834  10.8809065  66.4365636  68.6207676
  10.2751684  65.9954034  67.3056841  19.3556345  19.5417714  47.7486515
  19.0387070  18.7677121  48.2140732  18.6212015  19.8052824  47.1942091
   5.1386458  24.4956565  64.0124226   4.4687214  24.7432923  63.3751535
   5.9651345  24.7507977  63.6024809  13.8959968  55.5549852  22.0708211
  14.3579054  54.9723784  21.4679654  14.1781593  55.2721266  22.9406579
  58.2498002  66.8072656   1.7410310  57.6447344  66.1341337   1.4295514
  58.2991863  67.4364690   1.0213836   3.6160046  27.2988319  36.6052437
   4.1897607  26.6812778  37.0587420   4.1539797  28.0813026  36.4846087
  83.4844447  30.8091120   2.0893033  83.9895058  30.2730874   1.4778932
  82.7800370  31.1796377   1.5575536   5.9352201  21.6988325  39.3441391
   6.4649105  20.9098434  39.2294264   6.5727240  22.4118161  39.3825340
  63.9765930  17.1300316  26.8991208  63.8424110  18.0203414  27.2240424
  64.6245884  17.2249568  26.2010336  47.3567486  19.7844613  69.6666336
  48.2348347  20.1403713  69.8027611  46.9878244  19.7137582  70.5470467
  78.6458063   9.0064305  43.3601046  78.4907001   9.8238099  43.8334608
  79.3910908   8.6073864  43.8090467  70.6628943  57.3647300  42.4503739
  71.5954161  57.1582452  42.5136216  70.2695179  56.5809575  42.0667203
  56.9885993  54.4972829   5.3900178  57.3085881  54.8774568   4.5719035
  56.0481453  54.3860451   5.2507146   6.0584480  14.2467237  53.9793396
   5.6144679  14.9586904  54.4400072   6.8600482  14.6444619  53.6395264
  42.9436922   2.8784376  47.8746462  42.9138231   1.9217050  47.8730392
  43.6950493   3.0955362  47.3227787   1.1935125   7.1787775  58.5674572
   1.3005091   7.8418946  57.8855038   0.2490576   7.0289582  58.6097765
  13.1362963   7.9662979  36.7543530  12.9714167   8.8579470  36.4477444
  14.0591431   7.8107256  36.5533996  53.6181224   0.6800477   6.1500819
  53.3660430   0.8156602   5.2366813  54.4891895   0.2861183   6.1021979
  47.8317190  -0.1966794   2.2574790  48.5305984   0.4209440   2.0422109
  47.6905740  -0.0806697   3.1970771  32.1245493  53.9660652  70.2818475
  32.6697232  53.6658831  69.5545871  31.5713324  54.6480186  69.9008986
   8.7431621  65.9292816  45.7363605   8.7884760  65.0047266  45.4926872
   9.6171903  66.2701665  45.5463505  17.5151372  43.9063514   4.0051110
  17.9478968  43.3069330   4.6130975  17.0919383  44.5544530   4.5682271
  56.6540933  58.7712554   5.8281262  55.7889867  58.5854915   5.4630073
  57.2667909  58.4753493   5.1548703  66.2926490   9.4008844  18.4711106
  67.1541084   9.6711032  18.7890847  66.1266977   9.9678008  17.7179177
  47.3676718  59.8674516  34.5209630  47.8875149  59.0940718  34.7397836
  47.2332561  59.8059646  33.5752519   0.8384138  51.3421488  15.2873564
   0.7740091  52.2970867  15.3008652   0.0510900  51.0555172  14.8245454
  15.9352636  56.3014412  66.2618685  15.7938194  57.1012592  65.7553911
  15.6354737  56.5204716  67.1441317  49.2366577  58.9392678   2.6806100
  48.4272540  58.9183561   2.1700604  49.0397072  58.4241835   3.4629949
  84.9482181  51.2086201  43.8978100  84.1988998  50.6634951  43.6578274
  85.2780453  51.5429878  43.0637550  19.1788614   6.6288126  53.5961533
  19.3595123   6.5786660  54.5348120  19.9049616   6.1580497  53.1870174
  17.6449132  26.7244911  53.4873295  17.9407501  27.6335168  53.5361862
  17.8160822  26.4652419  52.5819445  70.6205786   7.1004407  22.4706395
  71.5147031   7.4092119  22.6170476  70.7251180   6.1975734  22.1704133
  66.6245914  62.0853094   5.4726060  67.3568035  62.3765782   4.9292262
  65.9857774  61.7403392   4.8487933  70.8890438  52.2666339  10.0297101
  70.6255961  51.7116538   9.2956574  71.2878657  53.0337302   9.6189340
  72.0595456  63.7894205   1.1407025  72.7960396  63.7906746   0.5293067
  71.9028473  62.8632954   1.3250192  53.2752419  57.4740425   1.2348302
  53.4122634  56.9427291   2.0191510  52.5647927  57.0337097   0.7683547
  58.5722304  60.6544284  27.9411634  58.9018560  61.5330461  28.1298764
  57.6776290  60.6559936  28.2816251  20.8745349  69.2754678   3.1501229
  21.3918394  68.9021090   3.8637288  20.8659721  68.5936598   2.4783357
  34.2065096  39.1251135  69.1827869  33.5170293  38.4914041  69.3809319
  33.8558388  39.6415257  68.4571314  69.6755946  13.8387410   0.1946099
  69.5147336  13.6163108   1.1116059  70.4655708  13.3496206  -0.0354640
  35.2877635  56.5038530   7.2628434  35.5098838  56.7011908   8.1727584
  35.5050946  57.3038677   6.7843278  83.7310814  33.2563782  37.0485973
  82.9533934  33.7140536  37.3679209  83.9351779  32.6225138  37.7361965
  12.6877475  33.7742996  59.2406082  12.2773576  33.7982702  60.1050377
  13.6060548  33.9882612  59.4054270  22.9224205  24.1208720  59.5489883
  22.2859168  23.4556532  59.8108625  22.5072289  24.9526072  59.7771645
  58.2959152  69.1264657  31.1401017  57.6812840  68.5704736  30.6612142
  59.1593910  68.8433889  30.8392652  11.1890292  24.1125989  65.6501722
  11.0399187  23.1683969  65.6999636  11.7205203  24.2299533  64.8627853
  79.6104933   0.6053607  30.1596578  79.6995068  -0.2781136  30.5171235
  78.9401675   0.5228774  29.4813569  31.6350726  70.5256680  29.0919145
  32.4916119  70.1791552  28.8419183  31.8260867  71.3797335  29.4796212
  24.1775775   5.0936246  42.1456861  23.7040424   5.5169541  41.4295959
  23.5802245   5.1459438  42.8917885   2.2762172  38.6018729  63.1030464
   2.3631863  38.4501982  64.0441418   1.3360259  38.7166071  62.9648113
  85.1493957   4.1407239  43.4824610  85.4178498   4.5092073  44.3241167
  85.1728262   3.1933662  43.6173534  23.9056873   6.7206687  52.4094391
  24.4856787   6.4744449  51.6888714  24.4281602   6.5746093  53.1980562
   8.5499281  51.9106865  70.8677244   8.2892692  51.7040730  69.9701691
   9.4996554  52.0209360  70.8219624  33.8428039  53.1307391  13.4043916
  33.1926340  52.9361454  12.7293809  33.3378956  53.5209278  14.1178735
  54.6597958  52.1794192   2.3929580  54.6541834  53.1197504   2.5717862
  54.1526342  51.7964593   3.1087525  46.8150008  58.0874757  15.9447034
  45.8621371  58.1228808  16.0285314  47.0995474  57.5390569  16.6757997
  30.2328061  73.0783323   4.4016107  31.0006285  72.8681401   3.8701041
  30.5187635  72.9331068   5.3034814  62.9541666   5.7864635  15.8431848
  63.1871802   6.4833467  16.4566072  63.7751222   5.3192346  15.6884034
  64.8975373  74.9391440  23.8527711  65.8176017  75.1510934  23.6953195
  64.9129057  74.0457276  24.1959889  38.1933975  22.2406507  37.8596830
  37.6667452  21.5363050  37.4818349  37.5534797  22.8321648  38.2557225
  34.0722942   4.6492535  55.9734917  33.3582354   4.0119290  55.9604597
  34.8658562   4.1184598  56.0423946  31.6140250  65.8224539   4.1312774
  31.2015510  66.5226010   3.6254199  31.0048281  65.6557802   4.8505338
  69.9364233  71.1668328  26.1576493  68.9935494  71.1060265  26.3110288
  70.3100682  71.3285784  27.0239385  60.3971625  62.6446322  10.9022553
  60.3152752  62.8737739  11.8280156  59.4948364  62.5989465  10.5861028
  55.6742454  62.0348815  16.0993608  56.4051462  62.4344472  16.5709146
  54.9692107  62.6794819  16.1597665  65.3096271  25.2742498   7.0776160
  65.9556568  25.9012430   7.4028237  65.0900591  25.5895631   6.2009175
  30.0209757  61.3971714  14.8965104  29.4896959  61.6929082  14.1572507
  29.4682798  60.7599083  15.3489049   7.5568062  19.6314359  53.3810759
   6.8620145  19.0265191  53.1211281   7.4700457  19.7015524  54.3317509
  16.4925373  31.2357330  67.7619743  17.4305058  31.2252092  67.5713539
  16.1386669  31.9134355  67.1860170  56.2249542  63.7683228  12.4454053
  56.9401217  64.3873171  12.2983869  55.5096770  64.3053321  12.7863343
  60.9376955  67.4881080  19.7637399  60.2630997  67.8513841  19.1899903
  60.5026818  66.7664889  20.2178987  32.7142874  37.3936049  17.9652246
  32.6122645  38.1334481  18.5639318  31.8559665  36.9699488  17.9595597
  19.4108581  79.6253852  52.7078915  20.1205492  79.4729779  53.3318663
  18.6343002  79.2643892  53.1355238  25.3406072  27.1713328  69.1887188
  25.0709438  26.2729192  69.3794107  24.5307517  27.6167703  68.9398193
  68.9964199  54.8151842  16.4016946  68.5127545  54.9630717  17.2143682
  68.5553837  54.0706352  15.9925969   2.2626056  32.0660663  57.3009300
   1.5446776  32.5720239  56.9203806   2.7742758  31.7721152  56.5472603
  68.7801528  44.0828133  60.7347250  69.3000030  43.7000322  61.4414549
  67.9144680  44.2178011  61.1202145  30.9122825  17.8682303  69.2129707
  30.8975172  18.7645853  68.8774729  31.8235612  17.5915110  69.1168976
  12.1384799  39.5459127  16.0122561  13.0626082  39.3878198  15.8193183
  11.8637300  38.7781882  16.5135980  70.0295652  30.2708785   6.2622674
  70.7676781  29.7444455   6.5693362  69.7387422  30.7509010   7.0376618
  73.3209003   4.0208738   0.7853683  73.1876469   3.1282108   0.4665883
  72.4972547   4.2461984   1.2178834  60.4047241  75.5442744  51.6594601
  59.6414880  76.0877036  51.8553829  60.2686060  75.2567046  50.7566833
  30.9862447  10.5929916   6.4541419  31.9117118  10.7177942   6.2439712
  30.5310798  10.7329528   5.6238015  34.7219539  16.5527773  47.6160002
  35.0194550  17.3825586  47.2429228  33.8985157  16.3685262  47.1640778
  84.9389165  48.7281752  39.8039198  84.1619217  48.1691504  39.8044682
  85.4428249  48.4386444  40.5644989  23.1487620  43.5106821  27.1396382
  22.4105692  43.5498408  27.7477296  23.8736076  43.9149285  27.6165231
  50.1246310  70.8931092   1.1802848  50.7231593  70.1961926   1.4491733
  49.7874618  71.2496022   2.0021470  53.1062270  66.2783388  18.4432729
  52.2443223  66.6905145  18.5021337  52.9208470  65.3400854  18.4039529
   9.5113325  18.2800078  51.4013338   9.1705483  17.3895478  51.4860630
   9.2046207  18.7297654  52.1886539  24.8290515  25.8352852  18.4413171
  24.5961237  26.7004752  18.7780988  24.1972780  25.6728983  17.7407992
  77.5530427  41.5335512  24.0926552  78.4890633  41.3754559  23.9697599
  77.4395489  42.4636841  23.8971925  85.9999490   8.3476035  12.0720609
  86.3844014   7.5693481  12.4754842  85.3941823   8.6850040  12.7319367
   1.6072957  14.3460667  70.3584290   0.7845481  14.6624887  69.9853420
   1.8548426  15.0162709  70.9954357  65.3230203  19.7394626  19.9321588
  65.1890696  19.4792669  19.0207894  65.9530569  20.4585855  19.8858007
  15.4630077  10.5759132  52.1801138  15.1082492   9.9705541  52.8312063
  15.7229912  10.0157154  51.4488029  76.9354725  59.9301831   2.6264890
  76.5037585  60.7153014   2.9633029  76.2622166  59.2509345   2.6661952
  36.4727044  23.0008197  42.8323698  35.7174087  23.4002972  42.4008894
  36.0924816  22.4163866  43.4881926   8.5730875  27.6070833  62.8939104
   8.8496912  26.9169593  63.4967804   8.2899362  27.1394205  62.1081924
  78.5243416  55.8294157  12.7247079  78.6616040  54.9073962  12.5072892
  79.2072392  56.2938444  12.2407754  29.4586376  78.5844354  11.6816266
  30.2143400  78.0273727  11.8682416  29.6421063  79.4006828  12.1467145
  84.0987444  66.6033415  12.0133813  84.8378110  66.4240602  11.4321073
  84.4247770  66.3908104  12.8878911  16.5187275  25.2742338  48.0616045
  16.2729597  26.1503267  48.3587456  16.7930663  24.8194265  48.8579226
  82.8990865  10.7675903  13.5853131  83.5308147  10.1576774  13.9663060
  82.3494125  11.0344140  14.3221219  26.8968177  13.0000281  27.0070505
  26.2460518  13.4718835  27.5267506  27.7356839  13.2328272  27.4049711
  26.1175585  27.4939466  54.4638443  25.7760930  27.1102548  55.2715635
  25.3943348  27.4234581  53.8407755  32.4271798  17.8106630  53.2029057
  32.0732021  18.2299662  53.9871979  32.0262361  18.2862437  52.4753761
  48.0652154   4.3511121   1.4211972  48.2991845   3.7293975   2.1103747
  48.6777867   5.0776212   1.5359672  50.9298284  46.1063258  16.0249456
  50.9576834  47.0339935  15.7906659  51.3120568  45.6572978  15.2709516
  14.9879348  37.2634006  57.8827810  14.5607400  38.1051946  58.0412769
  14.9800670  36.8266916  58.7345171  53.0531025  50.7929293   3.9650519
  52.1186281  50.6054351   4.0535625  53.4335208  49.9720941   3.6524089
  81.5777570  36.9064331  16.1459064  81.9522306  36.6201806  16.9790089
  80.6854444  36.5600753  16.1527979  86.0697364  65.8752250  44.4249582
  86.4853071  66.6953360  44.1585922  86.7534303  65.2140962  44.3167830
  68.8643909   9.9939887  18.9315446  69.5615865   9.5349996  19.4000276
  69.2598439  10.8247630  18.6676057  18.4898591  10.7987463  70.8976126
  18.9898193  11.5594578  70.6016588  17.9577565  10.5526972  70.1409340
   6.8355066  45.8267832  45.9176874   6.4363259  46.5218973  45.3945255
   7.0355260  45.1362181  45.2857494  25.0408557  80.5561832  37.1254952
  24.6526367  79.6898249  37.0032628  24.8106328  81.0362128  36.3300164
   7.7920967   5.3170925  67.4407339   7.8228730   5.4898667  68.3817053
   7.8809994   4.3667579  67.3686743  30.6404837  50.7442967  21.7859967
  30.0283765  50.8764056  22.5099404  30.1462448  50.9952775  21.0056336
  80.0880480  47.2598819   3.5331042  80.9240008  46.7973653   3.5922559
  79.4278860  46.5683023   3.5793288  42.6503611  68.5626630  10.2898534
  42.7494932  68.5570697  11.2418969  43.2993985  69.1968254   9.9851926
   3.5708809  72.9616850  68.4831667   3.8620400  72.1793150  68.0148125
   4.3482136  73.5186308  68.5255480   6.5329319   6.2727058  52.8814030
   5.8830202   6.9746387  52.9151106   6.4072478   5.7904774  53.6986494
  85.9200370   8.7198555  61.3459253  85.4456979   8.2515746  62.0329046
  85.7778023   8.1964558  60.5572176  83.4233507  68.4206200  44.2843246
  83.1764978  67.5024223  44.3948221  83.2797068  68.5970306  43.3545494
  19.7172379  43.7286282  53.7312555  19.0436029  43.1662083  53.3489847
  19.2351818  44.3224859  54.3067455  15.5268276   5.5290657  38.8984013
  15.0460231   4.7065613  38.9908433  15.7455230   5.7808006  39.7956371
   8.5964221   4.8244908  63.0261230   9.1182631   5.5962354  63.2459497
   9.1998363   4.2555398  62.5481892  41.0694504  47.7365271   6.1930926
  40.7314444  48.4433673   6.7429669  40.5758417  47.8114597   5.3764136
  72.3336983  75.3761343  16.6897233  72.8455115  74.6555618  17.0572217
  72.3291159  75.2102522  15.7470162  78.1992757  26.4546537  62.3209429
  78.6962276  25.9955168  61.6438437  78.1483644  25.8308482  63.0451679
  78.1954621  77.5374769  45.6509590  77.6294147  77.5857921  44.8805761
  77.9149341  78.2692318  46.2005663  79.8736477  59.4936315  23.2478746
  80.1451636  59.8365084  22.3964341  80.6068373  58.9472333  23.5309060
  76.8794500  13.1169343  42.9193592  76.3362050  13.8456786  43.2194424
  77.3613548  13.4696174  42.1712875  25.4153169  48.4879742   1.9837268
  24.5993281  48.9276812   2.2225793  26.0711485  49.1851888   1.9808801
  72.4545538  16.0169852  29.5306611  72.7819347  15.6971991  28.6899519
  73.1476748  15.8022857  30.1549363  76.4674533   5.8665483   6.6266997
  75.7508648   6.1108701   6.0410054  76.0327292   5.5078428   7.4003776
  49.9525571  34.8673836   0.6490977  49.3122030  34.1560242   0.6611713
  50.7236171  34.5029501   1.0837110  15.2197468  10.9135532  35.3297877
  14.6606851  10.4225767  34.7276044  15.2223480  10.3926229  36.1328173
  12.8882242   7.1092622   0.7344611  11.9754435   7.3952548   0.6988128
  13.2250906   7.2730033  -0.1464145   4.5094753  70.9171513  10.0092443
   4.3754745  70.2734760  10.7049115   3.6779786  70.9342841   9.5353730
  64.1238416  36.3724153  16.4328511  64.5025951  37.2400396  16.2914212
  63.8247765  36.3869302  17.3420175  33.3469606  38.5318007  22.1819909
  33.5712576  37.6101533  22.3103936  32.4187273  38.5221199  21.9484933
  49.7289849  64.1611031   2.5430663  49.8395229  63.4918789   1.8676742
  49.4663740  64.9458364   2.0619615  55.8286381  55.0623075  15.9513028
  55.4749155  55.7861117  15.4343732  56.1624670  54.4442931  15.3010400
  71.7460537  40.8868665   1.2057622  72.4401474  40.2957086   1.4973147
  71.2561989  40.3801115   0.5580934  20.9775281  38.1608343  63.2521629
  21.7484784  38.2276058  63.8155556  21.3335466  38.0229139  62.3744059
   2.4320079   1.6722600  12.9802640   2.1128966   1.4716403  13.8601239
   2.6638008   2.6003043  13.0153688   0.1702824  45.5754232  17.2616553
  -0.5158567  46.2015057  17.4928784   0.7350327  46.0526657  16.6537678
  81.6286516  39.0708232  26.1693358  81.3893795  39.7953320  25.5913520
  80.9500068  38.4122062  26.0213518  13.0547976  24.9251366  52.7096462
  13.8379264  25.3639984  53.0418253  12.3458195  25.2460361  53.2669640
  74.4217253  57.1408776  24.9632867  73.6419297  57.0545296  24.4149240
  74.8871947  57.8946308  24.6007569   3.2676959  19.6248841  63.0329132
   3.6114037  20.5169940  62.9856014   3.0322498  19.5074177  63.9532375
   1.4967138  12.9143155  61.1186647   1.4832334  13.7624145  60.6750679
   1.3839085  12.2745132  60.4157019  32.5646404  72.0938805   3.3835490
  33.1148017  72.1888641   4.1610702  32.6661066  71.1767606   3.1289323
  33.1343410  38.9087195  10.9329827  33.7228811  39.3765635  10.3405507
  33.6972565  38.2766721  11.3800557  61.1679507  53.5775629  18.9787038
  60.8227468  52.9945473  18.3025678  60.3908253  53.9732186  19.3733819
  39.6871972  42.9371934  14.2536767  40.0138319  43.8369242  14.2484983
  38.8889826  42.9751947  14.7806008  15.5262554  14.6957123  43.4562588
  15.8860672  14.6377385  44.3413591  16.2949991  14.7293484  42.8869295
  14.5536292  25.9672642  44.5269394  15.3110087  26.5100408  44.7460318
  14.8868585  25.3381848  43.8870573  84.1017009   1.9262140  29.2575486
  83.2598401   2.2955482  29.5241864  83.8781667   1.0879962  28.8530095
  20.4945683  47.4838400  47.1958733  19.7002077  47.6701736  46.6953707
  20.6571341  46.5520477  47.0490217  55.0178910  63.3925179  10.1361497
  54.1883278  62.9328159  10.2655061  55.4231882  63.4038452  11.0032304
  23.1354427  29.7191286  65.4870462  23.3466363  30.4714298  64.9341726
  22.1828294  29.7473884  65.5762815  24.2565319  76.5656213   9.2139943
  24.2283041  76.1169819  10.0590737  23.3621741  76.8789581   9.0791734
  50.8464003  58.3207897  20.8490499  51.2753487  58.1027142  20.0215943
  50.7033158  57.4754754  21.2747224  29.3838716  15.7441688  52.5080442
  30.1689243  15.2247190  52.6815271  29.5075488  16.5434265  53.0200195
  24.0244040  52.7094809  17.3778661  23.6822224  52.6633183  16.4851029
  24.3305725  51.8217102  17.5632222  52.4186755  73.2909826   7.1353849
  51.6931129  73.2891110   7.7597125  53.2011938  73.1897215   7.6772721
  76.0975314  64.9398235   0.5664762  75.2945328  65.3290347   0.9127982
  76.6785384  65.6851009   0.4140695  71.2455105  15.8490241  49.9179125
  71.9714856  16.4630580  50.0281572  70.5427277  16.3750684  49.5363283
   8.3705658  30.8786082  57.6352549   8.0054826  31.3688326  56.8986225
   8.8228095  31.5381598  58.1612778  69.4721068  16.7952792   9.8849710
  70.4240430  16.8342130   9.9773439  69.1580547  17.5980394  10.3011258
  82.9558731  17.5797765  11.0245450  83.0561925  16.6642921  10.7636769
  83.8147259  17.9703252  10.8630689  37.0939923  49.8450354  22.5893910
  36.2166494  49.9805609  22.9473527  36.9658482  49.8289332  21.6409429
  28.1899917  42.4311020   1.6276439  28.1611213  41.9675106   0.7906993
  27.9718475  43.3367310   1.4074596  77.9098796  17.8719854  57.3077106
  78.0154037  17.5101042  58.1875610  78.7354660  17.6727545  56.8661833
  59.1160345  61.6328887   7.6335509  58.6496258  61.6966609   8.4669955
  58.4867144  61.9433335   6.9825442   3.7307182  31.9824624  48.9297009
   4.0732440  32.8517914  48.7219143   4.3992513  31.3781929  48.6069727
  44.1953110  80.8285381  44.2403698  43.2471966  80.8683661  44.1149712
  44.3925296  81.5698286  44.8129320  14.3409216  32.3878551  62.6558924
  15.1665294  32.8718710  62.6740932  13.8551545  32.7143002  63.4133196
  22.1478678   5.9017007   9.3327935  21.2715841   6.1660640   9.0526803
  22.5597883   5.5593030   8.5394986  44.2681694   7.5499916  37.9944277
  44.3978930   7.0609337  38.8069701  45.1534796   7.7127743  37.6689100
  85.4257342  15.2334654  49.2243147  85.0370805  16.1078012  49.1975546
  86.2852703  15.3655708  49.6242857  58.7231970  49.0141550  15.1595624
  58.6599851  49.1148625  16.1093553  58.7115145  48.0675880  15.0177701
  28.1779088  46.7779646   3.1030400  27.7805568  47.0644543   3.9253934
  28.0459167  47.5130919   2.5043757   9.3955249   8.2884765  60.1574278
   9.1788059   8.3809114  59.2296791   9.9613941   9.0368843  60.3469229
  19.2827774   4.1384332   6.1334975  18.5591198   3.6093061   6.4690288
  19.6601082   3.6097877   5.4303678  23.8061810  39.0053892  30.9886265
  23.9057994  38.8880301  31.9333673  24.4403958  38.4004021  30.6039262
  59.2034698  28.3436576   9.5736535  60.1348377  28.4068874   9.7852834
  59.0129567  27.4062685   9.6088441  39.5868039  25.1498914  65.7174397
  39.6960044  24.4522786  66.3636923  40.2280664  24.9477768  65.0361490
  74.2795885  13.6399429  22.6091035  74.1961385  13.5720222  23.5602410
  75.2036727  13.4598510  22.4362786  21.5030241   8.8144934  66.9072437
  21.5256357   8.3737057  67.7566099  21.0281205   8.2104093  66.3364697
  48.6775697  65.7322005   5.3270419  48.8298953  65.9252218   4.4019635
  49.4122982  66.1440448   5.7817872  26.2297130  12.1294725  39.0431428
  27.0288563  12.6363730  38.8994288  26.4913583  11.4366317  39.6495628
  68.8868355  61.8045913  49.9835730  69.7296023  61.5811097  49.5885658
  68.7697493  62.7342903  49.7881651  13.8781774  22.3647356  64.5727015
  13.7676477  23.3153677  64.5904398  14.8263812  22.2338152  64.5727539
  16.0661280  52.3598671  41.7273140  16.9170344  52.5222540  41.3201046
  16.1762404  52.6453972  42.6342726  50.3043867  34.9690454   4.1529210
  50.4251600  34.2280357   3.5591586  49.3643893  35.1475446   4.1250737
  24.1656351  37.7953315  68.0566072  24.2866540  37.2299123  68.8194227
  24.6626163  38.5867262  68.2638216  46.0685861  52.9493014   7.2302898
  45.9964538  52.2751597   7.9059823  46.8216193  52.6810721   6.7037662
  35.4895008  66.4864663  18.2061036  34.6614719  66.4696077  18.6860211
  36.1471600  66.2342004  18.8542398   6.1939383  50.6340694  60.4664183
   5.3697222  51.0205698  60.7622528   6.2336558  49.7864962  60.9094477
   1.9217320  36.3325071  57.1717930   2.6227966  36.7414832  57.6792145
   2.2175458  36.3919210  56.2633896  52.3922015  11.4688461   0.9752114
  52.6543886  11.5328662   0.0568469  51.7290879  10.7786529   0.9874232
  21.9330788  59.1610622  42.5404119  21.1746311  59.2342472  41.9610691
  22.6856303  59.3223715  41.9713068  58.1298232  67.4416331  33.4724172
  57.9796648  66.5109066  33.3067830  58.3221579  67.8103522  32.6102765
  72.5687968  81.3964992  54.3797016  73.1346189  80.7773894  53.9184189
  72.7099108  81.2049711  55.3068638  69.4662487  48.8045073  67.1736336
  69.7157335  49.5180798  67.7608347  70.2960050  48.3956671  66.9274902
   8.2172143  26.7597938  51.2551689   7.3083413  26.4776444  51.3579988
   8.5395122  26.2606311  50.5047083  61.5271998  54.8198096  14.9230321
  61.4916563  53.8703815  15.0394567  60.7386589  55.0294308  14.4225343
  20.9237719  74.3630675  22.7322228  20.2166558  74.0746645  23.3093293
  20.5148071  75.0096635  22.1569951   5.1827527  13.6177080  26.2121232
   5.4661394  13.8882606  27.0854600   5.9948875  13.4072130  25.7512982
  57.7519655  55.6389427  64.1075850  56.8255806  55.4386330  64.2414379
  58.1567621  55.4813576  64.9605417  66.0837794   3.3130185  11.0020574
  65.2626146   3.4460847  11.4755662  66.1110914   2.3718517  10.8297380
  78.4550572  74.1402844   2.4739249  78.9507532  74.6285561   1.8165763
  77.8192807  74.7710518   2.8117927  61.3428155  16.4641492  33.3299096
  60.4234386  16.7005031  33.2069715  61.5649656  15.9533899  32.5514443
   1.3803745  75.6001428   2.7944644   0.9196640  75.0240139   3.4044250
   1.8508697  76.2162737   3.3559354  30.7735872  43.3422041  68.6748695
  29.9997592  42.7956343  68.8115549  30.4673576  44.2350197  68.8340378
  20.4519297  49.5155971  31.5422757  21.2984396  49.1639678  31.8179734
  20.1193024  48.8743942  30.9142144  27.8409362   9.6964729  46.8508291
  28.2554626   9.7972721  47.7077103  28.5690689   9.5405865  46.2493706
  24.7480011  61.1125449  27.6103910  24.7242371  60.5128161  28.3560403
  24.7107894  61.9846491  28.0031808  27.2562742  17.1873295  61.4003563
  27.4880648  16.3827848  61.8642712  27.9458928  17.2930884  60.7450151
  16.9219900  56.1040202  22.4226506  17.0044160  56.6847745  21.6662343
  16.7400313  55.2434210  22.0451673  15.2150381  62.9782104  61.9611788
  16.0043967  62.7173328  62.4356127  14.4940102  62.7174187  62.5341892
  73.5062123  57.8091053  14.4206269  74.1388321  57.1712402  14.7510083
  73.1007433  58.1738309  15.2072652  20.6130387  14.1812436   0.2410157
  21.1639525  14.4792287  -0.4828135  21.2292792  13.9900224   0.9480556
  46.1888409  80.1166991   5.9875186  46.0730839  80.2381615   5.0451406
  46.7381692  80.8523825   6.2581428  11.7352368   8.5997884  13.7826856
  11.7207314   9.3223493  13.1550534  11.2631251   8.9350669  14.5448716
  24.4293524   7.4500053  19.1503747  24.5618511   6.5362136  19.4026883
  23.4874798   7.5215499  18.9954789  20.7899714  51.7541170  49.9356604
  21.1911583  51.2118912  49.2564917  19.8997343  51.4126444  50.0199747
  83.5229731  72.7331237  10.5259641  82.7062464  73.1071953  10.1954206
  83.7123155  73.2344750  11.3190778   8.3457208  77.1299294   3.3987887
   7.5585295  77.6744346   3.3900054   9.0282513  77.6896480   3.0285295
  67.5831795  79.5870522  33.2793935  67.3087478  78.8533739  33.8295205
  66.8831277  79.6765164  32.6327451  61.7065065  79.5536039  20.4511619
  61.7516538  78.6411574  20.1654434  60.7696070  79.7358186  20.5236149
  13.1114413  18.4101837   9.7470506  13.3924319  18.2988040   8.8388284
  12.9505516  19.3497054   9.8344834   1.5200020  25.0413918  40.5477571
   2.4372938  24.7706008  40.5862284   1.4981659  25.8796382  41.0093832
  85.1403890  44.1633749  46.0771990  84.6049663  44.8747730  45.7258129
  84.6795600  43.8852310  46.8687201  71.3659811  81.0091142  14.3316491
  72.3142577  81.0214738  14.2018350  71.0778761  80.1965526  13.9157517
   0.4011963  24.5783186  37.9876471   0.8012152  24.7412133  38.8418603
   0.1093481  23.6676598  38.0295849  12.7404869  21.5275455  61.7505264
  13.4659111  21.7896104  61.1836815  12.9397833  21.9297266  62.5959635
  46.6708517  47.0571232  69.9409151  47.5118446  47.4344540  70.1989555
  46.7602539  46.8921757  69.0022802  32.6768042  28.6821382   4.0652783
  32.1197058  28.2629220   3.4094317  32.6078440  28.1169288   4.8347028
  69.7117353  26.8940656  16.2397988  70.0844241  27.1965091  17.0679696
  68.8253690  26.6114871  16.4650376  19.5163221  70.3356794   5.8937104
  19.3246734  70.0134186   6.7744239  19.3064368  69.5999340   5.3185065
  49.5731736   8.9512385  63.2818317  48.8262630   9.3204821  62.8106499
  49.9565792   8.3238448  62.6689625  12.5149703  51.3222790  60.6669950
  12.0840645  50.5000353  60.4336071  12.4946105  51.3401842  61.6238117
  51.2636781  75.0385074  11.7221768  52.1655989  74.9147228  12.0178826
  51.0771609  74.2639879  11.1915525   5.3246301  15.8939481  58.8438416
   4.4996488  16.3486671  59.0137482   5.9450114  16.2855804  59.4586468
  21.3563633  45.0781536  62.1402740  22.1342325  44.5209885  62.1670198
  20.8605766  44.8349857  62.9221296   3.2723142  29.6592204  13.2779820
   2.7159048  29.9874704  13.9843019   2.9055358  28.8016097  13.0630239
   3.7716986  60.6900505  27.5277837   4.1782118  60.8256737  26.6718705
   2.9866863  60.1751009  27.3412068  30.7099195  67.8600935  15.2621778
  31.6507608  67.7065781  15.1756700  30.3094307  67.0157245  15.0550969
   8.1754280  22.1584480  14.9256166   7.9266430  22.3860614  15.8214505
   8.5213734  22.9721801  14.5590146  77.1240955  58.0579233  70.1092148
  76.9816243  58.0694771  71.0556793  78.0761122  58.0672979  70.0101757
  76.1420120   1.9907110   4.8607953  76.7966808   2.6878564   4.8204024
  75.8766950   1.8582790   3.9506848  50.2065277  13.9757681  52.0390511
  49.8380375  14.8590386  52.0557833  51.1539793  14.1111887  52.0541668
  58.4675551  60.9683184  31.9341691  58.9286542  60.2477375  32.3635705
  58.0675602  61.4585451  32.6524385  21.1538124  43.7077093  43.7585783
  20.6176591  43.8022089  44.5458794  22.0446873  43.9003086  44.0509462
  33.0071926  46.4189959  67.7670956  32.1237230  46.7456436  67.9374361
  33.5843062  47.0690584  68.1678343  35.8590294  45.6421916   9.8988374
  35.2478529  46.0302989  10.5249913  36.2969948  44.9475925  10.3907140
  75.7194018  54.5492506  57.5473547  75.7787942  53.6358166  57.2674608
  76.5862131  54.7481251  57.9013586   5.4636681  59.3014240  43.6324692
   5.0188065  60.0948954  43.3345795   5.8469552  58.9292145  42.8382492
  55.7863560  32.4555843  51.4380773  56.2182357  33.2652395  51.7104276
  56.1285829  32.2850482  50.5605634   8.8966490  14.3741624  13.2044633
   9.1917134  15.2377527  13.4932359   7.9857470  14.5075624  12.9423650
   9.8310901  22.7118699  18.6895593  10.4369117  22.9959409  18.0050786
   9.5984770  23.5166614  19.1526254  65.8712656   5.1179759  28.7139924
  65.5170775   4.2578714  28.4881528  66.1867065   5.4728572  27.8828557
  20.9807373  56.7096298  29.2625840  21.6867186  57.0718639  29.7979386
  20.4772450  57.4735992  28.9813741  29.5909357  22.0874214  62.7530909
  30.2620339  22.6130605  63.1884813  29.1913462  22.6849675  62.1210337
  77.0522552  78.1608582  43.3643341  76.9185453  77.4243164  42.7677965
  76.7867118  78.9293909  42.8592825  49.6152783  74.5643882  15.8793386
  50.4247570  74.1540483  15.5750402  49.7796774  75.5042437  15.8026822
  71.4557933  13.2790017  48.5785818  71.5036821  14.2073441  48.8068771
  72.3693990  13.0013800  48.5116291  36.5883017  56.7374659  70.1214552
  37.0794821  57.3290062  70.6915855  35.7302141  56.6603947  70.5385590
  79.0968942  66.4416838  32.3405504  79.1407060  67.3868465  32.4853921
  80.0044298  66.1460114  32.4125957  25.3385425  23.8978863  61.1713362
  25.7611990  24.7485375  61.2896013  24.6193051  24.0702176  60.5636930
   0.9446025  75.9426307  47.7252865   0.1130890  75.7746803  47.2818804
   0.7420802  76.6273390  48.3627748  28.8397431  13.7759733  28.7679529
  28.7143373  14.6582258  29.1174316  28.4355783  13.2011855  29.4179535
  36.2287176  62.5766352   2.5162490  35.4364813  62.3466686   3.0017503
  35.9197849  63.1401042   1.8068154  12.8812945  59.4813684  34.8317082
  13.6348379  59.7506741  34.3064626  12.2352159  59.1863326  34.1900189
  56.7207766  72.6289252   5.0954898  56.6054678  73.5609917   5.2803834
  57.0409418  72.2593311   5.9183677  40.6405973  80.9436703  55.5052471
  40.7961416  80.2696705  56.1668777  39.8868775  81.4332104  55.8346272
  10.9893442   3.2439391   5.7783254  11.8038441   3.7456624   5.8113750
  11.1767412   2.4498050   6.2787850  81.5242720  76.5246943  20.7459481
  80.6992150  76.4934305  21.2302335  81.7273999  75.6080774  20.5594380
  65.2795149  17.2922771  33.1421502  65.7334120  16.9131963  33.8948186
  65.1789243  16.5626876  32.5307591  38.4060634  65.6604580   0.1212915
  37.8272814  65.9481124  -0.5847518  37.8196758  65.2617101   0.7642396
  16.7112279  39.9510765  69.9326563  16.4481676  39.0398717  69.8032856
  16.9944668  40.2438879  69.0664768  56.7736864  67.5539303  61.5152597
  57.6674795  67.6866484  61.8310928  56.2329531  67.5904942  62.3042488
  49.2391253  66.3115910   1.0607799  49.1678810  65.6141619   0.4090531
  50.0204611  66.8009905   0.8034261  62.0866323  66.7392377  11.4042028
  62.4293065  65.8634189  11.2260278  62.7934862  67.1820310  11.8738015
   5.0389744  19.3823879   7.7467282   5.9134961  19.3679349   8.1356128
   5.1070191  20.0103443   7.0275100  17.6548077   6.8009679  17.8026135
  16.7547251   6.8807094  18.1184037  17.5689770   6.4228313  16.9274648
  25.7984997  15.0859229  29.0386708  26.2652231  15.5025403  29.7631200
  25.6724430  15.7875840  28.3999093  53.8198924  55.1927642  10.2020009
  53.8281846  54.2491988  10.3627809  54.6063638  55.5173735  10.6405480
  71.7659236  29.4904916  18.2441361  72.0476628  29.7581498  19.1189035
  71.0114218  28.9221685  18.3989461  11.3356043   8.5119359   8.8094361
  10.9939100   8.7349956   7.9435714  10.7505704   7.8245656   9.1280110
  25.5699135  29.5196216  10.0263246  25.8248783  29.0573232   9.2278894
  24.9744393  30.2061527   9.7258027  44.6758032  43.6197662  70.2525997
  44.5088243  44.5613194  70.2098846  44.2817402  43.2701302  69.4534159
  66.6021872  77.4236945  17.7993711  67.1715188  78.1738523  17.9707177
  66.4974046  77.0027117  18.6526139  18.2758928  28.1786125  12.5158055
  18.5107876  29.0611570  12.8024610  18.8349701  28.0168741  11.7558702
  30.7477500  63.8254527  16.1613973  30.8540395  62.9031090  15.9285482
  31.6369057  64.1312221  16.3406690  13.3189023  10.0480318  64.2302418
  13.1129253  10.9780753  64.1363001  13.6919737   9.7987509  63.3847189
  85.6320397  39.1695380  56.3936377  85.4594627  40.0460482  56.0498667
  85.6906968  39.2911887  57.3412609  31.1217645  78.1989292   8.3960898
  30.5086889  78.2448534   9.1297515  31.0556813  77.2961453   8.0848916
  43.8469017  75.5682424   5.4400523  44.1520048  74.6721391   5.5819638
  44.4380129  75.9199218   4.7743638  77.4807418  24.5691602  21.8657239
  77.4012948  25.4682605  22.1843656  76.9009853  24.5325582  21.1049493
  43.4934461  52.5188497  -0.2728383  44.2013836  52.4594573   0.3686650
  42.9400826  53.2316462   0.0464423  78.3737970  12.4936597  33.0809434
  78.0365611  13.2897107  33.4917958  77.6828826  12.2256534  32.4751027
  81.6959191  20.1588695  15.9137757  81.5187026  20.8565299  15.2828248
  81.8258763  19.3773906  15.3765328  62.9514146  80.0352696  14.6118672
  63.7115765  79.7741941  15.1316960  63.3020807  80.6486968  13.9661344
  72.4998773  26.3207643  13.8422807  73.1558288  25.9506576  13.2515367
  72.9569758  27.0307081  14.2931302  22.7657582   7.7552955   5.7156547
  23.5747505   7.5485580   5.2476581  22.0907093   7.7588861   5.0370391
  10.0400211  50.4869716  22.0219739   9.5311452  50.4265373  21.2135060
  10.6781198  51.1799400  21.8521150  84.6190644   8.6562078  14.4922383
  84.1418362   7.8301065  14.5699723  85.3431798   8.5738103  15.1128038
   1.3088013   9.4449060   3.7407096   1.8661238   9.8579471   4.4002660
   1.9198633   8.9868991   3.1635936  50.2016259  73.9319638  18.7196477
  50.6351543  74.6321849  19.2074712  50.5709744  73.9897708  17.8384717
  60.3880262  75.2053022  56.0541677  60.9713078  74.8266125  55.3964424
  60.9437704  75.3307486  56.8233538  65.1622129  71.4246634  26.2836488
  64.2705727  71.1885432  26.0278066  65.6835819  71.2829522  25.4935105
  75.6678963  24.1366641  35.2522786  75.6039060  23.2352607  35.5678876
  75.9070361  24.6453063  36.0270913  44.0843201  75.3705263  68.3106232
  44.9562120  75.4291439  68.7012625  43.9104748  76.2516546  67.9795361
  67.5442142  46.8209426   4.5165189  66.8266828  46.7516582   3.8867744
  68.0134977  45.9904449   4.4372352  80.8947063   5.5941074  13.8752492
  80.9515930   6.5445058  13.9739259  80.0149918   5.4413574  13.5302861
  14.0387512  22.1141832   1.4021047  13.2075955  22.1474950   0.9285005
  13.8832451  22.6271026   2.1951755   4.2492486  15.6251113   7.0751317
   3.9454056  16.0501735   7.8771527   3.7289597  16.0267799   6.3792928
  62.4992321  18.9265125   7.5562270  62.9279203  18.0800454   7.6825507
  61.5964059  18.7059324   7.3271354  22.2945452  46.9589615  65.3370237
  23.1272864  47.0934772  64.8846054  22.4835181  47.1642733  66.2526464
  55.7079697  75.6598214  12.8927358  56.5566230  75.2433232  13.0429013
  55.9211588  76.5692047  12.6834424  72.9798115  15.1019876  11.5702470
  73.3802665  15.2741020  10.7180532  72.8242660  14.1575210  11.5754254
  84.9674702  34.4660680  23.9210637  84.4357253  35.2569167  24.0107186
  85.3470374  34.5307367  23.0447228  31.1128641  37.1966855  11.1004384
  31.8241192  37.6736324  11.5280660  30.9144379  37.7125709  10.3189500
  35.0185991   6.9263761  27.7535089  34.6509577   7.1725623  28.6023076
  35.8387972   6.4817827  27.9676087  23.6715364  69.9004221  61.9218302
  24.3919992  70.5301428  61.9467402  22.9351377  70.3931904  61.5597200
  40.1505423  70.6423283  67.4610710  39.8337364  70.0454140  66.7831612
  41.0980129  70.6739473  67.3286390  22.9955031  50.8853500  40.6066831
  23.8033177  50.4635780  40.8995565  22.2980047  50.3060596  40.9135087
  13.4744383  38.5604446   0.9189494  13.5351540  39.2020576   0.2112182
  14.1418196  37.9074542   0.7081588  64.3491030  64.0741614  26.5100892
  63.9585495  64.7057847  27.1140416  64.5177508  63.3008078  27.0483430
   8.3332492  18.4272306  65.6883271   7.6857473  19.0427081  65.3445752
   8.5821296  18.7911050  66.5379651  45.0061274  70.8066225  55.4954958
  45.0247860  71.0809517  56.4123487  44.0924025  70.9148884  55.2316427
  85.5354310   1.8959300   7.3207315  85.8364797   0.9972446   7.4547942
  84.6469451   1.9065063   7.6766952  34.9800777  63.6773157  58.8905096
  34.5830941  64.4679546  58.5250950  34.3663955  62.9768848  58.6690998
  77.0966447  14.2611568  18.2055219  77.0963991  13.3213060  18.0241044
  77.9746629  14.5523469  17.9595120  60.1088953  79.3815044  38.6086877
  59.2881322  79.7368220  38.9497693  60.7015658  80.1326135  38.5802491
  23.4281517   5.2428787   3.5575374  24.3396498   5.5069558   3.6827024
  23.0274082   5.9779041   3.0934556  46.3439156  25.2125280  29.0565808
  46.1748530  25.6968753  29.8646958  47.0824457  24.6419685  29.2693551
  35.3746462  74.9240545  29.0586789  35.6605947  74.4237403  29.8229726
  35.9917868  75.6538109  29.0055306  72.9883062  11.1660659  66.1713791
  72.9167199  11.6217422  67.0101070  73.4562444  11.7794120  65.6047487
  25.8638358  48.6497402  67.0810127  26.1449385  49.2565393  66.3961697
  25.2305627  49.1481876  67.5974894  65.1643825  81.3164262  34.6689542
  65.2110649  81.5966872  33.7548955  64.6646834  80.5003933  34.6440538
  22.5669647  31.5643422  32.1651204  22.3634602  32.3742740  32.6329072
  21.7940689  31.0140149  32.2916349  56.1553908  64.4061153  35.5733331
  55.5470053  64.9357669  36.0886605  55.8780412  64.5369117  34.6665795
  50.8527780  63.5498289  26.6433938  50.7160640  63.7386373  25.7150109
  49.9899245  63.2873062  26.9640096   2.1391345  25.0434511  32.6254495
   2.7085258  25.8054654  32.7320226   2.2956825  24.5160549  33.4087594
  53.8327051  23.0566375   0.5735333  52.9085852  22.9422824   0.3518565
  53.8710905  22.9170959   1.5197309  32.4602202  73.2079104  14.2045339
  31.8268034  73.9250568  14.2312940  33.1012506  73.4292082  14.8800691
  16.4480722  62.5398159  32.5194693  16.7930806  62.5664091  31.6270041
  16.3956213  63.4583950  32.7834511  44.0643132  65.3259996  15.3140004
  43.1295884  65.4895309  15.1883824  44.4978476  66.0053281  14.7974904
   2.0239282  60.4078770  64.4004774   1.4271188  59.7203445  64.1049385
   2.6199174  60.5408382  63.6633539  68.6734534  14.8037069  19.5202478
  68.6290766  14.5479410  18.5989221  69.2650843  14.1649072  19.9179204
  40.8662415  41.3615417  68.8131285  41.7190218  41.7623568  68.6447668
  40.8380175  41.2486935  69.7632360  38.1043172  77.5954151  63.6239147
  38.3148527  78.5044098  63.4102821  37.1478748  77.5609446  63.6078167
  74.8049367   5.2594201  27.3717721  74.0245510   5.5310504  27.8549321
  74.6683646   5.5973689  26.4866956  40.5712652  63.4365273  56.8764973
  40.9842253  62.7934074  56.3002253  39.9608707  62.9251289  57.4076462
  60.9747330  25.3265111  19.5159467  61.5743882  25.0204961  18.8355001
  61.4951841  25.3096645  20.3191121  59.6235133  70.7542185  40.0812753
  59.0603066  70.0128535  39.8589929  60.4311848  70.5964640  39.5923932
  41.2500025   9.3737857   9.1228421  41.2110258  10.2354495   9.5378717
  41.6118599   8.7991540   9.7974427  23.4384847  48.9350414  59.3886709
  23.6066318  48.1570101  58.8570452  22.4967766  49.0841341  59.3038654
  69.7353960  19.1509311  30.6244882  70.6683326  19.2460792  30.4326280
  69.3633021  18.7781732  29.8252233  21.0561491  29.0193574  23.8993867
  20.4703356  28.3484332  24.2499764  21.8935610  28.5700576  23.7848886
  26.6926289  67.7976131  68.9503765  26.8079138  67.5650501  68.0290461
  27.2526073  67.1828651  69.4244528  15.2668024  29.5072620  19.1877206
  15.3957487  30.4159038  18.9157422  15.3689553  29.5252864  20.1392873
  52.4539328  36.2533701  65.7385302  52.5346661  35.3565634  65.4138041
  51.6317678  36.5703810  65.3646517  28.2536197  77.3042440  70.1572847
  28.7786651  76.7318535  70.7166862  27.3726296  77.2598696  70.5289268
  23.1767632   2.6989524  26.4115651  23.6973406   3.3368747  25.9234174
  23.2576061   2.9727332  27.3252042  32.2638130  80.0068855  62.6478624
  31.7490435  79.8441362  63.4382772  31.6405869  79.8981333  61.9295311
  53.2070017  80.5997328  42.6845677  53.3405018  80.0106863  41.9419797
  53.5178113  80.1042036  43.4422525  59.1978455  19.7607791  68.7832212
  58.3582640  19.8065186  69.2406464  59.0365648  19.1735554  68.0447197
  14.9899985  25.9978072   0.5184587  15.2245308  25.8071296   1.4266809
  14.2689015  26.6238992   0.5836852  85.4655553  21.9643180   3.4893687
  85.4769231  22.3694293   4.3565400  84.5370079  21.8289392   3.3004125
  43.7625599  62.5491667  58.6573267  43.1900644  63.1680870  58.2041025
  43.2028723  62.1478319  59.3220901  80.2301169  11.9664829   1.8219455
  80.6829000  12.4397819   2.5199493  79.3329192  11.8696563   2.1411498
  85.3705002  13.4954326   1.4666255  86.2864114  13.2994811   1.6639693
  85.3813887  13.8037698   0.5605109   0.2170254  79.8544530  27.0115789
   0.4782749  80.7059602  27.3621686  -0.4289745  80.0614647  26.3362535
  74.1463805  81.3777379  27.5965627  73.7961293  81.3160495  26.7078813
  73.6151791  80.7660464  28.1063588  63.7202669  62.2940711  31.8635781
  63.5091091  61.4996079  31.3731988  64.6271897  62.4878768  31.6265901
  60.7138178   8.8940589  14.3864186  61.0166080   8.9641349  13.4810765
  61.3228361   8.2794349  14.7957547  41.8595577  61.7606990   8.6356242
  41.1264492  62.0334308   8.0838998  42.1322323  60.9181373   8.2723506
   8.6364818   8.0966891  66.6709852   8.9476610   8.5004748  67.4811459
   8.3938527   7.2062720  66.9249821  17.7090431  38.8257711  28.3856900
  17.8707339  37.8976791  28.5551961  17.4157740  38.8553827  27.4750073
  84.8581482  12.9952209   4.1128095  84.1214419  12.3844497   4.1342099
  84.8535300  13.3449333   3.2217916  16.8558241  35.3745429   4.7074493
  16.6557766  36.3052718   4.6076472  16.0121180  34.9353664   4.6001227
   9.0959264  10.4670493  34.5109971   8.4981085  10.9889238  35.0462468
   8.9809514  10.8064000  33.6233838  60.7162381  74.3503527  43.3504232
  60.4141617  73.5359696  42.9482205  61.5035558  74.5829181  42.8582032
   2.5448705  23.5235135   6.1771377   2.5083924  24.3807857   6.6013892
   3.4714700  23.2844560   6.1994727  31.6675115  79.8383931   1.2979682
  31.1683775  80.2411202   2.0085366  31.3150144  78.9510111   1.2306483
  49.2569208  12.8566779  68.0057573  49.2605901  12.3889388  68.8408804
  48.9501834  13.7364233  68.2253122  50.1450968  70.7998419  47.4075794
  50.9809637  70.4796743  47.0683908  50.3159142  71.7115545  47.6438522
  25.0582528  80.7072353  55.1208353  25.5078506  80.4556084  54.3141270
  24.1798949  80.3376293  55.0307798  17.0999075  45.8940666   5.9687503
  17.6471163  46.6101806   6.2911971  17.1465613  45.2290027   6.6555865
   4.3778611  66.6195552   7.3649200   5.2581907  66.7976157   7.0339330
   4.0935160  65.8427017   6.8833812  16.3649346   5.6226175  15.5875714
  16.5764214   4.6899335  15.5474980  15.9981896   5.8222692  14.7262509
  45.6737089  35.4114723  58.8502550  45.8929968  36.3406849  58.9188766
  45.8900785  35.1803946  57.9469204   0.6258012  33.8666789   0.4094871
   0.1552392  33.1582134  -0.0296943   1.5021969  33.8464610   0.0251039
  15.2068734  56.5381670  68.9032364  15.8185291  56.9285727  69.5274878
  14.4019890  56.4095211  69.4050789  20.5384327  29.2666738  17.4329789
  20.6799866  28.9244668  18.3156331  20.9249092  28.6080043  16.8558915
  58.6425638  75.0850868  59.5708370  57.9169941  75.2655315  58.9731598
  58.7665558  75.9037638  60.0510645   2.5782944  64.1277651  50.0120957
   3.2803226  63.8322095  50.5917771   2.7200104  63.6440591  49.1983541
  55.4240013  75.7757238  22.2410424  55.0739575  74.9717215  22.6248105
  54.6846390  76.3836483  22.2428735  20.8725191  43.7915294  19.2102655
  19.9390007  43.8286655  19.4185956  21.2741495  44.4342677  19.7949250
   2.8642679  76.1659384  56.3300371   2.1727968  75.7340908  56.8316460
   3.3311677  75.4495668  55.8998680  12.8024805  63.4763622  36.8879056
  13.6896253  63.1192923  36.8466282  12.2980320  62.8110170  37.3559618
   5.8035494   8.4536685  40.2122068   5.8884455   7.9597987  41.0277557
   6.6105724   8.9654292  40.1569939   6.0960795  24.6376245  22.2068437
   6.5313603  24.6072929  23.0587991   5.1785136  24.4449680  22.3996862
  51.4863300  49.2307901  68.9264870  51.9934988  49.7880936  69.5167637
  50.9827900  49.8443317  68.3914614  42.9708255  79.6669844  17.1766122
  42.6365590  80.5274443  16.9234117  43.8873101  79.6753386  16.9005426
  81.5475679  50.3898208  12.4572499  82.1871997  50.5432479  11.7618592
  81.3823868  51.2573879  12.8264077  11.2002302  10.5788438   0.2551492
  11.2213541  11.4418571  -0.1583592  11.1742712  10.7636659   1.1939796
  67.0796681  55.2242439  29.5787938  66.5790946  56.0106437  29.7961457
  67.5381757  55.0007026  30.3887494  19.2299676  61.0771847  69.6021509
  19.2238033  61.4745665  70.4729414  18.4436822  60.5316639  69.5822525
  47.1062517  54.3322325  59.6013260  47.3415852  55.0120926  58.9699411
  46.6851282  54.8065472  60.3182030  72.8412522  31.3264148  11.3186391
  72.5554193  30.8588283  12.1034272  73.7562621  31.5478532  11.4917119
  16.2728811  47.8318374   9.4784959  16.7429854  47.9870288  10.2977307
  16.9158150  48.0184715   8.7943585  17.3494126  22.6329868  20.0013192
  16.6187407  23.0629556  19.5569356  16.9486929  21.8971507  20.4641374
  35.2769494  67.1205521  64.8586607  34.4275522  67.3029137  65.2605343
  35.9146881  67.3300886  65.5410194  29.6473004  12.2315376  15.2684625
  28.8099791  11.8663852  14.9824842  29.4568087  13.1511133  15.4537232
  17.6732327  16.4265792  22.9063542  17.6784350  17.0255487  23.6529763
  18.2082249  16.8644302  22.2443040  25.3861427  63.1736517  60.3597403
  24.9090219  63.0657387  59.5369768  24.7113252  63.1213236  61.0365772
  83.9981032  31.9912259   4.4248994  83.0592085  32.0673292   4.2548497
  84.3568922  31.6122072   3.6225017  59.3514824  71.0380030  68.7365866
  59.7295094  70.9631586  69.6127892  58.5980129  70.4477978  68.7495947
  24.3474127  45.6816547   1.6207822  24.3424393  45.2695434   0.7568582
  24.5355726  46.6036289   1.4452632  65.9364779  22.0947950   1.2559398
  65.2681292  22.7093427   1.5590413  65.5226255  21.2349098   1.3304456
  20.5962063  71.8405393  20.8630593  20.5390192  72.7960185  20.8672555
  20.1972366  71.5803603  20.0327809  33.4261608  43.8768530  69.0058994
  33.3855414  44.6628141  68.4610605  32.5157952  43.5911989  69.0824747
   9.6633197  61.8247382  10.4696687  10.1352669  61.5848319   9.6722062
  10.3438617  61.8932597  11.1392911  80.5746127  25.7941358  16.1665853
  81.0767318  25.0376050  15.8636506  81.2128783  26.5065877  16.2021001
  33.2011248  32.8751151  19.7049268  32.9221894  32.3918073  18.9272149
  33.6168171  33.6651819  19.3596395  78.9032555  27.1037881   4.0743526
  78.2245160  27.2537629   3.4162839  79.7262359  27.2406833   3.6051019
   7.1907235  18.7597959   0.9135230   6.7725993  18.6263578   1.7641671
   7.9755117  18.2126062   0.9439261  68.3783770  26.6537094  69.5982456
  67.6271725  26.5365267  69.0166998  68.0645704  26.3664412  70.4557037
  15.5494238  21.5384309  31.0232099  16.0394217  20.7238834  31.1356957
  15.0170160  21.3916509  30.2414067  44.8795128  49.0119171  70.0231409
  45.5137491  48.2950354  70.0302839  45.2911186  49.6905422  69.4880867
  26.8284346  18.8821618  19.8109849  26.1617590  18.6116283  20.4423268
  26.3712193  18.8940351  18.9701303  69.4427109  35.2452421  68.3293772
  69.1538858  35.4019427  67.4303436  69.3421745  34.3012881  68.4521532
  30.0763484  65.5147055  18.4989007  30.7709048  64.8724011  18.3530553
  29.5234997  65.4506425  17.7201303  33.2375908  62.2424936  65.4101515
  32.5398302  62.8464222  65.6643724  33.7459397  62.7247143  64.7580194
  75.9162140  60.3830103  20.9453996  76.7153406  60.7351044  20.5534108
  75.2066517  60.8429865  20.4968865  77.4448491  12.2555845   1.5307267
  77.5149918  12.3422592   0.5800422  76.6769255  11.7000596   1.6645749
   3.0279781   5.6283967  25.8884366   3.9652563   5.7478301  26.0416539
   2.9676486   4.8061292  25.4021485   1.0395457  34.8056953  17.3959573
   0.9989573  35.7535522  17.2688802   1.4544321  34.4747941  16.5993341
  75.7085229  59.3052165  23.7899526  74.8547459  59.3222396  23.3575090
  75.9357584  60.2275626  23.9077886  80.3627682  56.0411136  24.7320684
  79.8458696  56.0084121  25.5370362  79.7139240  56.0063331  24.0292008
  44.2546917   2.6445405  23.4804566  44.8443056   3.0939882  22.8749974
  44.6393086   1.7746227  23.5879071  55.9790290   8.4441058  35.8644803
  55.2274001   8.7446372  35.3536351  55.6180861   7.7834861  36.4557012
  34.0944600  72.7848673  35.2155733  33.8080025  71.8787432  35.3300738
  34.7789001  72.9046965  35.8739161  52.5155592  81.7202166   1.0303433
  51.9551635  81.0480956   0.6424745  51.9853139  82.5167922   1.0071691
  48.7477303  52.4625301  60.4197311  48.3531618  52.2617865  61.2684107
  48.4077072  53.3290005  60.1964617  10.9711577   6.4579027  35.5444081
  10.7932068   6.3558881  34.6094449  11.7829872   6.9637697  35.5799039
  18.5714937  15.2533023  12.1566804  19.1702439  15.0171392  12.8651650
  18.4968067  14.4570081  11.6307767   4.1640879   1.6709841  45.5794859
   4.3621851   0.8782900  45.0808620   3.4387232   2.0772971  45.1051569
  26.1543775  63.2232761  63.7995481  25.5647492  63.9084578  64.1143465
  26.8233418  63.6931276  63.3015966  83.3333326  37.2989528  34.2758401
  84.0375996  36.6810767  34.0797170  82.9727388  37.5306480  33.4199651
   9.7632672  50.5909889   7.2290786   9.2696000  51.3869827   7.4263652
   9.0958573  49.9492042   6.9863542  46.7392015  75.4483509  62.3356628
  46.9203138  74.5272303  62.5226688  45.9029388  75.6206608  62.7683401
  60.1842422  20.9514110  10.3528531  60.6978054  20.9348266  11.1604436
  59.9604780  20.0346582  10.1924451  36.0712744  26.2486808   6.1517747
  36.8009735  26.2113397   5.5334027  35.3026177  26.0197036   5.6293138
  14.5939947  13.5752599   5.5493053  14.8304917  13.9786117   6.3845380
  14.7387053  14.2644660   4.9010118  66.9327516  31.5992992  38.3607228
  66.6686774  30.7131688  38.6082490  66.1514688  31.9783752  37.9580625
  75.8416105  37.9777686  20.1195081  74.8952175  37.9479043  20.2597936
  76.2109626  38.0734937  20.9973748  28.7135388  29.4981735   2.1978887
  29.3802620  29.9833171   2.6840480  27.8906323  29.7197645   2.6337274
  19.0512730  15.9560840   1.4423259  19.5672966  15.3727453   0.8858522
  19.2879130  15.7063358   2.3355563  30.6582285  46.6440456  19.4382985
  31.2923552  45.9408824  19.2980321  30.6866909  46.8077056  20.3809770
  62.3952890  45.9485404  17.7958901  61.6701717  46.0125987  18.4174474
  62.2960872  46.7157905  17.2322305  13.8769890  30.9188001   9.2197831
  14.4265486  30.3804700   8.6502011  14.4977213  31.3932292   9.7728093
  55.9627104  79.7943211  63.2712126  55.2269793  79.2022896  63.4275198
  56.7237329  79.3266582  63.6152554  16.7607486  45.8765554  62.5188017
  16.8524790  45.9511375  63.4686756  16.3450503  46.6968441  62.2531796
   1.2193729  54.0256278  12.0022805   1.1909629  54.6607082  12.7178891
   0.9391476  54.5200031  11.2320264  55.1287842  66.4174271  57.7507973
  55.1799297  65.6139755  57.2330379  55.8637094  66.3563108  58.3610296
  19.0054489  25.1256387  10.2428849  19.0487553  24.3638818  10.8208783
  19.9013973  25.4619329  10.2223142  20.2718807  38.2780425   5.4273732
  19.3878866  38.5812442   5.2203639  20.5506207  38.8322656   6.1563285
  42.3594952  71.5921402  53.5105562  42.3545074  70.6643772  53.7460661
  43.2711506  71.7770672  53.2849073   0.7996799  28.7683694  23.9754422
   0.3606583  28.8966720  24.8162969   1.7140175  28.9947526  24.1456349
  30.1411033  66.0618734  59.8194551  30.3898311  65.5890751  59.0252113
  29.2204762  65.8368397  59.9537611  56.8906498   4.3325747  56.8278933
  56.3641453   4.3467082  57.6271582  56.6899300   3.4884108  56.4237499
  62.5004125  25.9400786  43.9358950  62.4328947  25.6926669  44.8580980
  63.3339167  25.5674876  43.6483574  14.9844195  31.8339412   2.6583655
  15.0071598  30.8866565   2.5228484  14.3516947  32.1528404   2.0147832
  71.8187857  19.2544688  42.3160934  71.1809922  19.9588717  42.4312353
  71.4733506  18.7348879  41.5901852  45.1302910  65.1033449  57.8247166
  44.7660589  64.3866825  58.3442926  44.4197989  65.7421255  57.7664948
  33.3179404  21.4045446  15.4586633  33.9654518  20.7820861  15.7895883
  32.6343371  21.4178769  16.1285432  77.7582443  42.3641937  31.5978845
  77.0710672  43.0047481  31.4143022  77.4268330  41.8646209  32.3440965
   9.7011591  23.8788812   7.6007636   9.7476579  23.6531179   8.5297950
  10.2817489  23.2500617   7.1721204   5.8387400   1.6655291  25.5631852
   6.2322641   0.8270110  25.3218222   5.8258129   2.1674574  24.7482371
   1.8639017  49.3499820  11.5514215   1.7086078  48.8823097  12.3720296
   1.1883403  50.0277774  11.5304788  50.3028846  20.9060038  62.9105663
  49.7160125  21.1740530  62.2034883  49.7492218  20.3943003  63.5003567
  57.0011259  19.5690601  21.7786153  57.5026156  18.7980668  22.0437654
  56.3018919  19.6352546  22.4289449  79.8498035  39.6271961  23.8674386
  79.5941330  38.7585990  24.1779359  80.5760504  39.4624011  23.2660802
   8.6574293  35.1415460  12.1462377   9.2891813  35.4370849  12.8018125
   7.8212048  35.5037801  12.4390634  38.4446026  26.2701623   4.7328504
  38.8190438  25.3898113   4.7646268  39.1285778  26.8345086   5.0932963
  13.8503004  17.4351423  14.1425927  13.8814617  18.0522792  13.4115632
  14.7671677  17.2198026  14.3135007  80.9351516  27.5404565   1.9598182
  80.6599427  27.7532976   1.0680802  81.4047361  26.7107837   1.8739589
  21.7216946  65.5933540  16.1046918  21.2766577  66.3819187  16.4150842
  21.8431736  65.0615756  16.8912633  25.5087734  56.9859283   4.8138793
  26.0714461  57.7515762   4.9296983  26.1177040  56.2561290   4.7006162
  79.9322820  38.3824842  33.6960824  80.2500773  38.6436574  34.5603879
  79.1209269  37.9064290  33.8730081   8.8946272  29.6628321  47.8720236
   8.0820251  29.2723120  48.1935835   9.5710350  29.3264521  48.4598541
  28.7248683  78.6467838  47.0327806  29.2987180  78.5200262  46.2772274
  28.5014319  77.7599382  47.3152971  64.9642528  18.3279054  10.0593694
  65.3323484  18.1173103   9.2012342  64.1998012  18.8703601   9.8654969
  17.0680023  50.2979152  16.4415582  17.9778315  50.1731937  16.7115243
  17.1272351  50.7682960  15.6100209  18.7530352  41.2901847   9.4132550
  18.8527704  41.1696117  10.3575738  19.3934275  40.6930034   9.0265878
  43.9431835  55.0381343   7.8962930  43.2647825  55.0746505   8.5705884
  44.7356583  54.7809188   8.3675225  56.1245441  50.3717661  70.7520151
  56.9804001  50.2917099  71.1731291  56.1201715  51.2556028  70.3845215
  19.3466568  62.3648834  51.3516426  18.7555456  62.3378849  52.1040297
  18.9768505  63.0381823  50.7805538  79.2589521  45.9049225  54.9028826
  78.8307476  45.9726143  55.7562828  79.7849369  46.7017651  54.8349476
  59.0268449   9.6545474   5.7026704  59.2020784   9.2327087   6.5438493
  58.7691315   8.9369790   5.1239617  54.4863510  66.4469242  70.3693867
  54.6565056  66.2152910  69.4563580  53.8382339  67.1496868  70.3214121
  11.4592863  29.6938436   1.9192393  11.2013270  30.2524583   2.6524766
  10.6964470  29.6900909   1.3410552  44.3896700  10.3816001   0.7763656
  43.8166214   9.9308412   1.3965781  44.7522331   9.6818321   0.2331336
  14.9069096  28.1427305   4.3424256  14.5953203  27.2380273   4.3680318
  14.1293169  28.6578672   4.1274484  49.3180561  77.3213339  66.3360310
  48.8769770  77.1482992  65.5043221  48.6677456  77.7901649  66.8590260
  31.5978981  41.0936801   3.4127076  31.6295696  40.3324859   3.9922078
  32.3181893  40.9564178   2.7974303  34.5442486  45.4614925  28.8412905
  33.6535454  45.7445717  29.0480375  34.9803638  46.2534475  28.5268974
   9.0714790  15.3419893   9.5514520   8.6816503  14.6157901  10.0381787
   9.9943997  15.3322856   9.8051389  42.4301100  67.2829962  55.3678894
  42.6367998  67.5601292  54.4753075  42.0803642  66.3975048  55.2688217
  32.9752804  62.0420234   9.3271478  32.0506121  62.1034210   9.5668252
  33.4355522  61.9741981  10.1636727  35.7870364  49.4814491  67.0466566
  35.0435138  49.4410563  66.4451790  35.8854938  48.5846043  67.3663425
  27.6820135  56.0137892  69.1146612  27.5463438  56.9579792  69.0350962
  26.8180799  55.6653929  69.3348169  15.7958675  79.7494177   5.8589395
  16.3092113  78.9415172   5.8563359  16.2992788  80.3512982   6.4071591
  47.7267910  31.5752475  14.4741948  46.8926598  31.1097448  14.4128449
  48.1749321  31.1670940  15.2150090  24.4342114  21.6850536  20.0969155
  23.8610865  20.9206312  20.1553567  24.2276980  22.1994655  20.8772786
  85.5396534  18.7790267   0.6782706  86.2015010  19.3440788   1.0768970
  85.3131462  19.2172830  -0.1420085  67.7295686  36.9942825   2.7530463
  67.3789293  37.7942579   2.3614820  67.0800460  36.3220851   2.5468715
  23.7437082  45.4790847  10.4462464  23.9732243  46.4050739  10.3681691
  23.9860703  45.1001899   9.6013005  20.8965088  14.9340598  20.5462487
  21.7584206  14.9360006  20.9625848  20.6191994  14.0183275  20.5739530
  16.9872833  44.0543907  24.2573007  17.5387837  44.3452995  23.5310395
  16.0918213  44.1785972  23.9427312  16.3333845  53.9640617  60.3339672
  16.4276254  53.0410242  60.5692196  16.1039090  54.3983936  61.1555099
  86.3285685  28.7236326  34.7293695  85.8534480  28.5583227  35.5437215
  87.2463871  28.5672252  34.9515851  35.7254435  24.2317979  19.6211656
  36.2549235  24.9935930  19.8568471  35.8915592  24.1043632  18.6871369
  29.3666578   9.0094106   1.5928157  29.6722294   8.1696861   1.9359191
  29.2676045   9.5628946   2.3674615  44.1543674  75.7854414  63.5764885
  43.7579298  76.6148901  63.8431072  44.1300583  75.2438450  64.3653584
  34.4771409  73.2688189  50.0772381  35.0414133  73.0945969  50.8305454
  33.7504148  72.6535559  50.1749659  39.1805769  47.9924171  15.2936395
  38.8676287  48.0943076  14.3948014  38.6431147  48.5977523  15.8044560
  61.5705371   8.7914790  41.2444592  61.3797236   7.9216994  41.5956068
  62.0164442   8.6221922  40.4145527  65.4084373   8.7129248  54.4981956
  66.2063694   8.2088603  54.6577406  65.4829550   9.4697035  55.0795364
  22.4429966  12.6325719  42.5856717  22.9346777  13.4280794  42.7897580
  22.7746845  12.3587482  41.7305501  35.8489871  55.8823633  64.5344400
  36.0177779  55.7636833  65.4691362  35.8798456  54.9972916  64.1712141
  40.8989836   3.7762420  53.9814885  41.1549545   4.4790523  54.5787938
  39.9684597   3.6384265  54.1585954  77.5988579  35.7397144   7.0631202
  76.8112529  36.2510984   6.8776591  77.6610256  35.1227062   6.3339646
  48.1482531   9.6804540  12.8035291  47.5728012   9.0045659  12.4453862
  48.9281203   9.6493070  12.2493871  25.6987263   0.4974096   2.1737130
  25.4680468   1.4144819   2.3220189  26.6554142   0.4930751   2.1427043
  74.0983010  37.9258288  64.9330473  73.6746216  37.1119154  64.6605110
  73.5962153  38.2135523  65.6955147  68.9736414  58.1339884  56.4041090
  68.7643099  57.3889017  55.8408451  69.1432762  58.8536119  55.7961655
  78.8536787   0.6893576  55.0608444  78.7242842  -0.2031194  55.3817463
  78.2718182   1.2246169  55.6004381  10.1460124  50.3183429   4.2125733
  10.5982519  50.4556148   5.0449594  10.6984950  50.7558601   3.5648282
  67.8111006  26.6387050   6.2660964  67.5864054  27.3426359   5.6576379
  67.9676462  27.0831649   7.0992740  69.3669224  49.2710495  49.0850544
  68.7893629  49.4266129  49.8323536  70.0225878  49.9662304  49.1402912
  82.3402191  11.3570468   4.3344148  83.0153609  10.8595912   4.7958835
  81.6940976  10.7002370   4.0748723  77.1559334  81.1679343  18.9138539
  77.3077155  80.8249668  19.7945149  76.3457919  81.6720990  18.9894994
  86.4865733  61.0214107   6.4539321  87.4384547  61.1198394   6.4323934
  86.2419391  60.8586471   5.5429490  26.7651344  32.1589820  10.4202683
  27.6354386  32.5049798  10.6179841  26.8985630  31.2160890  10.3234227
  10.3921057  47.5085895  23.1006368  10.4240109  48.3987682  22.7501901
   9.7357370  47.5484054  23.7962087   1.3027168  52.9082839   9.0170749
   0.9645678  52.5353591   8.2029374   2.0283366  52.3334758   9.2605908
  46.4571428  68.5686922  63.6913824  46.6130161  67.6381397  63.8526678
  45.7755327  68.5844421  63.0195332  69.6504736  81.0209942  63.8560915
  68.9533329  80.4102612  63.6168432  69.2627144  81.5729618  64.5352125
  85.3639150  64.1935127   8.8247426  84.9640275  63.7079685   9.5462449
  85.2979398  63.6038654   8.0736144  47.6838112  80.0108528  54.0176105
  48.5847282  80.2578259  53.8088322  47.2245407  80.8444118  54.1199636
  13.7991787  55.1664417   0.7585748  13.3268191  55.2454536  -0.0701968
  13.2768561  55.6722514   1.3811238  51.7567850  23.1023996   4.9069484
  52.2439123  23.6857860   4.3250545  50.9261299  23.5534971   5.0578244
  51.8389988  73.1039619  60.0779247  52.7061462  72.9648113  59.6972370
  51.7276955  72.3781347  60.6919384  59.8509837   9.6971644  57.5351524
  59.8068476   8.8394011  57.1126413  59.8370433   9.5034731  58.4724474
  30.2621961  71.0541964  69.0752363  29.6759653  71.8107843  69.0631485
  30.5348110  70.9770155  69.9895382  12.8893019   3.1101264  67.8308392
  12.4341703   2.2906817  67.6369333  13.1768299   3.4323443  66.9765949
  75.6680966   4.7314967  22.7453995  75.7315445   3.7771834  22.7066755
  75.4579115   4.9941195  21.8492508  32.4785353  50.6725566  18.8173707
  32.6834274  49.8401706  18.3914979  32.9394413  50.6327026  19.6553548
  28.7638594  21.4250963  24.3356641  28.8453509  20.7792632  23.6338933
  29.3932463  21.1397855  24.9980100  67.0554156  12.4568908  18.7484963
  66.5046192  11.9723003  18.1336625  67.7417589  12.8415601  18.2033380
  10.6510807  13.6321227  26.2617333  11.0903956  12.7929036  26.1240895
  11.1193682  14.2436569  25.6934293  29.9555136  27.1227424  29.6985753
  30.0276781  27.5412290  28.8407357  30.7623984  26.6152971  29.7861512
  11.8900454  67.8227377  40.9185791  12.1908128  67.4677229  41.7550802
  11.4636242  68.6483622  41.1482334  11.5413548  54.9986713  20.4482587
  10.7394100  55.4265277  20.7483514  12.1143891  54.9991004  21.2149842
  84.1170311   8.5558165  54.5855427  84.0737868   7.6279009  54.8164845
  83.4845591   8.9771975  55.1674747  83.7249470   9.7517555   5.7171233
  83.3009315   9.2130344   6.3851245  84.5520664   9.3044393   5.5381949
  33.7491083  60.4275417  62.9161596  33.6577034  59.6461201  62.3709440
  32.8522253  60.6544399  63.1618166  85.4933453  32.3813857  64.5069075
  85.8142329  32.0755900  65.3552866  85.2593089  33.2975710  64.6554327
  14.0037800  46.8148010  23.8582166  13.6731316  47.7034824  23.7273248
  14.2097355  46.5036170  22.9767545  23.9813973  18.6042230  25.6323464
  23.0619837  18.6473052  25.3695615  24.3914677  19.3487041  25.1920922
  18.3965946  29.1754215  15.9965547  18.4532334  28.2749049  15.6770356
  19.1444184  29.2675798  16.5868981  74.0383387  72.8565196   5.5100568
  74.5291567  73.1643204   6.2720235  74.1500187  71.9059233   5.5212338
  17.3713185  17.8098361  11.6316350  17.9707552  17.0746915  11.7599710
  17.6855971  18.2390373  10.8358701  51.5493489  76.0145072  19.8028691
  52.1004176  76.2676195  20.5434735  51.5512109  76.7812542  19.2298730
   5.2078010   3.2093303  42.7657731   4.6381546   2.4419133  42.7128156
   6.0515739   2.9047935  42.4317964   6.8168641  35.2158086   7.6449092
   5.8963371  35.0343482   7.8344710   7.3009683  34.6132057   8.2094796
  14.5571400   9.2332475   8.8417371  14.3493487   8.3208387   8.6403354
  13.7058426   9.6467607   8.9850267  67.9167390  29.5245780  25.6250572
  67.8405595  30.1082743  24.8702598  68.7561131  29.0814246  25.5013800
  25.8991648  10.8942334  22.0684560  25.2519013  10.6266801  21.4159997
  25.5676056  11.7255561  22.4078591  37.4646831  79.6350384  46.2775946
  37.8848290  79.5581913  47.1342182  37.4525785  78.7410641  45.9356976
  77.3880053   7.2750128  55.7291746  76.7107725   6.6531981  55.9955120
  77.2179175   8.0550993  56.2571478  66.1274004  74.9573946  43.1491423
  65.6592226  74.7734833  43.9635277  66.1793804  74.1104221  42.7062368
  25.3392029  76.6448212  43.7990808  24.6040559  76.0320950  43.7803125
  24.9856997  77.4303341  44.2164993  40.0850989  39.5079200   8.7424453
  40.2554775  39.6382587   7.8095897  40.5619265  40.2166908   9.1743215
   5.5220748  34.1261165  14.3495687   5.8813692  34.9691026  14.0729650
   5.2018977  34.2821472  15.2380403  48.1155694  12.9799212  36.0467315
  48.8372648  13.4940756  35.6847477  48.5437453  12.2740878  36.5311790
   5.0130154   7.3167838  45.2154589   5.6458879   6.8272151  45.7408333
   5.0385357   6.8958987  44.3561363  69.0560150  59.5653057  68.9104557
  69.8589325  59.9427223  69.2697811  69.1166306  58.6325550  69.1166878
  37.3746348  13.3636893  49.0291166  36.5627390  13.1533087  49.4904137
  37.1025712  13.9433897  48.3176708  14.6090485  44.9964969   3.9322742
  15.0089384  44.3745105   3.3244451  13.9000059  44.5045535   4.3463738
  35.0346470  70.4914141  52.4753904  34.9196863  69.5449305  52.3906231
  35.9759307  70.6077385  52.6045656  40.1533295  62.8344028   6.6650708
  40.1968075  63.7734763   6.4848455  40.4572083  62.4211089   5.8569415
  18.7221600  68.7562435  24.2333158  17.8562666  69.0589492  24.5068582
  19.2629410  69.5460479  24.2330106  67.1243311  35.5266206  19.2777570
  67.0412661  36.2955777  19.8417028  67.5623442  35.8524387  18.4914811
  31.0871530  70.8295441  41.1051369  30.9366798  70.2851534  41.8779421
  31.0521293  71.7276764  41.4343309  19.7448469  35.4361884   0.9852107
  20.3968693  34.9100749   0.5222781  19.5497061  34.9339645   1.7763598
  30.4097128  81.6208649  60.9445953  29.9335337  82.3863983  60.6229591
  30.5652690  81.0899544  60.1634645  29.5659852  55.6181765  63.1499004
  28.8926125  55.0071812  63.4490395  29.5643497  56.3159847  63.8051033
  68.0183077   6.8972624  69.0808630  67.6788879   7.6842345  69.5071268
  67.7372194   6.1782111  69.6467161  32.7756382  43.0246608  26.8507035
  33.0514456  43.5303562  26.0862191  33.0374647  42.1259754  26.6505845
  69.9232054  42.4858046  63.0463123  70.1642990  43.4009600  63.1898165
  70.6230402  42.1375465  62.4938774  22.0303560  26.4082639   5.0101836
  21.4772297  26.9803636   4.4782193  21.9844414  25.5574958   4.5739396
  15.3525664  64.2387454  29.4038804  14.6978022  63.6423271  29.7669156
  15.2903105  64.1149967  28.4567578  53.2730128  48.1308143  18.4094461
  53.5623957  48.5172050  19.2360051  54.0388037  48.1866138  17.8378900
  63.5454483  40.6371658  21.9122918  63.9571435  40.4003780  22.7433522
  63.0714584  39.8491161  21.6466935  45.0668347  20.9670199  66.9173622
  44.4744254  20.9428061  66.1659002  45.7480276  21.5904749  66.6653442
  84.8919487   8.5577906  47.0576239  84.6215248   8.0076254  46.3224888
  85.4397917   7.9862822  47.5956631  70.3309345  46.1526823  59.7402382
  69.9646139  46.5560865  60.5271959  69.9288797  45.2846575  59.7067165
  80.2829266  69.9628115  18.1649578  79.9829531  70.0943327  19.0643752
  81.1807442  70.2946615  18.1609702  33.4930158  80.6348515  55.4841661
  32.9854226  81.4120865  55.2507496  34.2360091  80.9748554  55.9827614
  33.1411148   7.1077602   4.0657075  32.2140051   7.1853893   3.8406070
  33.5975529   7.1733682   3.2269033  10.7142282  76.1366510  61.7671967
  10.9050489  75.2554464  62.0885897  10.3133131  76.5821934  62.5135136
  19.8374249  44.6196716  14.8652108  20.5086924  45.2827422  14.7040589
  20.3204514  43.7941615  14.9032338  84.6396137  32.4497144  20.7772859
  85.5296994  32.5391261  21.1178525  84.2884541  33.3401077  20.7881291
   5.0348188  21.9368570   3.2270845   4.2141701  22.4135892   3.1026013
   5.1056744  21.3762014   2.4545081  67.1669292  56.7213583  38.3200216
  67.0884562  57.2196150  39.1335416  66.2629557  56.5519857  38.0547428
  75.1188851  12.0556419  11.4567407  74.7181762  11.8764369  10.6061299
  76.0267735  12.2789304  11.2515386  40.7999480   5.6710757  52.0104027
  41.0913289   5.2488364  52.8185129  40.9591520   5.0186003  51.3283777
  81.4605236   3.9738692  61.9702625  81.5438605   4.4146288  61.1246777
  80.9509707   3.1860865  61.7805433  40.4445076  66.1366177  67.2708130
  40.4707861  65.2812719  66.8419409  41.2856054  66.5390205  67.0543575
  76.1752463  15.1820029  64.6200514  75.3398419  14.7876395  64.8706770
  76.8037892  14.8337401  65.2524090  47.5066090  74.3420649  66.0923243
  47.9903173  73.8997412  66.7898941  47.2797585  75.1953459  66.4620256
  62.2704506  10.8211268  50.5454493  62.4722958  10.3472651  49.7386360
  62.0212627  11.6976489  50.2524614  17.2063948  14.2613094  30.4926713
  16.4565731  13.8039796  30.8732637  17.7281738  14.5349281  31.2470658
  44.8062801  71.8162298  52.1854210  44.9576664  72.0719051  51.2755108
  45.1037216  70.9075880  52.2315502   4.3531443  32.4646871   3.1691154
   3.8089110  33.1345479   3.5830339   5.0392319  32.2829883   3.8113769
  53.5526205  69.5082443  15.2577527  53.8925577  69.2408912  14.4038232
  52.6257826  69.2705219  15.2316983   7.3871733  65.1075141   3.5983165
   6.7387391  65.7950942   3.7499364   7.1400834  64.7269122   2.7555068
   0.3010250  26.5751685  50.7811975   0.8770729  27.3303069  50.9002256
   0.8908201  25.8585680  50.5469799  46.5296888  75.7410765  68.8872337
  47.2996044  75.2638721  69.1966486  46.8382502  76.6385841  68.7627029
  20.4474568  68.8590717  38.0770397  20.6564975  69.5342255  37.4315143
  20.3308320  68.0617094  37.5604701   3.5479189  37.7175300  17.8468545
   3.7150575  38.1812064  17.0263036   2.7363206  37.2353904  17.6884873
   4.3058087  29.8882739   2.0169051   3.4955050  29.9246518   1.5086587
   4.6969057  30.7549255   1.9064935  67.9836512   7.9635275  51.2325764
  67.7898336   7.4729384  50.4338360  68.9189077   7.8222502  51.3794327
  36.5866972  41.9826095   1.3036712  36.5544201  42.5889461   2.0436366
  37.2493626  41.3377445   1.5511592  72.5379610  35.5606020  63.8702726
  71.6119480  35.3184355  63.8604879  72.7862549  35.5951823  62.9464865
  13.7343909  46.7785232   6.0813029  14.5967461  46.5265243   5.7510312
  13.1741739  46.0274188   5.8857902   7.4526216  56.3474147  35.7488568
   6.5374566  56.1933677  35.9833272   7.9202653  55.5886237  36.0978158
  19.2681624  58.2406108  13.3889134  19.5843674  58.8602130  14.0464433
  18.8799597  57.5287978  13.8976892  18.1022573  35.4842318  39.6499300
  18.2322145  35.7021368  38.7269688  18.4412456  36.2428320  40.1251602
  24.8564364  11.9981973   7.8530725  25.4640986  12.5794523   8.3103641
  25.2412392  11.1268918   7.9478915  19.0363337  24.6687763  21.0096391
  18.8521696  23.9855926  20.3649934  18.5208107  25.4200761  20.7163461
  17.2394431  68.5262585  44.8411751  17.1302462  67.6181078  44.5590878
  16.3603687  68.8046265  45.0980282  53.7568570   5.9677542  41.1280298
  54.2579890   6.3544501  40.4099989  53.7271881   5.0331820  40.9232998
  42.3750807  37.8747146  11.0370954  41.8578745  38.6376684  11.2952169
  41.7500044  37.2999399  10.5953439  13.7554384  34.7772901  10.0439866
  13.0669523  34.1616027   9.7926934  13.8910319  34.6168678  10.9778531
  17.1460797  76.0008209  30.6282743  17.7450110  76.2916438  31.3159783
  16.4754082  75.4987972  31.0913022  13.0550218  77.1584368  49.0730524
  13.4669614  77.9006100  49.5154476  13.1677520  76.4258957  49.6787834
  77.7336431  58.5868900  12.7596887  77.4830771  58.6946456  13.6772092
  78.1439162  57.7228324  12.7233346  47.0040013  60.2078216   6.2586482
  46.7660547  60.9450214   5.6963761  46.2299801  60.0618331   6.8025287
  50.1566124  64.4094515  61.7558527  50.1220655  64.5692158  62.6989937
  49.3763399  63.8860846  61.5728474  43.4075212  67.4024868  57.9065037
  42.9637194  68.1457949  58.3148718  43.1821775  67.4692822  56.9786119
  64.0385199  77.3137236  68.2447910  63.1655693  77.6527071  68.0466032
  64.6340704  77.8934765  67.7699900  20.2457358  30.9826724  25.6067880
  19.3429066  30.6753509  25.6885655  20.6363560  30.4063527  24.9499066
   1.6768623   3.4011782  47.4544954   1.3599134   3.6816634  48.3130407
   2.5269104   2.9988230  47.6327229  10.4277016  25.5924071  57.0103788
   9.9394632  24.8183955  57.2910261  10.9534813  25.8334864  57.7730465
  47.3266579  47.0379321  18.4453233  47.4914671  46.0962550  18.4933885
  46.8584324  47.2407787  19.2551740  79.9861193  35.0216425  34.2435503
  79.4130850  35.0906886  35.0071573  80.6679058  35.6760348  34.3957758
  52.1319962  74.7836161  45.8645248  51.5216780  75.1992989  45.2554655
  52.7061129  75.4941177  46.1505556  58.1945134   0.3005446  40.6023598
  57.9036928   0.4229964  41.5060520  58.9266038  -0.3126871  40.6673574
  17.9367758  27.5981538   1.5221246  17.1455265  28.1318204   1.4489396
  18.4334446  27.7960651   0.7281573  80.9843970  22.4949873  59.5227671
  80.2643490  22.5900210  58.8992834  80.6466866  21.8967284  60.1892996
  54.9311543  11.7910231  25.6715345  55.2847672  12.6060236  25.3152204
  55.3560973  11.6981257  26.5241909  44.8898697  80.1727581  68.8277245
  44.9542761  80.9601307  68.2872343  45.2001333  80.4483128  69.6902990
  76.9630528  10.3407229  54.5188904  77.7444029  10.8866347  54.4310951
  76.7355919  10.3955973  55.4470491  66.7751741  68.5617542  51.3821697
  66.2000847  69.1898775  51.8191624  66.5537930  67.7187634  51.7778921
  78.7199688   3.0729998  19.4673634  78.8257599   2.2677840  18.9607251
  79.2121888   2.9154528  20.2730513   1.9905950  61.6064136   2.7052911
   2.2973300  62.3269145   3.2557757   1.0388566  61.7069595   2.6875432
  49.0129900  69.6508503  61.7131281  49.8742199  69.6208525  62.1297932
  48.7304115  68.7368679  61.6811848  20.1060940  66.3155974  62.5286007
  19.1664720  66.4906920  62.4767351  20.4850508  66.8284167  61.8147087
  19.5628716  46.9398181  10.0151094  19.4299389  46.1424796  10.5277570
  19.7799374  47.6086871  10.6645043   2.4440122  76.9516659  33.7858582
   2.2624517  76.0119772  33.7699342   2.1057249  77.2751522  32.9509068
  79.2069244  37.4692488  61.8378401  78.7443686  36.6416216  61.7062759
  79.7678423  37.5553036  61.0669994  60.1656413  15.2874888  36.0893440
  60.0510478  14.3407954  36.1723328  59.3017364  15.6119479  35.8351350
  44.7998047  81.5879345  60.1328087  45.0579643  81.2289429  60.9817553
  44.8444319  80.8425236  59.5339775  61.7254687  26.0151232  66.8002558
  62.0301891  26.8050803  66.3537836  62.5212074  25.5069483  66.9577217
  53.0372143  78.5492706  34.4070005  52.8458452  78.2612658  35.2995610
  52.7482986  79.4615030  34.3825483  40.6575871  71.7116928  58.2929754
  39.7671008  71.8577766  57.9737234  41.2086773  72.2403049  57.7158213
   6.6079784   7.8917349  64.8488855   7.0883489   7.8678931  64.0212917
   7.2404075   8.2290972  65.4832745  62.4311900  17.2947348  70.1521873
  62.4913979  17.7968157  69.3394613  61.4917732  17.1722067  70.2889919
  84.2057586  33.7191503  30.9205087  84.1675902  33.5538022  31.8625482
  83.2942796  33.8614433  30.6651910  54.1434615  72.5989305  53.8701868
  54.0225612  72.5514673  52.9218388  54.8923259  72.0289510  54.0449905
  26.2543106  35.1950932  67.5340128  25.5138874  35.6537247  67.9310799
  26.1771989  35.3809142  66.5981960  64.2327356   2.6526529  62.1756649
  63.3024597   2.4392538  62.1030092  64.6387553   1.8476003  62.4970245
  28.8565922   9.2773104  51.2933111  29.2098236   8.6450672  51.9191933
  27.9098749   9.1388816  51.3214779  18.3254051  59.7065913  58.6093616
  18.0496311  60.0372373  59.4642591  19.0998935  59.1760384  58.7962246
  31.5955997  18.8173962  61.3398504  31.4125061  17.8779972  61.3553095
  30.7674217  19.2185271  61.0763264  19.7579574  66.3025736  42.0808029
  20.1612711  65.9100961  42.8550959  18.9682483  65.7824110  41.9323921
  85.1939202  70.1057557   5.2175744  85.2994728  70.1704410   4.2684157
  86.0780430  70.2223090   5.5653842  49.7849798  14.3454742  39.7893786
  49.9446392  14.8528814  38.9935899  50.4599094  14.6401978  40.4008055
   2.5423765  53.1738626  44.9739981   1.7660927  52.8833639  45.4527760
   3.0365848  52.3708426  44.8092222  55.8363080   0.4894145  47.1209383
  55.6237149   0.5838126  48.0494452  56.7179274   0.1166828  47.1137762
  82.3767516  12.9021084  62.6162624  81.8717253  12.4441850  63.2881880
  83.2309165  13.0541086  63.0206490  11.0751629  63.5588001  59.2463017
  10.7104253  64.1710984  59.8852777  10.8536315  63.9393412  58.3963966
  55.2172112  72.1452110  50.7382059  55.5234528  71.2911593  50.4331779
  55.9807976  72.7166139  50.6565571  39.8932159  37.3399318   0.1759275
  39.3142140  36.9418690   0.8259566  40.5905342  37.7444035   0.6920512
  11.3204253  18.1720853  67.2656393  10.8389115  17.4121237  66.9387770
  12.1324289  18.1772506  66.7588282  63.1195330  12.2097397  35.4068732
  63.3181190  11.4206386  34.9027777  63.7650895  12.2112525  36.1136174
  48.9910341  58.6258308   5.5207427  48.8075853  57.7145163   5.7489617
  48.2613135  59.1183773   5.8964284  53.0912476  80.5298517  55.9642315
  52.7077960  80.4926657  55.0879860  53.4419279  79.6511630  56.1097002
  48.5719746  78.1013276  57.6995802  48.6316823  77.4205743  58.3698320
  49.3171375  77.9350330  57.1222496  65.9185558  80.7316790  64.2410088
  66.5040492  80.6238871  63.4914684  65.8582466  81.6790890  64.3635178
  41.4923512  66.0100912  14.5615542  40.7524835  65.4098891  14.6542132
  41.2063240  66.6429590  13.9028442   5.6172084  71.5727042  63.4215450
   5.9227872  71.8831085  64.2738962   6.2704849  71.8954550  62.8008270
  -0.3648377  52.6287638  59.1787624   0.2622032  51.9891440  59.5163059
   0.1753187  53.3643567  58.8900280  32.1770358  24.1343951  30.8143759
  32.3772836  24.7309065  30.0930524  31.6405177  24.6540427  31.4129972
  81.5228653  60.0165311  26.6109403  82.0387793  60.5675045  27.1995767
  80.9125758  60.6218413  26.1897786  21.9871616  19.3341208  31.5987849
  22.0974874  20.2840948  31.6389132  22.7524686  18.9846230  32.0552802
  79.1385847  37.4290061  14.3859017  78.8992106  37.5828433  15.2998316
  78.3174252  37.1796107  13.9619541  23.0377055  56.6002218   7.0439561
  23.3845932  56.7273501   6.1609300  22.2639209  56.0504595   6.9204648
  20.6825066   4.7266862  56.3240337  21.4504719   4.4935343  55.8024025
  20.5198693   3.9563426  56.8684149  29.1754865  50.0049769  69.5717287
  29.5559406  50.7487380  69.1044950  29.0770149  50.3130495  70.4726315
  54.5114090  65.7788395  13.1011558  54.4937386  65.9468256  14.0433347
  54.7857612  66.6104709  12.7146947  79.1373204  74.9941718  43.1707478
  78.4592389  75.6678378  43.1196404  78.7441754  74.2980712  43.6971664
  47.4956619  44.8705791  66.7536096  47.0055198  45.6906764  66.8122087
  47.2175466  44.3700014  67.5206207  68.2748436  69.7986232  49.4888401
  68.1846284  70.7239257  49.7166777  68.0109107  69.3301367  50.2807331
  19.3437469   7.1343577  56.2013817  19.1977549   7.5588834  57.0467806
  19.9423754   6.4131731  56.3957262  43.7735176   8.4772968  41.6795826
  42.9224920   8.0399483  41.6529322  43.8821363   8.7343508  42.5952005
  63.1805634   8.4245610  70.5978775  62.5212717   7.8861719  71.0357189
  62.9351520   8.3987862  69.6730328   5.5705928  51.8097412  14.7933877
   5.1832842  51.4366948  14.0015149   5.4137921  51.1509978  15.4699254
  24.8608255   8.5374510  40.2438498  24.5177364   9.0729153  39.5284462
  25.6336713   9.0125060  40.5492449  79.2908400  10.8229232  61.3833761
  79.3403410  11.7667854  61.2320280  78.9892512  10.4621553  60.5496359
  26.4090371  30.2644467  32.6891518  25.9985042  29.8585033  31.9256687
  26.6712165  31.1337757  32.3862362  85.3493697  21.2232661  66.2447405
  84.7132208  20.5321312  66.4288092  85.7063686  20.9976101  65.3857517
  12.3355031  53.8247005  18.2289155  12.2706771  54.1094486  19.1404756
  11.9482410  54.5412127  17.7260526  82.4594712  39.8500657  44.1714239
  82.3302051  40.5452824  44.8165560  81.9220599  39.1248202  44.4899178
  68.5925651  44.4463817   3.5830386  68.9193750  43.9040957   4.3009170
  69.2883444  44.4189975   2.9262479  84.0908634   0.2863641  57.2112322
  83.3099347  -0.0799321  56.7962503  84.8194393  -0.1899253  56.8130398
  40.4235649  21.3230562  57.5288343  39.9266291  21.2800026  58.3457994
  40.4949045  20.4121327  57.2435999  65.2548600  58.9396850   6.3289769
  65.0090957  59.5033029   5.5953773  66.2008262  58.8258842   6.2371476
   8.0117654  61.7036759  21.3549399   8.3328318  62.5091111  20.9494472
   8.1480121  61.0295545  20.6891870   5.7561469   2.1602176  30.3368974
   4.9563211   2.6384568  30.5555248   6.1565691   2.6718590  29.6339631
  60.5428802  74.1656416  15.4957378  61.4689105  74.1296380  15.7353270
  60.2910656  75.0763219  15.6489801  85.1701910  16.4760375  40.7673025
  86.1006982  16.6654789  40.6468868  85.0711660  16.3522708  41.7112875
  49.0942305  78.6184244  70.1543140  49.8272370  79.1513457  70.4624224
  49.1274618  77.8296204  70.6955338  41.2711835  31.0256056   6.1890872
  41.5383375  30.6418589   5.3538592  42.0837367  31.0992203   6.6896565
   7.6513571   2.5837022  41.3422871   8.1123090   3.3699974  41.6346836
   8.1812721   1.8584575  41.6731071  67.3449517  55.9850422  18.5525258
  67.8870821  56.2272493  19.3032964  67.2753573  56.7891828  18.0379899
  60.4834639  68.7904715  54.4570827  60.2211081  67.9456018  54.8225927
  60.2305936  69.4288634  55.1239729  22.1270156  26.4712477  43.5549688
  22.7874446  26.7800951  42.9347467  21.2910104  26.6667175  43.1317472
  14.2219543  63.5806047   2.5287145  14.3500948  64.4087981   2.9912171
  14.0566206  63.8361656   1.6211984  36.7537195  46.5375546  25.6222947
  37.2370935  46.6508869  24.8039277  36.1739487  47.2979812  25.6653054
  72.7395510  70.4058253  24.8466659  71.8239676  70.4474949  25.1227140
  72.7425372  69.7826373  24.1201258  14.6043563  26.9654441  65.8412743
  15.4015183  27.4854875  65.7396936  14.3774581  26.6984057  64.9505234
  67.5783085  76.2891822  66.2038469  67.9847120  76.7869948  66.9132471
  66.9594341  76.9012954  65.8056688  51.0151350  68.4758710  59.6341944
  50.3596853  68.0395280  60.1784563  51.4354389  69.1033994  60.2222300
  71.4988088  75.9279334  20.6979847  72.0593475  75.1521122  20.6865883
  71.7844831  76.4409482  19.9420500   6.6814172   8.5653508  21.1505818
   6.6189229   9.5202750  21.1294723   5.7868564   8.2632482  20.9933352
  40.7396603  33.1456876  70.4556799  40.7937813  34.0644097  70.7188416
  40.9820747  32.6566315  71.2419987  26.3752398  47.9340181   8.3439000
  26.0319695  48.1062303   7.4671205  27.3139319  47.8012214   8.2117827
  37.3704672  19.6257246  36.8603349  37.3412728  18.9594126  37.5469255
  38.0010176  19.2871904  36.2246990  10.2419555  30.4918218  65.1608944
  10.8103037  30.8697701  65.8319855  10.1093984  29.5863247  65.4414940
  79.8920511  60.0916564  20.4699302  79.2544221  59.5999824  19.9523246
  80.6791257  60.1103627  19.9255061  78.4197902  80.9969085  39.8217845
  78.3278011  81.9262422  40.0318050  78.5547184  80.9776854  38.8743353
  52.6874685  18.4450090  65.2577782  53.2878637  19.1783464  65.3918409
  52.0501995  18.5243666  65.9675837   6.4225751  16.1527586  50.3185463
   7.3576427  16.0052001  50.4603434   6.3856304  16.9066143  49.7298479
  16.8020963  65.8646118  67.0724487  15.8761930  65.8225488  67.3115540
  17.2276783  65.2311002  67.6501799  23.6912227  35.6026554  16.6831565
  22.9506946  35.1705766  16.2575316  23.9017558  35.0390625  17.4276483
   6.8556380  80.4579571  48.8426876   6.2410712  80.0174921  48.2557249
   7.6301789  80.6167535  48.3031511  11.9024265  64.9331597   6.7185958
  12.8402579  64.8690108   6.5380748  11.5498102  64.0819219   6.4591964
  14.3871677  33.8061690  45.4175186  14.4577134  33.4029198  44.5522785
  15.0274420  34.5175576  45.4031467  71.0134970  79.6142093  67.1237040
  71.3653623  78.7639975  67.3874474  70.1553356  79.4129338  66.7505026
  22.6249099   2.1999374  13.5652816  22.9816723   1.8270792  12.7591002
  22.1119809   2.9537934  13.2740128  83.1306218  64.2537247  64.7805643
  82.2487568  64.1345333  64.4279480  83.5787343  63.4299933  64.5884848
  40.0661802  23.5200524  44.0568590  39.6397543  22.6689434  44.1568756
  40.8836460  23.3259606  43.5982609  69.0511834  60.9271990  52.5462294
  69.0015065  61.5055787  51.7851496  69.1266154  60.0483071  52.1746254
  67.3498487   3.8446438  66.0528326  68.1280982   3.6497402  66.5749168
  66.6451668   3.9279827  66.6952562  47.1991682  62.0587281   9.5497926
  47.4353338  62.1974758   8.6326201  48.0103267  61.7644504   9.9641069
  56.8277119  76.6900544  28.9347839  56.8402813  76.5047269  27.9957795
  57.6392960  77.1716936  29.0947413  27.8603454  53.0802790  17.8962358
  27.6013412  53.1078509  16.9751580  28.0128175  53.9959697  18.1296762
  34.2759395  23.1665468  57.4731731  34.7015285  23.9057994  57.9074669
  33.3600688  23.2237244  57.7454662  85.8974932  18.4513962  33.2037783
  86.2107979  19.0983081  33.8359022  85.4582420  17.7887857  33.7369180
  80.2732538  65.8409201  60.5233383  80.9301256  66.0094725  61.1988688
  80.6467699  65.1339101  59.9971676   1.9931544   5.7659096  52.4564505
   2.3766547   5.8506501  53.3293629   1.0517350   5.8659649  52.5976944
  19.2754054  76.2526850   0.9121306  18.8002599  77.0374683   1.1852344
  18.6778593  75.5308369   1.1073382   7.1889877  68.4850394  69.6641684
   7.4486851  68.7992035  70.5302477   7.1203851  69.2779731  69.1323996
  47.0934748  78.1445145   9.8391551  46.6613697  77.8384696   9.0417504
  47.5581919  77.3758142  10.1698661  85.0434781   7.1490114  18.1004842
  85.5039097   6.3703840  17.7874692  84.9946190   7.0330970  19.0493806
  11.8003678   9.9733698  35.5334544  12.2095406   9.6235436  34.7419810
  10.8615208   9.8529655  35.3909731  50.7228088  17.1636236  49.0031862
  50.1221085  17.1272111  49.7475386  50.8269548  16.2508059  48.7345791
  71.2012768  42.0019720   5.3840240  71.3226223  42.2443736   4.4660123
  70.5745316  42.6426608   5.7200892   7.4840516  14.4693434  46.1571074
   8.3308488  14.1476381  46.4664173   6.9387907  13.6852324  46.0931349
  45.6566620  78.5527374  31.0315299  45.0449991  77.8182348  31.0826087
  45.1958799  79.2779284  31.4534402  43.1340599  79.2069617   5.8651193
  42.2820330  78.8535633   6.1208375  43.4650660  79.6306839   6.6570361
  29.2641950   8.6554998  38.3612275  29.6456361   7.8681231  37.9729319
  29.3060899   8.5015297  39.3050313   5.2672392   4.2011297  54.5420694
   4.3735868   3.8709682  54.4492817   5.3070325   4.5360413  55.4378843
  57.7444768  62.1990970  10.4696401  57.3054624  61.4059309  10.1624234
  57.0996571  62.6267842  11.0331376  61.2473362  78.1872987  50.2865887
  60.6217896  77.7986347  49.6751451  61.6823261  78.8734247  49.7803831
  69.1728413   4.1238320  49.3371439  68.7100875   3.3356085  49.0529013
  68.6672210   4.4418007  50.0851250  28.0591345  14.4243073  50.6371212
  28.5197282  14.8853374  51.3382149  27.7593088  13.6105299  51.0422182
  80.5270361  72.6907723  11.7668915  80.9156632  71.9322412  11.3311958
  79.6069073  72.6727723  11.5036976  10.4360664   7.2901797  53.9298582
  11.1177182   7.9191542  53.6932707   9.7016943   7.5052583  53.3548212
  39.9437856  60.2905499  70.8429289  39.8889112  60.4956113  69.9095631
  39.4539022  60.9923612  71.2715435  84.8643970  46.1775886  37.8888488
  83.9367747  46.4134299  37.9000926  85.2061342  46.5875160  37.0942354
  23.5888267  24.2160654  66.6870880  24.5333886  24.3289948  66.7932987
  23.3484364  24.8404360  66.0025406  60.3160715   2.4110518  58.3694267
  61.1997557   2.0825537  58.2038450  59.7390556   1.7461476  57.9936743
  79.8144859  23.0442214  44.6305990  79.7972226  23.2925630  45.5548573
  78.9940834  23.3862185  44.2753363  14.8463523   3.3251953  61.9525242
  14.3874097   2.5666952  62.3134708  14.5728791   4.0564570  62.5063324
  45.8862089  56.1653553  30.8076739  45.9575521  55.3499495  30.3114319
  46.5773379  56.7237078  30.4515648   3.6147022  66.5713083  36.9607615
   3.7692022  67.1195709  36.1914968   3.6362552  65.6753527  36.6245604
  21.6365981  16.8840551  56.7202425  21.8255496  17.5183535  57.4117565
  21.3875294  17.4187040  55.9663534  77.6606368  65.8395671  60.5846500
  77.4974715  65.8966576  59.6431875  78.6052751  65.9669577  60.6721735
  78.4746199  38.2538056  42.1967983  77.6651901  38.5004973  41.7493629
  78.5256451  38.8487554  42.9449034   9.5605659  56.8357058  60.6053512
  10.0478791  56.8448813  59.7815339  10.1681375  57.2034068  61.2471334
   1.0678206  17.0223010  43.0883455   1.1237560  17.9347181  43.3722448
   0.1561324  16.7775679  43.2469749   6.5008396   7.4313420  37.2136259
   7.1273565   6.7143410  37.3116946   6.3921672   7.7772975  38.0994797
   7.3871899  31.1619687  37.2868562   7.9147434  31.6581225  37.9127574
   6.6438913  31.7334342  37.0940685  33.9653063  32.9938722  64.8933983
  34.5189381  32.8490114  65.6606913  33.8212252  33.9400268  64.8771954
   4.0601658  47.7723252  67.8508139   3.4398150  47.0671784  68.0356503
   4.7181940  47.6997744  68.5421610  29.8619533   2.6171052  66.0814905
  28.9627814   2.8905231  65.8999348  30.1595259   3.2134444  66.7685604
  80.4761933  71.0663318  24.3841887  79.6749496  70.8021342  24.8363423
  80.8562063  71.7421948  24.9454665  76.5745126  73.3780246  62.9218388
  76.3671707  73.6551224  62.0293903  76.1632990  72.5178801  63.0071974
  22.4376124  28.4358565  13.8517316  22.5194621  27.9919294  14.6958097
  22.5102336  29.3667034  14.0626462  66.9365328  64.8462819  59.3797064
  66.6986483  65.6520545  59.8383713  67.8666221  64.9505936  59.1790009
  28.9492684  55.9474591  14.0039189  29.4638764  55.3855661  14.5833047
  28.9366483  56.7975000  14.4438012  65.5521345   4.4878718  47.8645658
  66.2047982   3.8017505  47.7249241  65.3739929   4.8307911  46.9888353
  23.7355995  23.8874102  56.9452047  23.2512021  24.2149997  57.7030134
  23.0611300  23.5390329  56.3621473  66.5968465  78.8086622  22.8131223
  67.1441554  79.5759224  22.6458001  65.8331042  78.9317220  22.2493982
  75.8547508  56.4580189  68.0749178  75.8622848  57.1536623  68.7323809
  76.7779600  56.2409436  67.9453135  67.5981324  71.8813973  52.4504328
  68.1980120  72.2018825  53.1239796  66.8655681  71.5077387  52.9402924
  37.0326829  -0.1147297  13.8523722  36.9311452   0.8319264  13.7535596
  36.3868666  -0.4887443  13.2529855  72.5207436  16.1119461  14.0833533
  73.4052419  16.3846898  14.3272913  72.5955474  15.8493149  13.1659317
  83.8247883  20.0011730  42.6076937  83.0385664  20.1300097  43.1382465
  84.2128229  20.8734751  42.5387764  54.5335174  25.7381419   1.0649188
  54.5593667  24.8223153   0.7877477  53.9647293  25.7394174   1.8347962
   9.9097180  57.2119366  36.6109347   8.9915204  57.3900305  36.4074016
  10.1722812  56.5487801  35.9725666   0.7992718   1.8863501  69.7051859
   1.0031043   2.4959570  70.4144573   1.1303484   1.0423411  70.0122166
   4.3523699  12.1928489  19.5249236   3.4050235  12.0669723  19.4708717
   4.7216925  11.3570046  19.2399728  14.4230127  12.3661554  48.1011915
  15.0665390  12.7211475  48.7144518  13.7308395  13.0266380  48.0713606
  55.5403597  65.7376992  63.7382984  56.3156005  66.1330019  64.1370058
  55.8500212  64.9015271  63.3902216  48.0730594  64.9531583   8.2322486
  48.8331282  64.3755320   8.1624396  48.2261110  65.6310061   7.5739701
  25.6340575  23.0048108  46.9006443  26.0280323  22.6088166  46.1233377
  25.0109005  22.3491669  47.2137547  10.9570074  75.0235431  29.0460563
  11.4568138  74.8370682  29.8408222  10.1518130  74.5154535  29.1447449
  31.9127774  11.5819764  45.1633406  31.0047460  11.3657880  44.9512768
  32.3957181  10.7712305  45.0030518  21.9011283  36.6159558  54.3797874
  21.8723178  35.7679915  53.9366627  21.0841560  36.6541910  54.8771095
  14.9424863  20.4175758  46.6689825  14.0818691  20.6508231  47.0170736
  15.1076782  21.0658550  45.9843826  27.4171948  19.3489420  63.1036711
  27.3574066  20.1162910  62.5346088  27.0387459  18.6375439  62.5870228
  34.5472503  29.5394349  29.2677355  35.4327226  29.7839594  28.9987063
  34.2599988  30.2596092  29.8290443  38.0637336  20.9840369  49.0819693
  37.3090649  21.5693665  49.0179539  37.8814292  20.4412031  49.8489952
  52.9408193  44.5967892  14.0692361  53.3090544  45.3576247  13.6200555
  52.0931483  44.4566179  13.6472924  19.8729504  66.4461974   5.3179248
  20.2755344  65.5896548   5.4610904  19.5079655  66.3946585   4.4345458
  57.4845314  31.1192012  53.6756802  57.1239853  31.9986415  53.5624313
  58.3725786  31.1771989  53.3232069  46.8716812   5.7369226  41.1575556
  47.7747059   6.0470569  41.2253523  46.4981079   5.8959520  42.0243788
  10.7474780  11.7152238  62.4131107  11.6270280  12.0744491  62.5296497
  10.2101731  12.1858716  63.0503130  15.3971708   9.2021102  26.8968987
  15.3455484  10.1569510  26.9398570  14.5435154   8.9310461  26.5592170
  42.3680818  26.0608128   5.6502994  42.9037500  25.2765182   5.7693513
  42.3596132  26.2036768   4.7038587  39.2995286  14.3049502  54.6091461
  39.8614955  14.9523509  55.0349379  39.0365744  13.7146533  55.3152895
  29.4096947   9.3951368  30.8530927  29.0359712  10.2750361  30.9014654
  28.7141657   8.8601965  30.4705882  33.3110428  15.2954459  57.5794506
  33.3774710  15.4545903  58.5209846  33.7716603  16.0327196  57.1788359
  45.9608603  10.4633093  48.6143684  45.5825138  10.8514571  47.8254271
  46.5062714   9.7463799  48.2906866  17.2086954  68.2696342  65.7712221
  17.0875597  67.5072931  66.3372564  18.1565141  68.3319186  65.6529236
  50.1971620  59.8472821  63.5048389  49.7314703  60.6783043  63.5984755
  51.1166500  60.0703346  63.6498260  51.4136958  68.0720905   0.2452167
  51.0937763  68.8425521  -0.2241103  52.2674656  68.3373550   0.5871900
  26.2885785   9.1187102  51.7384291  26.1133146   8.2664239  51.3395262
  25.6762505   9.1701221  52.4723530  53.9842630  46.8550817   9.7272046
  54.5668316  46.1205957   9.9205335  53.3499360  46.5001593   9.1043933
  37.7646089   4.9509916  49.2939281  38.1696081   4.1021422  49.1159868
  38.4658146   5.4742414  49.6821976  60.9979105  71.0746363  23.6590035
  61.7776823  71.6028599  23.4882291  61.1228085  70.2857093  23.1315358
  40.8000803  24.8828721  56.7967319  40.6544447  24.6347284  57.7096605
  41.3231993  25.6829333  56.8465185  41.8167973  24.7212601   8.8812065
  41.3289070  24.1112709   8.3279341  41.4270973  25.5759072   8.6969650
  13.6949635  31.0972142  58.7343264  13.1619120  30.4462504  59.1907644
  13.2616234  31.9312596  58.9154720  16.9642699  12.6825273  59.8428631
  17.2357035  12.4464393  58.9558363  17.0091975  13.6385071  59.8606300
  45.2497482  34.9951172  70.6336784  45.7111979  35.6635451  70.1272202
  44.9154186  35.4628086  71.3990021  80.4100107  73.4571712  47.5346279
  81.3634967  73.4917813  47.6114416  80.1934098  74.1599905  46.9219589
  30.3701550  68.1771354   2.9686482  29.8393220  68.8931421   3.3176168
  29.9604629  67.9615334   2.1308501  83.4026569  37.9849172  53.3336401
  83.0632606  37.2324085  52.8491068  83.9057731  38.4793019  52.6865768
   9.6250564   3.6264208  47.3404217  10.4385448   3.8507614  47.7922392
   8.9990580   4.2898166  47.6307058  72.8590441  35.0175858  54.9922752
  72.1692181  34.9850392  54.3294668  73.2753134  35.8697963  54.8630857
  17.3484921  14.7439480  52.0725489  16.7649221  15.4924870  52.1965122
  18.0040824  14.8342454  52.7641249   9.8465347  35.9111667  58.6384439
  10.4609108  35.4752755  58.0478716  10.4021108  36.4188576  59.2298985
  83.5643246  64.9796724  24.3912721  83.6021259  65.8077478  23.9126325
  82.6691061  64.9380541  24.7275496  30.4980564   7.0609802  69.8428774
  29.7481155   6.5193307  70.0887156  31.1778975   6.4325774  69.5996571
  70.6265068  54.3241743   1.5549596  70.5379010  55.0495342   0.9367068
  70.7357455  53.5503510   1.0022433  14.0698600  20.9806466  41.5071249
  13.7897968  20.8117914  42.4067307  14.1710377  20.1108575  41.1205196
  29.9164224  43.1491470  22.3255968  29.5959377  43.7776327  22.9725337
  29.8578429  42.3012543  22.7659082  61.3293600  32.6968026  50.0941181
  60.7290506  32.5636888  49.3605375  62.1990681  32.7001262  49.6943331
  36.3971233   6.8067485  35.8199501  36.5935588   5.9023571  35.5755734
  36.3711810   6.7960751  36.7767406  84.0521758   4.9085003  35.9087038
  83.9585131   5.1502490  36.8301249  84.7797769   5.4445046  35.5932236
  60.1577496  39.0128803  41.2117958  59.8224902  39.8188949  41.6044474
  59.7955393  38.3130622  41.7552042  81.7066002  42.2906709   2.2031959
  80.8521462  42.3224867   1.7729314  82.3363018  42.2574829   1.4830525
  48.1025791  26.1742878  67.6380587  48.7768173  26.5806675  68.1825733
  48.1521416  25.2424192  67.8511238  48.4284353   5.7830739  60.0488424
  48.9743042   6.2712586  59.4324541  48.9625883   5.7154435  60.8402586
  35.3673983  12.3706400  36.3143349  35.9114838  11.6083682  36.5121818
  35.6755805  13.0477107  36.9166875  23.9177382  48.1997535   5.7556088
  23.0800736  48.0626140   5.3131803  23.6854446  48.6215947   6.5828450
  16.5492928  28.1289601  44.5378590  16.7358148  28.4847188  43.6690235
  16.1300039  28.8502622  45.0070667   2.3829541   6.2956399  55.1917601
   3.1244326   5.7423204  55.4372787   2.3699920   6.9865179  55.8541441
  61.4042854  27.6635170  58.8713551  60.4578066  27.7167606  58.7387800
  61.6665602  28.5583329  59.0875721  48.5924006  28.1851149  55.1358700
  49.3868160  28.4861827  54.6948576  48.9011908  27.5385618  55.7705736
   5.8111459  23.0520010  19.8653269   6.4833790  23.3113909  20.4954481
   5.2907139  22.3947382  20.3272676  62.0294810  47.3200682   1.6186460
  62.6261163  47.1804396   0.8832820  61.6757727  46.4510993   1.8084319
  77.7905451  62.2343623  32.9225183  78.4363627  62.8436779  32.5649023
  78.0791878  61.3738047  32.6186180  35.1549911   3.8349929  45.8036041
  35.3001547   4.7793680  45.8611822  34.5709324   3.6373681  46.5357637
  28.2920575  34.1090655  68.8958740  28.3631539  34.4943666  69.7692108
  27.7056265  34.6981525  68.4212065   8.9162934   4.2310613  57.4432707
   9.8157734   4.3598938  57.1423244   8.9804620   3.5376692  58.1000185
  24.4231176  14.5074618  67.4972582  24.2498088  14.9148905  66.6486120
  25.0563931  15.0893795  67.9174566  84.6741389  74.0667759  45.1330423
  85.0858449  74.5266508  44.4014359  84.5642971  73.1688457  44.8201704
  43.3278036  45.7278678  15.1001294  43.4796012  46.6069732  14.7531922
  44.1193390  45.5275587  15.5997022  44.9962664  14.0013754  21.0825443
  44.2069864  14.4478023  20.7759905  44.8006582  13.0702233  20.9780216
  31.5998673  21.7327499  54.9456882  31.1132216  20.9975147  55.3182983
  31.0466123  22.0487404  54.2313433  17.6490474  15.5408108  18.4661293
  16.8881202  15.8966064  18.0071843  17.2793055  15.0652051  19.2099857
  70.8816100  47.7689550   4.2132648  70.3276396  47.8707395   3.4393199
  71.5112305  48.4874365   4.1533120  11.4526856  21.1150742  39.4342089
  11.2490845  21.8074012  40.0630665  10.9796786  21.3656235  38.6406612
  73.2059670  54.3401781  25.3872617  73.2456732  53.7118462  26.1082681
  73.9532900  54.9201313  25.5335362  19.1028106  38.4246850  57.6492405
  18.4649384  38.6907530  58.3114767  19.9473643  38.6997938  58.0059958
  30.7602620  35.3099847  17.8945136  30.3831053  34.9294424  18.6877167
  30.0211740  35.3874040  17.2912002  16.4634418  10.8875954  65.4931974
  16.1360812  10.3683305  64.7587347  17.3602533  11.1132205  65.2461004
  32.1555591  28.3424330  22.4027038  32.5812674  29.0611172  22.8701425
  32.0201993  27.6696205  23.0699611  54.2281628  27.7475977  55.6911659
  54.8421240  28.4557700  55.8855295  54.1650200  27.7407384  54.7360754
  59.6514941  62.9683999   1.7201074  60.5706668  62.7875832   1.5235026
  59.1723180  62.6158193   0.9702380  46.7068195  18.7566400  67.4544382
  46.2486839  19.5077860  67.0774412  47.0763063  19.0876424  68.2730627
  13.4225166  17.7070045  59.3212032  13.0080223  18.5631013  59.4285488
  12.7023566  17.0810223  59.3970156  37.9220629   9.0855992  26.8411303
  37.1352649   8.8164783  26.3670468  38.6414957   8.6673164  26.3681769
  47.4092007  51.3432169  26.2120867  47.5715017  50.5112791  25.7673717
  46.5782070  51.2125254  26.6688156  40.1804781   2.5255296  57.8407431
  39.9168277   2.1526933  56.9994879  39.8090720   1.9314615  58.4929514
  57.1780968  72.4363974  41.1413034  56.3525081  72.1095947  40.7837613
  57.7833414  71.6994695  41.0585340  14.2772317   2.9082260  42.2689104
  13.7990272   3.7285382  42.1479130  14.4527769   2.8697622  43.2090902
  40.1608371  80.0249138  32.0824528  40.9104633  80.5891309  31.8928456
  40.1403141  79.4017716  31.3561559  28.6057830   4.7882870  51.7325974
  29.4847059   4.7428668  52.1089792  28.4982300   5.7067603  51.4854765
  48.2637119   0.6912061  67.3848724  49.1088152   0.4074467  67.0362854
  47.6651669   0.6312034  66.6403055  49.6107006  27.0894241  65.3165150
  49.1186523  27.2094417  66.1287451  50.3567362  26.5444016  65.5667353
  12.5084161  75.5428039  56.1402512  11.9841528  76.3086235  55.9059477
  12.9728937  75.8046251  56.9352007  38.1377459  25.5864573  59.7631407
  38.6989999  24.8790836  59.4455719  38.5531640  25.8753943  60.5756521
  31.0394025  18.5852575  11.0748982  31.5658212  19.1788733  11.6103756
  31.6463351  18.2610476  10.4095006  29.5884824  11.4554977  36.5929127
  29.1886878  10.6725764  36.9716334  30.5198050  11.2431014  36.5316224
  12.8301668  60.0892054  67.1378946  12.3636961  59.4727408  66.5734434
  12.1379566  60.5588328  67.6032114  34.0066898  73.5189728   8.1448777
  33.6858023  74.1347007   8.8037713  33.4205550  73.6404685   7.3979409
  41.8637180  10.0854433  32.4382901  41.4885569  10.0045359  31.5613961
  41.7406178   9.2217308  32.8320909  42.8885412   2.0139924  57.7716923
  43.3217239   1.7408998  56.9629860  41.9705963   2.1273445  57.5252104
  55.1651097  48.9116684  16.5904649  56.1052966  48.9108840  16.7701371
  54.9639655  49.8213968  16.3709958   5.7972515  41.3330364  67.0613050
   5.1461804  40.7037592  66.7509079   5.3082317  42.1482992  67.1728373
  24.6273446  12.1063292  54.6482086  23.6976886  12.3240983  54.5807695
  25.0806761  12.9141903  54.4072056  41.5690804  20.7582235  35.2072597
  41.9425440  20.7189870  34.3267965  42.2792578  20.4719281  35.7816410
  11.7529404  48.6737680  60.1295471  12.2200370  48.2843494  60.8687401
  12.2813964  48.4449863  59.3649387  24.5422331  73.7014417  13.6657746
  23.7923700  73.1299285  13.8310273  25.0120226  73.7272290  14.4993623
  70.6376696  68.4888963   2.3199161  71.5775729  68.5091785   2.1399053
  70.3680945  67.6007632   2.0858605  79.9819850  77.2425111  34.1993880
  80.4627752  77.9991977  34.5347953  80.6514835  76.6973030  33.7861657
  25.8035779   2.3872632  17.6534998  25.1615620   2.9649416  17.2407842
  25.4712510   2.2554274  18.5414243  78.0303394  33.3092856  44.7250175
  78.1670612  34.2066956  44.4213820  77.6008367  33.4067941  45.5748701
  30.4776001  28.8062954  62.2328472  31.0191965  29.5954180  62.2189951
  31.1052728  28.0860114  62.2915792  18.8906956  32.8978467  39.7933221
  19.2898929  32.9146338  40.6631422  18.6289871  33.8043952  39.6323633
  27.6580954   3.5139135  64.8184681  27.2113943   4.3134856  65.0966358
  27.5265813   3.4833848  63.8708401  12.5165808  15.7550430  52.0274591
  12.1615887  15.2617311  52.7669573  12.6806867  15.0938022  51.3551044
  85.7242536  42.9623138  65.9111357  86.0314416  43.2328497  66.7763948
  86.4458918  43.1811129  65.3215599  55.7367229  22.0376325  46.7869997
  56.5162230  22.5900626  46.8455458  55.8403397  21.4014268  47.4946308
  52.7058481  73.4650820  43.3515978  51.9240742  73.8052659  43.7867260
  53.3131023  73.2727789  44.0660858   5.3965402  18.3568525  27.3030281
   5.5452436  18.4151852  26.3592505   5.1512128  19.2450428  27.5621891
  85.3450526  29.9554920  68.6237240  85.4698203  29.3099451  69.3193722
  85.7669977  29.5665956  67.8575945  12.3988640  24.5008183  63.1846714
  13.0525982  25.0842285  62.7993202  11.6383183  24.5797324  62.6088476
  27.5680208  76.6878097  63.4180784  27.8322839  75.8797573  63.8579082
  27.7701854  77.3801686  64.0473652  40.7076763  52.6850306  65.3783941
  41.5310740  53.1679284  65.4495096  40.5985045  52.5347125  64.4393921
  35.5764079  28.9014745  42.0156097  36.1299491  28.1220174  41.9679785
  34.8888898  28.7469411  41.3677883  62.3416853  36.0188840  14.4841321
  62.2519064  36.9550971  14.3061479  62.9501534  35.9725482  15.2215894
  71.8314492  76.3361835  36.8234372  72.3335206  77.0076286  36.3615727
  72.4260449  76.0171138  37.5023222  74.8502553  11.3747470   0.8010419
  74.6088458  10.4661624   0.6209691  74.9778975  11.7645614  -0.0638215
  15.7710910  12.8800499  50.6808901  16.4524961  13.4958434  50.9505558
  15.7135081  12.2550058  51.4035511  13.6645746  79.5287319  69.5568228
  14.1056680  79.1991331  68.7738562  13.1537723  78.7844472  69.8751831
  24.6994138  13.1600928  23.2528424  24.1137624  12.6625669  23.8235521
  25.1427364  13.7724888  23.8399267  31.2916899  24.1151500  63.4585619
  30.9902859  24.5153427  62.6429462  32.2442722  24.2051601  63.4318018
  17.3484075  33.7294626  52.1196365  16.9747019  34.3046951  52.7872324
  18.1413901  33.3771276  52.5237083  65.0858927  81.0285453   9.7788938
  65.6182981  81.4179448   9.0852483  64.2611003  81.5133408   9.7484906
  15.4659462  52.9249631  49.1908121  14.7852897  53.0402814  48.5277605
  16.1758232  53.5015022  48.9081287  56.1515999  20.9633994  11.2939394
  56.3612938  20.0417256  11.1430216  56.8950224  21.2992930  11.7946661
  54.7087860  44.0788126  69.4847202  53.8327551  43.8318253  69.7810364
  54.5639801  44.5105743  68.6427879  69.6863604  39.2946292   4.6313079
  70.0590945  40.1677743   4.7534450  70.4418421  38.7344504   4.4533237
  14.8838472  19.0152514  12.1189296  14.6103954  18.7829888  11.2315118
  15.7932258  18.7215877  12.1739173   2.8001413  18.2539737  40.1987696
   3.2202509  18.7205195  40.9213161   2.6622704  17.3679590  40.5337334
   3.9582345  34.2067337  60.0138426   3.0949047  33.9087367  59.7273254
   4.5742297  33.6555386  59.5311785  49.6952438   1.1665006  58.6341524
  48.7418556   1.1117323  58.5686541  50.0071621   0.3271027  58.2959986
  77.0857668  46.9531345  63.0218363  76.2240982  46.6757250  63.3329678
  76.9061089  47.4265957  62.2095585  30.4359365  24.8315215  68.6816692
  29.7188044  25.4506588  68.5452032  31.2279677  25.3406000  68.5091591
  41.4612198  29.7054577  60.2473211  40.5961323  29.9239945  60.5938625
  41.4304256  28.7593198  60.1055241  18.2741964   9.7315198  37.2112989
  17.3304272   9.6858555  37.3644185  18.6277795  10.1228654  38.0100846
  58.6222530  60.1268617  23.0812581  57.9986120  59.7943882  22.4356778
  58.8249946  59.3696061  23.6305173  70.3885413  69.3784694   9.7798474
  69.8743105  68.7414864   9.2838128  70.1692582  70.2225927   9.3853791
  52.9024434  25.7891718  12.0872815  53.2703519  26.6374127  12.3349984
  53.2846976  25.1711539  12.7103169  66.3056612  11.5221417  29.8520255
  66.3433981  11.9815075  30.6909490  67.1950150  11.1944902  29.7181511
  30.8572011  71.2363771   0.5416997  31.2351627  72.1070317   0.6655391
  31.5975964  70.6887869   0.2805646  53.7066173  74.8551094  37.0604491
  53.0395388  75.2543597  36.5020251  53.4739085  73.9269631  37.0853996
  23.8088012  34.0600395  26.1719990  23.8910651  33.6936355  25.2915382
  24.2051697  34.9289513  26.1078215  75.7478511  68.9257764  67.2610950
  75.4316293  69.6755635  67.7651310  75.0412547  68.2827078  67.3195457
   0.1414169  19.7489154  40.2486181   0.2330070  20.5207229  39.6899104
   0.8747521  19.1857028  40.0011492  60.7920599  58.4082989   5.6380065
  60.7235813  57.9559103   4.7972377  61.6665411  58.1872526   5.9583982
  17.1013927  67.4730598  62.3059177  16.7201709  68.3508932  62.2883415
  16.5773105  66.9717895  61.6811752  17.4977839  15.2465260  47.7474976
  18.0711639  15.3391123  46.9866419  17.7341342  14.3987072  48.1237602
  28.5405397  11.0456824  63.1329823  28.0275536  10.2587342  63.3167982
  28.4622765  11.5736282  63.9275789  73.2221543  10.1290691  28.4115887
  74.1166222  10.2348268  28.7355852  72.9766476  10.9993696  28.0976844
  32.0725393  32.9834914  34.5209146  31.1772323  33.0668926  34.8490930
  32.4966764  33.8044047  34.7708011   8.6772680  21.6731238  43.6508751
   7.9190695  21.1039853  43.5187817   9.3827599  21.0774970  43.9033508
  45.9368277  20.8118653  34.8059082  45.3924179  21.5930820  34.7081757
  46.8114424  21.0944629  34.5386600  10.5508745  51.4559078  47.0808935
  11.2699997  52.0500135  46.8661165  10.9696341  50.7307911  47.5446558
  15.2221787  15.4760170  33.1946993  14.2674923  15.5383515  33.2250214
  15.4673922  15.1352334  34.0549135  70.3943872   5.5210257  40.8596182
  70.3536129   5.5504215  41.8155003  69.4956636   5.6890875  40.5762720
  19.7819781  13.4090042  51.1574268  18.9304340  13.7661958  51.4094543
  20.2478409  14.1504931  50.7709074  35.1748466  18.2829046  65.5223465
  35.4862928  18.8488781  66.2286806  34.3790197  18.7105072  65.2060413
  43.2154882  64.2165259   8.4060128  44.1254855  64.3562344   8.1440623
  43.0633998  63.2835821   8.2553037  13.4104061  16.1219168  70.6428003
  13.0416214  16.9980454  70.7551765  14.3511569  16.2688196  70.5446291
  30.1859331  25.2907753  61.4033699  29.7886848  26.0878754  61.7541695
  29.9427247  25.2893782  60.4775858   7.1666878  19.7556221  56.2628222
   6.2510222  19.7432721  56.5414572   7.5893921  20.3760481  56.8566465
  11.3114214  48.4931517  28.5980535  11.7642522  48.0080271  27.9082465
  10.7059431  49.0673637  28.1291080  37.3783803  24.1011286  29.5699334
  37.1875262  23.8179827  30.4641557  36.5186572  24.1939807  29.1594625
  58.7054682  39.6151686  56.8198490  59.6037674  39.4782281  57.1207428
  58.7521648  40.4018402  56.2765265   5.1406360   6.0349762  42.5992012
   6.0343874   6.3113558  42.3965788   5.1154816   5.1092607  42.3570251
  86.6466875  32.5353312  68.7677622  87.0984317  32.8271937  69.5595837
  86.4313937  31.6185093  68.9389944  24.1302490  73.3550858  58.8013411
  23.8651752  72.8923379  59.5962191  23.6521196  72.9160373  58.0978775
  55.4067493  74.8238151  67.6459169  56.1172601  74.3987917  68.1262970
  55.5732196  74.6051871  66.7290115  28.3073288  55.4319993  18.9261087
  27.7957020  56.1941055  18.6546929  29.0149965  55.7957510  19.4582017
  32.5162244  31.5024304  61.3944006  32.4521613  31.1492229  62.2817421
  32.1050000  32.3650241  61.4497042  25.7392526  19.1707885  46.0905647
  25.7440281  19.7676420  45.3422499  25.0531983  19.5116854  46.6644573
  79.8131180  20.0935388  64.9483681  80.4990578  19.4353497  65.0601625
  79.3875408  20.1437187  65.8042860  34.8521495   1.9865562  49.8264027
  35.2463198   2.6590285  50.3819609  35.5978894   1.5354358  49.4306850
  18.3308912   9.5424144  15.5537351  17.4809576   9.5961778  15.1167520
  18.3213450  10.2615135  16.1854299  20.6097389   1.1696737   6.6652139
  20.3935839   0.4115264   6.1223348  19.9246622   1.8084829   6.4681800
  42.4105716   6.0553806   5.5214198  42.7570308   6.3164966   4.6681817
  42.5059844   6.8356292   6.0676320  35.4071331  32.2787237  57.9436922
  36.2854719  32.6556993  57.9950714  35.4552150  31.6575766  57.2169876
  67.9847431  16.3522589  46.7065716  68.4718084  15.5354118  46.8149996
  68.2097340  16.8697214  47.4797726  35.8911347   8.1439531  59.6463871
  35.8713508   7.4827468  60.3382301  35.2040458   7.8737891  59.0371656
  50.6140995   3.0514082  66.8374872  49.7833538   3.4667140  67.0690298
  50.3639746   2.2028852  66.4718676  50.2042103  27.1509743  60.5027294
  50.4602194  26.3428044  60.0582647  49.5441675  26.8756676  61.1389542
  64.3631172  29.6648145  63.4026527  64.8733521  29.4963384  64.1948080
  64.4565725  30.6056333  63.2531357  11.1334097   4.6826154  54.4822884
  10.5511844   5.4403192  54.5382404  11.6215479   4.8151383  53.6696434
  81.0266352  55.8011118   5.6606801  81.2466145  56.7325798   5.6462129
  80.0726509  55.7791129   5.5854352  53.1266499  31.4885926  66.8979979
  52.4174261  30.9638190  67.2692633  53.7710667  30.8454633  66.6024637
  47.1513891  31.6086364  63.9125872  47.5547791  30.7517695  64.0514660
  47.8593349  32.2343397  64.0660095  66.4583922  78.9579800  11.5858300
  66.7195702  79.3962530  12.3957189  65.5426789  79.2080764  11.4627202
  44.7595596  11.3368976  36.1295843  44.3431950  11.6968155  35.3464270
  44.0297508  11.0497320  36.6783524  46.0645771  64.8635129   2.4766334
  45.6116748  65.2624301   1.7336829  45.7909346  65.3843407   3.2316764
  52.6266146  33.7392044  64.7467232  52.5146866  33.0827284  65.4342842
  52.4829340  33.2589030  63.9313078  76.8696595  54.1283575   0.9712060
  77.0341349  53.6137549   0.1810391  77.5092173  53.8044170   1.6054423
  52.1367598  13.5911787  32.8160739  51.6861343  14.4356668  32.8135753
  53.0666637  13.8158095  32.7836156  77.2697211  81.3932399  15.6392415
  77.9552365  81.9345311  15.2477010  77.4092436  81.4754084  16.5826448
  48.7802160  40.5796824  21.7086347  48.6688495  39.6297572  21.7470010
  49.2774392  40.7302687  20.9046872   3.8048435  77.2173122   3.8996108
   3.2606388  78.0002741   3.8156875   4.2006279  77.2926644   4.7678931
  59.3554974  32.7586198  64.1669321  59.8462343  33.1915784  64.8654699
  58.5496473  32.4611378  64.5892382  75.2839232  56.2151352  16.5102513
  76.1821509  55.9847692  16.2728627  75.3776121  56.9458762  17.1213754
  22.2709870   6.9050956  32.6192045  22.5899649   7.0532155  31.7289567
  22.4021196   5.9686536  32.7679086  68.4415150   2.0197433  39.3211007
  67.9100037   2.7748030  39.5733166  69.3230486   2.2348593  39.6258283
  65.9560156  46.8766308  54.6068335  66.7859840  46.9239616  54.1323376
  65.3500843  47.4000788  54.0823555  28.8293438  70.0890640   4.0973218
  28.4156742  69.9557523   4.9501594  28.1714786  70.5563430   3.5824473
  46.8070412  57.0112467  57.7899933  46.7684603  57.3966551  56.9146585
  46.1167622  57.4587488  58.2793617  27.0815253  76.7606831  50.1666546
  27.8391790  76.5930462  50.7270908  26.4255595  76.1257792  50.4544640
  26.2708593   1.7891921  47.8043079  26.8386293   1.8682517  47.0377398
  26.8050600   2.1077288  48.5318995  20.6310488  32.4934042  50.0596237
  20.7559753  31.6344393  50.4631090  19.9990869  32.9349078  50.6270075
  82.4504280  12.0955122  53.2756424  82.9479790  12.6568831  52.6810551
  82.7143288  11.2056006  53.0418539   7.7946402  27.5987165   0.0437863
   8.5395099  27.1006028  -0.2927892   8.1606508  28.4539621   0.2692302
  86.0845089   5.9533156  53.0305052  85.9065533   5.0395812  52.8077030
  85.2184487   6.3497199  53.1255341   7.6906801   5.9323634  47.0661545
   7.3722339   5.3288020  46.3949299   7.1676660   5.7265032  47.8409529
  12.0508218  69.5196772  52.8306198  12.7766538  70.0186777  52.4559307
  11.5427232  69.2302704  52.0727873  34.6845293  65.7847691  22.8106999
  34.7791481  66.6910934  23.1037116  35.3051615  65.2931166  23.3485889
  55.3076578  35.9514062   6.7460902  56.1425520  35.9071081   6.2800153
  54.6463324  35.9431379   6.0541232  68.8175678  27.6442051  66.6947031
  68.8725853  27.3614073  65.7818890  68.4496927  26.8910956  67.1570110
  79.8228359  42.5655794  63.9195061  79.4344950  42.1665382  63.1409264
  79.1760492  43.2103777  64.2060947  25.6735159   3.7446154  53.8535690
  26.5795065   3.7796057  54.1604662  25.5505682   2.8377856  53.5728931
  60.1865149  73.1459284  61.7170811  59.6396208  72.4015999  61.4658499
  59.9618721  73.8313770  61.0878515  56.1095381  60.1076365  53.6593199
  55.8584881  60.1814890  54.5800543  55.2782297  60.0885344  53.1851912
  13.3161236  80.1918033  31.7656453  12.9732157  79.3310193  32.0058377
  14.2581869  80.1265220  31.9221433  76.6714192   1.4908637  46.3330889
  77.2051430   2.2820986  46.4060163  77.1138335   0.8512534  46.8911219
  16.7780042  75.6514982   7.8869470  16.8272472  76.0214189   8.7684043
  17.3872495  74.9133877   7.9025777  29.2264200  17.8715361  54.2131329
  29.8104597  18.2382048  54.8769665  28.6261011  17.3114909  54.7052813
   4.5556188  39.5650411  47.1205616   5.4335523  39.9158192  46.9708347
   4.2453981  40.0216579  47.9025412  84.5008469  18.5005586   6.5100844
  83.7631846  18.9084976   6.0565742  84.2266203  17.5935809   6.6458161
  66.0012484  69.4765186  23.3498001  66.1817217  69.1787815  22.4581647
  66.7535639  69.1758871  23.8595819  26.3082529  58.1085555  14.2076715
  26.9485975  58.4830444  13.6027368  25.6901003  58.8204353  14.3730195
  11.0668732  18.1722678  38.5818124  11.0859371  18.1391085  37.6253772
  11.4467264  19.0234602  38.7995768  38.8408638  55.1554935  22.9102071
  39.5138813  55.4482143  23.5246976  38.3361412  54.5057647  23.3994325
  68.8692188  41.6882086  69.5548010  67.9465485  41.7864132  69.3197012
  68.8911486  41.8265629  70.5016947  18.0099083  21.0192526  54.3841648
  18.1833292  20.3099001  55.0030184  17.6622940  20.5802096  53.6078691
  58.6915041  27.9581516   0.2502568  59.4874598  27.4411123   0.3741630
  58.9519335  28.8539045   0.4648145  60.6831480  13.1153171  11.1733373
  61.1165644  12.4385898  10.6533273  60.9194876  13.9366596  10.7423337
  71.8414164  68.7053871  59.2982674  71.5452290  69.2050028  58.5374165
  72.0449686  67.8372288  58.9502716  56.1985779  56.1030197  41.6844749
  55.9870815  56.0052872  40.7560587  56.4540339  57.0208931  41.7765951
  12.4491525   7.5659598  64.8677540  11.7501617   7.2576464  64.2910480
  12.7795053   8.3570326  64.4419670  86.8871356  31.2456243   4.7814067
  85.9992028  31.5178029   5.0131925  87.1380807  31.8306987   4.0665992
  84.3570471  10.7160510  62.7295494  84.3420506  11.4370860  62.1001720
  85.0712014  10.1527251  62.4314308  84.1799260   1.3420523  65.9487581
  84.0078640   1.1603487  65.0248480  84.4172144   2.2691287  65.9703875
  52.8654385  66.4157963  62.3460960  53.7132645  66.1885595  62.7279139
  53.0320692  66.4647341  61.4047813   2.8009487  17.6551379  58.5389471
   2.9483057  18.0528296  59.3970585   1.9707323  18.0274905  58.2417727
  69.0450764  77.8337860  68.2047987  68.6226082  78.6255074  67.8717327
  69.1446543  77.9922628  69.1435242   7.2052885  58.3981991  45.6448412
   8.0622507  58.7254858  45.9182072   7.0026327  58.8919830  44.8502731
  18.2684542   0.3438033  66.4214849  18.3159710   0.7956160  65.5789661
  17.5024486  -0.2251112  66.3453102   9.5253349   3.5802306  43.5723829
  10.1243282   3.5240210  44.3168783   9.2470718   2.6771201  43.4201288
  66.1500740  60.6329775  49.9596643  65.6625319  61.3909674  49.6371794
  67.0688915  60.8620691  49.8199606  39.8235441  10.3970850  54.7310019
  39.7237230   9.4488371  54.6466923  40.1959158  10.6740893  53.8938379
  18.3990980  16.9113196  43.8024759  17.4654890  17.0560683  43.9562750
  18.7257934  17.7580012  43.4981251  52.9181004  70.4153013  69.7555780
  53.5583544  71.0475349  70.0820637  52.7465296  69.8410225  70.5018997
  68.4494925  76.6356087  56.7680216  69.2571449  76.4376163  57.2420835
  68.6601973  77.4123526  56.2498474  15.7281709  78.1313324  60.1578045
  16.6472650  78.3941603  60.2069998  15.6015897  77.8725815  59.2449760
  65.8314371  52.1861267  52.3171282  65.2934217  52.9375362  52.0678139
  66.0759783  51.7801762  51.4854813  74.1301966  16.4961375  46.6711283
  73.3635998  16.9889868  46.9638157  73.8493872  16.0773791  45.8574867
  20.2807285  24.6438509  16.6610177  19.9910761  25.2140814  17.3731740
  20.0153591  23.7657076  16.9342931  59.8922087  44.1959445  16.6080125
  60.5345751  44.8464172  16.3243135  59.4809557  44.5860164  17.3793347
  12.0471883  63.5143042  51.2682056  12.1038652  63.1494331  50.3850937
  12.8203035  64.0732193  51.3465071  49.8836161  14.1295926  13.2233651
  50.8012797  14.0171020  12.9754193  49.5672108  14.8337858  12.6574739
  52.6459217  69.6894360  35.2543044  51.9426107  69.0439463  35.3244829
  52.4778461  70.3052902  35.9675407  71.9680751  28.8255708   7.4798377
  71.9661201  29.6624963   7.9443629  72.8847278  28.5500066   7.4866374
   6.3593508  10.4798258  48.5895872   7.2889543  10.6156386  48.7729597
   6.0068441  11.3620699  48.4729385  37.7370669  47.9285114   9.3091901
  37.0162274  48.5578220   9.2850144  37.3174168  47.0910995   9.5063718
  55.9137964  66.3293743  24.1016698  56.7753839  66.2372828  24.5083809
  55.8581495  67.2553158  23.8655210  24.0922190  24.3622176   9.6695455
  24.1828133  24.8010318   8.8236888  23.4127213  24.8588674  10.1254590
  25.4524637  24.3236463   4.0362771  25.7038952  23.4798591   3.6607249
  24.4956280  24.3029659   4.0526135  52.5223637  69.9192572  46.6877556
  52.6962614  69.3717623  45.9220934  53.1189871  70.6616020  46.5918684
  59.8164892  80.5719376  59.6807051  59.0914202  81.0913658  60.0281334
  59.9605989  80.9202385  58.8008499  44.1371441  76.1575413  47.1180105
  44.5735073  77.0006752  47.2402525  43.2258987  76.3220835  47.3604870
  58.6147810  33.1929128   5.3810628  58.6467863  33.8464563   6.0796960
  59.4937445  33.2040756   5.0022014  38.7618233  34.0674894  10.7194741
  38.7305285  34.4223707   9.8310407  37.9301144  33.6049192  10.8220418
  59.9356318   7.4135722  49.1211462  60.7039690   7.9638995  48.9693832
  59.3438864   7.6239432  48.3987808   7.1542955  65.4610968  58.9329910
   6.6492773  65.7281685  59.7010183   8.0270982  65.2683020  59.2754364
  86.9113875   1.0454405  63.5541534  85.9655857   1.0044611  63.6956167
  87.0569373   1.9032324  63.1551075  25.4908682   1.2317694  52.0857859
  25.7948042   0.3243483  52.0649815  24.5376993   1.1665190  52.0271540
  79.6347857  63.2295275  20.7218075  79.7616720  62.2880602  20.8391452
  78.9070797  63.4475470  21.3041663  44.7109365  63.2818031  66.2570429
  44.8782539  63.3271408  65.3156710  45.5626440  63.4503126  66.6600800
  79.8538923  55.4229784  34.5844603  79.3078327  56.1775541  34.3638515
  80.3928661  55.2816391  33.8061523  59.8004366  35.4490412  63.0764484
  59.2052389  35.9032668  63.6728144  59.5844580  34.5225371  63.1821346
  80.4964352  62.6066637  41.4366102  79.6611309  62.3228550  41.8080282
  81.1580086  62.1867800  41.9863796  27.7543831  77.8937244  67.4267626
  28.2277012  77.6689911  68.2278204  26.8351364  77.9232121  67.6919889
  20.9408928  31.9806735  13.9870389  20.9980417  32.3329751  13.0988725
  21.7112328  31.4188831  14.0718968  17.6958824  56.1880081   7.2860511
  17.0457483  56.8593948   7.4929460  17.3935152  55.4095714   7.7538569
  47.8919983  66.5802383  37.7403879  48.2705259  67.4383354  37.9317474
  47.7062035  66.6043568  36.8017030   2.4832654  45.4632807  68.9455175
   3.1373430  45.4263163  69.6434021   1.6586137  45.2419424  69.3781757
  41.5201403  52.5883739  20.6386502  41.5856577  53.2584064  21.3190873
  40.9640051  52.9828422  19.9668248  45.2912022  54.7955100   2.1304734
  45.3565146  54.9591701   3.0713161  45.4438854  53.8549297   2.0398171
  59.3689562  58.0671661  16.2785657  59.0975500  57.6072090  17.0729287
  58.7006022  57.8421657  15.6313260  64.6497084  30.6461017  22.3099073
  64.2557360  31.4984052  22.1239121  63.9372660  30.1301448  22.6873239
  52.7244139  64.4016409  42.1731329  52.7841568  63.4563541  42.0349550
  52.3615980  64.7408533  41.3548851  83.9011097  34.0643824  57.8461123
  83.5168457  33.2498682  57.5218534  83.4321785  34.7540797  57.3763847
  34.0357327  76.8859625  41.7365980  34.9517608  76.7485857  41.4952421
  33.8104868  76.1214685  42.2667313  65.9830809  75.8733416  37.4744821
  65.1381350  76.1170912  37.0964861  66.1155224  76.4978743  38.1876802
  35.6725622   1.1868418  65.6712437  35.3125120   0.8901251  64.8354435
  34.9125410   1.2533892  66.2493277  72.6188374  72.6728439  67.6623344
  72.4032927  73.0947351  66.8306065  71.8055820  72.7068996  68.1660128
  85.9234620  34.8767917  21.4010461  86.5859676  35.5675189  21.4157231
  85.7375503  34.7429435  20.4716619  61.8183517  61.8661451  43.4563684
  62.2801065  61.0825634  43.1580210  60.9184122  61.7434359  43.1542397
  24.8810125   9.3399371  61.1853456  25.5153013   8.6255015  61.1261368
  24.9858404   9.6802653  62.0738411  21.9127775  21.5897720   0.3688653
  22.5505997  21.0894601  -0.1401488  22.2036005  22.4983613   0.2906306
  58.1033922  27.7430360  16.1312802  57.7410723  27.9716461  15.2753099
  57.4306322  28.0135696  16.7561372  71.8503046  54.0034485  43.3293390
  71.8111324  53.6426115  42.4436235  71.0471678  54.5172262  43.4143925
  64.0232325  27.9594970  70.1288652  63.4353590  27.2088528  70.0442028
  64.9011230  27.5780416  70.1231146  82.4228693  55.1237743   8.2743199
  81.9082762  55.4125659   7.5206454  82.9897810  54.4349067   7.9274734
  77.1279812  66.5618801  54.8721266  76.3547659  67.0982027  54.6968269
  76.7752218  65.7118320  55.1351976  65.5994463  50.4030514  50.1200581
  65.5927038  51.0496807  49.4143295  65.0230503  49.7044420  49.8103094
  70.4735232   0.7499159  58.7617111  70.4050255   1.6015852  59.1932058
  70.4639244   0.1164282  59.4792318  43.8925863  11.8517054  32.8429484
  43.5684038  12.3099936  33.6182642  43.1796671  11.2618960  32.5977969
  66.9210720  80.6096649  51.4592791  65.9782553  80.4608440  51.3873196
  67.0427656  80.9508228  52.3453045   1.9685770  79.1474799   4.8020204
   2.0122028  79.4223861   5.7178529   1.8742395  79.9637989   4.3111499
  16.8860746   0.5787409  42.5158310  16.6900564  -0.2162706  42.0200777
  17.8380895   0.5705679  42.6149654  41.2259769   0.1216977  69.5081806
  41.7148399   0.8407509  69.1079235  41.7779636  -0.6483305  69.3718100
  57.4264431  57.3664474  29.8349214  57.1660805  56.4629078  29.6558738
  56.6351986  57.8802490  29.6731210  59.2723227  65.9253836  68.0983019
  58.3255339  65.8960390  67.9606104  59.4969082  66.8526840  68.0214310
  28.2574536  11.4454048  20.8455499  27.3934151  11.3050239  21.2328084
  28.0748535  11.7599981  19.9601586  65.1468420  56.2045145  41.8014622
  65.7974243  56.7532492  42.2394848  65.3398180  55.3169155  42.1033812
   3.6051727   1.5032233  48.1404305   4.4229580   1.7963732  48.5423374
   3.7437178   1.6227854  47.2008896   8.3486295  43.6736059  67.9861164
   7.4406076  43.4988260  67.7387619   8.3104444  43.8545084  68.9252901
  45.6494547   6.2673299   4.2194589  45.5811192   5.3952091   4.6080049
  46.0352827   6.8072908   4.9092467  68.6757278  58.1543636  59.2220259
  68.7321091  58.2436180  58.2706642  68.1806517  58.9228868  59.5057678
  61.8631315  63.3136559  51.7547703  61.4474010  63.3759022  50.8948135
  62.2016335  62.4191236  51.7929745  65.6912708  78.1464291  65.2233601
  64.8543644  77.8228378  64.8900270  65.8219385  78.9808941  64.7730064
  54.8817802   1.4259280  44.6655083  55.0179029   0.6546439  44.1152000
  55.2544690   1.1840189  45.5133390  64.3708301  32.1941412  63.4552145
  64.0700293  32.2800578  64.3598509  64.9698449  32.9303492  63.3310461
   0.5989099  73.1722307  56.9383001   0.8101678  72.8936577  57.8293657
  -0.0996089  72.5793171  56.6612530  62.8129911  54.9651527  58.6638451
  63.4608507  55.1617527  57.9871941  62.9623175  54.0442610  58.8780689
   1.8223405  64.1940784  43.9234829   2.5916696  64.6565914  44.2558193
   2.1801305  63.5092068  43.3585262  78.3755970  64.4246244  40.9680891
  78.5011196  64.3588114  41.9147396  79.2617989  64.4034767  40.6069326
  39.3810010  59.5109224  59.8476839  38.9466190  60.2176952  60.3251934
  39.2775726  58.7431479  60.4098797  83.7590599  42.7577257  48.5165071
  83.9355278  41.8485594  48.2746172  84.4703484  42.9890347  49.1138315
  12.2030950  40.7212162  39.5519638  11.8929506  40.6053877  38.6538386
  11.5265203  41.2519646  39.9724197  52.6519871  64.7790766  22.5025177
  52.1638918  65.4516125  22.0274448  52.9304600  64.1621733  21.8256760
   1.7286230  70.6528664  46.3545084   1.7931486  70.7072020  45.4010344
   1.0048318  70.0464487  46.5114117  29.3004109  10.1812475   4.2195590
  28.3734490  10.3723161   4.0764745  29.3013455   9.3990676   4.7712977
  70.8495331  52.1120358  66.5972900  71.0843182  53.0399656  66.5903568
  71.3696098  51.7386961  67.3088884  19.3678690   1.4681090  33.2208037
  19.7104145   0.6262530  33.5210943  19.5228554   2.0647181  33.9531064
  55.1773930  73.5927153  45.0717068  54.9589825  74.5188427  45.1756954
  55.9323406  73.5892820  44.4832563  13.8184286   4.0443076  65.3581667
  14.7604347   4.0061129  65.5237007  13.7296797   4.6426047  64.6162796
  78.1818867  34.6048753   9.8581441  78.9429165  35.0134675  10.2705987
  78.2533074  34.8436658   8.9339669  23.4462000   0.9454287  34.5957804
  23.4671141   1.4118136  33.7601447  23.2971121   1.6296996  35.2483010
  74.0604496  18.8166369  27.3550844  74.7160149  18.5571898  26.7076588
  73.3275462  19.1461981  26.8350148  10.1925827  12.5615729  48.2386875
   9.6534706  12.2965945  48.9839220  10.3813434  11.7445506  47.7770948
  16.8208433   7.1050585  52.4061060  16.7988373   7.9933108  52.7621412
  17.6059080   6.7130984  52.7885628  26.1890627  14.0291946  31.9068273
  26.8600966  13.9194362  31.2331136  25.7887293  13.1636588  31.9893868
  74.5323944  76.4564896  35.4135704  75.1399994  76.8968725  34.8193383
  74.9702501  75.6356335  35.6387520  65.5339075  34.4703262   8.3602222
  66.4200712  34.7768514   8.1679042  65.6208826  33.5203378   8.4389289
   2.5039793  31.9129729  60.0439978   2.4458909  32.1445465  59.1170549
   1.9306112  32.5405359  60.4840422   0.5858636  70.7985401  55.2033043
   0.2325178  69.9141455  55.1072454   0.6334138  71.1359310  54.3088007
  46.7788315  71.0520506  38.8033676  46.5959120  70.5014563  38.0420399
  46.6444445  70.4743004  39.5546174  57.5207234   4.7885550  42.7290154
  58.0794859   4.1985358  42.2231627  56.6421891   4.4182337  42.6437473
  78.2268047  63.4661770  47.8422832  78.3877087  63.5858393  48.7782431
  78.2037783  64.3549633  47.4876642  63.6150194  32.5220526  48.4894419
  64.4875360  32.2330607  48.7567043  63.6752820  33.4771098  48.4676123
  34.0240122   1.0079421  57.4441528  33.8038469   0.2640475  56.8834543
  33.1860948   1.4407767  57.6077938  11.7683531  40.6415404  47.8245497
  11.1011577  40.2954901  47.2318220  11.7517019  40.0489367  48.5760641
  75.9921074  70.0669289  44.7912264  76.4345074  70.4841471  45.5304480
  75.1306677  70.4832029  44.7616863  73.0897141  56.7322969  41.0094166
  72.5657225  56.0268211  40.6299877  73.9416027  56.3315344  41.1823320
  62.3884249  66.0143614  46.0962772  62.6615429  66.2077570  45.1994848
  62.0721197  65.1116228  46.0609102  21.0158230   6.4096392  21.9907284
  21.0639358   6.1315859  21.0760689  21.1859918   7.3512114  21.9640923
  28.3747220  64.6254349  62.4799442  29.3007493  64.8604298  62.5390387
  28.3088613  64.1118383  61.6748905  29.2813326   9.7030772  65.9208727
  28.3812929   9.5179308  66.1889601  29.7709871   8.9185370  66.1677885
  67.1840286  62.6751566  47.4905729  66.7804003  61.9348097  47.0375824
  66.7080688  63.4409380  47.1692133  48.8705374  12.7917422  54.1397238
  49.3822599  13.0203379  53.3637667  48.9486242  13.5553206  54.7116280
  26.6850020   3.9771907  14.1594728  27.4527909   3.6758344  14.6451886
  26.9745947   4.7814052  13.7286599  51.9010187  16.1644618   2.7262672
  51.0919405  16.5188997   3.0950435  51.6966749  15.2488344   2.5362714
  14.3441987  79.9672127  57.1622896  14.6287370  80.6692600  57.7474356
  13.4069467  80.1203632  57.0425081  59.1594886  17.4049874  67.0548330
  59.6713924  16.6396686  66.7931454  58.4618473  17.4611875  66.4018647
  57.9463507  17.8470151  29.9714311  57.7701117  16.9065254  29.9969705
  58.6877943  17.9679458  30.5646165  38.7719656  25.8530940  37.1994233
  37.8409983  26.0272730  37.3379731  39.1703440  25.9813918  38.0602717
  72.9540491  63.0052090  51.8551111  73.8098431  63.2880354  51.5328407
  72.3640871  63.7250900  51.6316080  22.4721361  46.6608191  31.8264794
  21.8839193  46.3973236  32.5341535  22.7838827  47.5282383  32.0846128
  33.1691862  79.4542551  46.6353750  33.1404233  78.9083481  47.4211121
  33.8482595  80.1032829  46.8193769  83.1670570  81.6486740  42.2038174
  83.8111782  80.9926605  41.9374132  83.6780834  82.4478245  42.3320770
  12.9886080  21.7831553  44.8830509  13.8539196  22.1823538  44.9731016
  12.3765255  22.5108469  44.9928761  57.2193718  80.4360199  69.7859383
  56.6289091  80.2607918  69.0532160  58.0603409  80.6338978  69.3738127
   8.5096479   5.7300700  31.0052371   8.4563614   5.1343287  30.2579165
   9.2579437   5.4133166  31.5111589  25.0933052  44.5069663  15.7449563
  25.5783631  45.1827876  16.2184747  24.9669291  44.8720519  14.8691876
  24.5888258   1.6666831  60.5614090  24.7408605   2.3696555  59.9297762
  25.0315214   0.9062422  60.1846075  31.0898519  53.3233738  24.0634799
  30.5693365  52.8660822  24.7239208  30.4817796  53.4705925  23.3390403
  67.7053714  10.4783572  61.6669035  67.1587301  10.8507765  62.3587942
  67.9392934  11.2265624  61.1176300  35.0614382   0.4368723  63.0223179
  34.3241430   0.5427588  62.4211454  35.4994512  -0.3609621  62.7259493
  47.4388481  43.0330818   0.7016213  47.4634672  43.0638091  -0.2547662
  46.5142227  42.9048698   0.9134181  79.9786949  66.1631823  66.7663622
  79.3565989  65.7954073  66.1386967  80.0951481  65.4737997  67.4201345
  42.6859093  69.6828604  67.3206568  43.4352016  69.3069601  67.7827072
  42.3933268  68.9866352  66.7325258  84.5385075   9.2841185  66.6942310
  84.1578246   8.4876383  66.3241863  85.3143692   9.4499339  66.1587191
   1.7654443  81.2803555  59.9341106   0.8459115  81.0302544  60.0243568
   2.1435857  81.1186123  60.7984447  46.3591791  30.9957541  51.2165976
  47.2039092  31.2128104  50.8222008  45.7171524  31.4561404  50.6761503
  81.7574596  64.8409128  47.0120287  81.7489243  64.7808170  47.9673004
  82.6775265  64.9825001  46.7891598  61.3772583   9.5012988  59.9555492
  61.4744163   8.6942233  60.4609299  61.9033504   9.3562640  59.1691494
  14.5109678  20.7805575  37.1947122  14.3537498  20.4775752  38.0889797
  14.8002458  19.9987162  36.7243075  52.2501494  33.8781802   1.8606360
  53.1970335  33.8074033   1.7397101  52.0151354  33.1026952   2.3701747
  73.2901621  60.9674835  33.3925080  72.9032183  60.2370453  32.9098415
  74.1278505  61.1253119  32.9570794  21.5274549  78.9333439  62.3062658
  21.2982107  78.4565115  61.5085745  22.3110509  78.4911013  62.6328278
  46.6921711  78.2036972  18.0181694  46.7966509  77.2570372  18.1138599
  46.3375425  78.3176088  17.1364141  29.7872568  -0.2193796  50.1635408
  30.4597307   0.3714217  49.8244762  29.0426565  -0.0979959  49.5744181
   4.4620920  11.1346568  41.7616796   4.1651321  10.3873480  41.2424898
   5.3530050  11.3012732  41.4538622  50.1449944  32.4814908  13.1717141
  49.3049408  32.1391790  13.4772523  50.1788593  32.2415798  12.2456868
  30.2857804  72.9536676  48.0769920  31.0991716  73.4514809  48.1594992
  30.4034233  72.2041750  48.6606455  52.4463606  56.0642576  51.9588184
  51.8280172  55.5769205  52.5032330  52.1524477  56.9733143  52.0176220
  82.0147038   9.4332350  18.6883450  82.9075241   9.7556246  18.5651934
  82.0079232   8.5772551  18.2600009  16.1443687   1.9173087  55.7638788
  16.2328220   1.3773192  56.5492630  15.2086092   2.1117152  55.7110214
  26.1167074  68.6331081  37.3477340  26.7435670  68.7045002  36.6278887
  25.3072668  68.3362722  36.9318962  80.5985737  78.3097553  31.2446260
  80.5622768  77.3696184  31.4208651  80.0021458  78.6967754  31.8854928
   8.3658433  51.5420961  17.2629249   8.3487916  50.5855179  17.2928166
   8.0755640  51.7592573  16.3770270  23.1012083  51.6787434  46.6871405
  22.3012948  51.1645174  46.7964363  22.8290773  52.4384785  46.1723757
  56.0576725  16.3187827  59.4024611  56.1095000  15.6515540  60.0868225
  55.1193405  16.4456404  59.2622042  66.6625881  71.0937595  19.7985125
  67.5501299  71.4350605  19.9081099  66.3881111  71.4119720  18.9384913
  78.6168957  61.8581724  38.2715869  78.4100819  61.8234396  37.3376417
  77.9827929  61.2684107  38.6794114  68.7928820  54.8796272  56.4724684
  68.9025879  54.3580437  55.6773901  68.4061146  54.2739630  57.1047783
  77.2855402  48.4084670  15.1667245  76.8218828  47.5843685  15.0180276
  78.2060839  48.1559245  15.2377732  77.7389383  67.8106499  44.4795609
  78.5761786  68.0778217  44.1002512  77.2329426  68.6210775  44.5379496
  82.9958392  17.0816267  68.2479668  82.5048638  17.1713484  69.0647411
  82.6526785  16.2821520  67.8488159  59.5815349   5.1182593  34.4652963
  59.8562670   4.9036158  33.5738468  58.9133358   5.7944907  34.3537211
  70.8874512  55.2447796  62.6405478  70.1566267  55.0712967  63.2338715
  70.6804323  56.0924196  62.2469950  69.6426535  73.6969900  63.6656713
  70.1811886  72.9064035  63.6312866  68.7547731  73.3753681  63.8220453
   6.0030962  37.1921481  47.4325991   5.3710104  37.8965701  47.2894669
   5.6194139  36.4331568  46.9933319  75.9014155  42.4823921   8.3020146
  75.2624346  43.1775253   8.1447776  76.7507387  42.9197948   8.2423432
  59.1112829  37.8866355   3.6999400  59.9471022  38.2415502   4.0027030
  58.4643484  38.2466523   4.3066485  77.8469277   7.8144778  65.7286072
  77.7647400   6.8612040  65.7558155  77.1356058   8.0999411  65.1552248
  38.6165310  71.1224334   1.8001349  38.8904835  71.4395397   2.6607307
  38.1953169  70.2814357   1.9777043  15.0936867   1.6787566   8.7682861
  15.2674938   0.7785738   9.0434122  14.1596676   1.8043078   8.9358532
  55.2733326  80.7662868  49.5825958  55.7025528  81.6067123  49.4223738
  55.9941483  80.1447105  49.6840620  30.2553535  73.7827778  52.0402622
  30.2342010  73.1308031  51.3397503  30.6770134  73.3336163  52.7728510
   5.3937221   5.9152735  62.2330427   5.9923054   6.6433276  62.0661306
   5.8739019   5.1393260  61.9439793   6.5600611  11.3989465  20.9762033
   6.0457708  12.0559947  20.5071385   7.4698688  11.6587846  20.8314164
   4.3683124  16.4968718  36.0042953   3.6165644  16.2115420  36.5236187
   4.1763092  17.4088515  35.7859802  84.8468542   0.9170950  17.3140466
  85.6808806   1.2305583  17.6638591  84.3176175   1.7080725  17.2116697
  70.9468126  77.0631933  65.3636980  70.2697468  76.5408659  64.9336004
  71.0092735  76.6953230  66.2451744  63.0543184  78.5917759  38.1281590
  63.3989906  79.2994261  38.6728263  62.1109200  78.7508106  38.0976081
  40.4350496  24.0130461  59.5143175  41.1365152  24.4106329  60.0301743
  40.5471254  23.0712355  59.6433735  66.2817217   3.6079852  -0.2340619
  66.8012453   3.2626073   0.4919179  65.7242037   4.2750566   0.1664622
  32.3459984  63.3782070   3.0940564  31.7852617  64.0887515   3.4054072
  31.9960381  63.1576221   2.2308667  85.4809571  21.9001521  69.5754957
  84.6629048  21.4865912  69.2998314  85.8467150  22.2674025  68.7707710
  75.2546358  77.0187330  28.5180402  75.0077534  77.4304724  29.3461418
  74.7249365  77.4684238  27.8596830  45.0751925  77.8523684  36.0238123
  45.4781628  77.2394419  35.4088593  45.7548666  78.5052347  36.1912870
  78.7580347  73.5360146  67.0859051  79.2558384  73.5039043  67.9028416
  78.5698700  74.4655704  66.9564676  28.3525873   2.8712023  54.3467140
  29.1714598   2.3814620  54.2702961  28.5788465   3.7602652  54.0735960
  69.0652132  78.5082054  59.8927402  69.9377537  78.1635046  60.0827169
  68.6452961  77.8234482  59.3721533  59.9745321  71.2308884  42.7678537
  60.3412199  70.3757381  42.9925632  59.7051716  71.1432171  41.8535280
  50.0356413  20.1498573  26.5109952  49.8950936  19.2550151  26.8203958
  49.5172716  20.6928222  27.1048863  80.9708977  76.3132906  57.6832008
  81.4568615  76.2614012  58.5062313  80.3415012  75.5936909  57.7309084
   9.9132658  60.4750490  54.0306711  10.3183389  60.7302904  53.2018185
  10.1260877  59.5466232  54.1253710  59.1316128  78.7980080  54.8523235
  59.9497271  78.6491632  54.3782330  58.5393476  79.1680241  54.1976881
   7.8103805  23.3583487  39.5370841   8.6346937  23.0022562  39.8686576
   8.0657411  24.1457213  39.0563917   7.4294401  74.6761417  60.8936882
   6.7188669  74.8925352  60.2899647   8.1949068  74.5599699  60.3308392
  62.2056699  28.5079611  65.5365038  62.5920678  29.2635287  65.9792709
  61.2967468  28.7625350  65.3774977  16.2196184  46.9289462   2.6699813
  16.9776036  46.3756912   2.4812873  15.7742621  46.4866893   3.3926852
  86.4262152   8.0043066  44.3207169  86.8166876   8.7622202  43.8855982
  85.5302191   8.2769431  44.5184469  11.9092537  14.5585192  68.8596058
  12.4670626  15.0332201  69.4758368  11.2027431  14.2045535  69.3997669
  56.3177156  70.7684326  59.1370106  55.4288626  71.0566473  59.3446112
  56.6026449  71.3558817  58.4370470  81.3003683  11.7169035  64.7690868
  80.7936573  10.9670485  65.0808430  80.8250857  12.4802340  65.0972080
  62.5277830  33.2290284   8.5225137  62.0080019  33.7081544   9.1678746
  63.0572821  32.6245134   9.0425380  33.6152434  76.5923166  53.7968588
  33.5145545  77.2730970  53.1315517  32.7601981  76.5472698  54.2247677
   6.7745234  28.9117877  22.9854329   6.9253899  28.5996597  22.0932134
   7.6488806  28.9664953  23.3710893  82.9009772  10.9014643  49.3981028
  83.5549164  11.4727725  48.9953709  83.1811524  10.8222617  50.3099442
  24.1148545  72.0116966  10.1599343  24.1464306  71.8995635   9.2098458
  24.7987057  71.4303748  10.4925759  10.0768209  68.6626148  57.2711658
   9.5141435  67.9020786  57.1255350   9.6442056  69.3744326  56.7995739
  68.0913950  37.8215568   8.3752759  68.9791609  37.4937503   8.2316287
  67.8047587  38.1225221   7.5130160  44.3778969  33.3018415   0.4685672
  43.8738800  32.5342004   0.1985200  44.3566633  33.8821332  -0.2923886
  78.8159109  30.5755679   4.9422391  78.7547518  29.9660270   4.2067464
  79.4030787  30.1439397   5.5628474  56.3483858  50.3233385  19.9962902
  55.6220531  49.8003435  20.3356194  57.0561886  50.1873922  20.6261826
  29.0444685  61.0506980   0.1591952  28.4877325  61.3746326  -0.5488603
  28.6026980  60.2598922   0.4685529   4.6161771  60.8970356  19.9473500
   5.3217817  60.3992367  19.5343828   4.0072751  60.2305365  20.2655411
  55.7486368  21.0607736   7.5422509  55.3140665  20.3948514   7.0094045
  56.1371924  20.5713289   8.2673009  43.4982372  30.4479568  35.5617745
  44.3652464  30.8202522  35.7228025  43.2186009  30.1146238  36.4143785
  25.8753420  25.9018628   6.4162477  26.5786816  25.3296583   6.7230447
  25.8001353  25.7090156   5.4816993  73.2436943  79.7284985  51.9304848
  72.5809479  80.2231121  51.4484501  73.9281321  79.5528173  51.2847996
  58.3191515  62.7952449  16.5183194  58.4626032  61.9671123  16.0602220
  58.9645792  62.7928893  17.2251733   9.2475915  77.2359514  69.5746279
  10.1930166  77.1160412  69.4849730   9.1462636  78.1497192  69.8410654
  44.4146538  77.4215794  40.4106569  45.0346327  77.0726824  39.7702408
  44.8502541  78.1949139  40.7690382  48.7612963  70.6807756  51.6000032
  48.7220860  69.8875570  51.0656834  48.0198002  70.6021547  52.2001982
  54.6397638  50.0952578  63.3506012  55.3143406  50.4369307  63.9374876
  54.4749498  50.8086634  62.7340651  57.3087502  66.8462181  47.3488808
  58.2304525  67.0525551  47.1935654  56.8534803  67.1904135  46.5804482
  65.2946520  59.6025562  37.6152253  64.3909502  59.9111509  37.6809573
  65.4618406  59.1707802  38.4529901  66.0137224  78.6532831  28.3384562
  65.2652407  78.1041765  28.5718751  65.9565544  78.7444115  27.3873186
  56.5527177  26.7150725  45.6205130  55.9255481  27.4186362  45.4535294
  57.2711015  27.1406687  46.0885143  47.2164583  63.8321209  60.9731102
  46.4337397  64.3225098  60.7219219  47.3478365  63.2084846  60.2589321
  48.4147024  78.4665298  31.5129089  48.4278202  79.1023254  32.2283316
  47.5651789  78.5974216  31.0917115  81.9987536  40.4037322  63.0558729
  81.2416602  40.8400477  62.6651335  82.5711155  40.2072657  62.3142290
  53.8164235  31.5714777  57.2602940  53.2236791  32.2310103  56.8998623
  53.9673281  30.9638155  56.5362787  78.7320757   3.4142245  41.8917274
  79.3239689   3.8655699  41.2899160  77.8612280   3.7341345  41.6561079
   9.9133420  51.3533926  59.0659523  10.6909013  51.6727209  59.5238447
   9.2116476  51.9404507  59.3474197   0.2022196  12.3706568  52.6180649
   0.3637195  11.5276087  53.0416489   1.0277391  12.8465212  52.7091789
  74.2065573  24.7653031  22.3156428  73.9120865  25.6582618  22.1363688
  74.6348810  24.8213005  23.1698322  33.3994509  13.9183844  67.3874092
  33.9004541  14.6040190  66.9456673  32.9821611  13.4311999  66.6769552
  50.3765179  35.0921027  17.7209409  50.1523949  35.6042020  18.4979566
  50.7227160  35.7350128  17.1020253  55.6312300  22.5133425  19.1607221
  55.1889493  22.3367506  19.9910482  55.9127165  21.6523367  18.8514264
   0.7158971  75.8776808  63.2812595   0.1358533  75.2194452  63.6640167
   1.4332223  75.9593296  63.9097643  10.4367281   2.9351557  51.7467737
  11.1246038   2.2921504  51.5747070  10.6669784   3.6848677  51.1980104
  62.9570913  69.8739815  57.1743011  62.7027464  69.2212248  57.8265667
  62.1503496  70.3548527  56.9894648  69.1717958  32.3858833  62.6962280
  68.8592911  31.5997934  62.2483063  69.3628311  32.0937252  63.5875082
  32.9897238  24.9251382   7.3659976  32.8978182  25.3944700   6.5368350
  32.1610047  24.4574659   7.4696334  13.4744453  70.2295386  33.0149293
  13.5008239  69.9208056  33.9205885  12.6631975  69.8649334  32.6611233
  11.4098835  70.6772064  26.5583968  11.5381527  71.1105203  27.4022079
  11.3514232  69.7463464  26.7736030  77.9751252  63.3430087  29.8994708
  77.9420089  62.7667736  29.1358685  78.8392948  63.1866228  30.2802420
  81.0818816  62.7733568  15.9966119  80.6772805  61.9287685  16.1946137
  80.3499699  63.3897594  15.9724458  21.8559503  60.0031601  49.4088650
  21.7805433  59.5677983  50.2579880  21.1700248  59.6043169  48.8734579
  11.8773961  11.1072755  54.3381166  11.8619895  10.7767105  55.2362919
  12.2118187  10.3756595  53.8193369  12.4594259  67.5854253  24.4754148
  12.5403452  66.7576396  24.0016460  11.8130159  68.0847954  23.9764023
   1.1418659  18.9143407  28.8037658   1.7187425  18.6780667  28.0773926
   0.8175953  18.0766106  29.1343546  37.1144390  68.4860586  55.3785133
  37.3132610  69.0741812  54.6499443  36.2511778  68.7655925  55.6832552
  22.2242618  17.2917461  23.0308080  21.4913440  17.0359015  23.5908151
  22.6374269  16.4642954  22.7841258  70.6133329  78.1582599  45.6737995
  70.4093682  77.2923704  45.3204346  71.2590098  77.9907798  46.3603020
  78.4468245  64.1376125  15.5348063  78.2622241  65.0532161  15.3254652
  77.7798628  63.9000296  16.1789703  10.0663042  70.6939816  65.6431437
   9.6472883  71.0174166  66.4406681  10.8953285  70.3207826  65.9425926
  32.8580570   0.4918195  40.7261562  33.3060622   1.3083315  40.9471369
  31.9270921   0.7021252  40.7990074  26.6371727  74.9437331  54.2191887
  26.9163036  75.8244126  53.9687490  27.0240688  74.8066895  55.0839233
  66.2065684  45.3905307  36.7007446  65.9569817  45.1972209  35.7971025
  66.6807502  46.2202226  36.6459942  45.2543116   5.4790741  29.2740321
  45.2429390   6.3898444  29.5683122  46.1643791   5.3195262  29.0239286
  69.5895838  12.6808238  43.2574034  69.8792421  13.5756373  43.0795288
  70.3979158  12.1690822  43.2882595  15.5259084  28.4194290  28.4980464
  14.9742555  28.2564651  27.7329636  15.3859806  27.6578866  29.0608072
  66.8086147   0.0006681  61.4243650  66.7114401   0.9486596  61.5143681
  66.1960506  -0.2379048  60.7286024  67.7193213  55.0911037   3.8679250
  67.4610734  54.5799021   3.1009706  68.3411980  54.5301095   4.3313773
   3.2538247  80.5344363  32.1156192   3.8982510  80.4428304  32.8174400
   3.1997466  79.6623411  31.7247772   7.9076409  31.9726276  46.6508722
   8.2814306  31.2453365  47.1484280   7.1240956  31.6052890  46.2417889
  37.9759336   7.8676355   1.8157578  37.6775861   8.7766880   1.8448403
  38.1421590   7.6407218   2.7306953  25.0210762   6.3085264  16.2531364
  25.7167244   6.4030302  15.6024635  25.3083491   6.8466723  16.9907713
  13.2979823  60.3053836  20.6029923  13.8556791  60.0407866  21.3345655
  13.8811243  60.7933418  20.0215562  75.9955310  18.7275659  29.6570301
  76.1837470  18.1592762  28.9101338  75.4902517  19.4510328  29.2861915
  45.3871536  23.6077118  50.1198530  44.5706558  23.3342052  49.7018099
  46.0008144  22.8967857  49.9348259  21.1007595  55.9174286  63.8849831
  21.9684076  55.7301437  63.5267401  20.9441232  55.2129971  64.5138502
  27.5315094  58.2089888  27.8913116  26.7565775  58.4093987  28.4162402
  27.5322914  58.8732492  27.2021174  45.0837708  10.9922040  42.3263264
  45.6448936  10.4811621  42.9095984  45.0451565  10.4780018  41.5198898
  76.7733084  52.0220219  59.5666742  77.0923340  51.4908706  58.8370657
  77.0840096  52.9064166  59.3729210  13.5469532  81.8340084  47.9079151
  12.7081871  81.4111025  48.0918980  14.2020511  81.2255123  48.2496881
  67.9334044  73.9261930  12.7428997  67.3931502  74.5946776  12.3216093
  68.8181245  74.2914104  12.7320504  63.3580100  77.4155109  28.0798149
  63.3891594  76.4658754  27.9638243  62.5221794  77.6767226  27.6933074
  78.1559371  52.4777137  62.0532179  78.3205628  51.9563972  62.8389406
  77.2511267  52.2744023  61.8161201   7.7408814  75.6108152  43.2171535
   7.5897336  76.2543320  42.5248575   8.5172462  75.9310203  43.6764526
  65.6168699   0.3009968  22.2901988  65.3759336   0.7026409  23.1249833
  65.0061846   0.6790175  21.6574287  69.2291975  35.4543219   6.2789519
  68.5867906  36.1612780   6.3402780  70.0685788  35.8770064   6.4606317
  68.9293814  67.6145319   8.5090812  68.1994057  67.8438882   7.9339631
  68.8162351  66.6792325   8.6783250  78.3019470  70.4370820  25.8264804
  78.0623244  70.6888424  26.7183495  77.4654519  70.3484892  25.3696871
  40.0065017  53.0064372   2.4037726  39.4028378  53.6402670   2.7911742
  40.7176602  53.5393862   2.0481761  61.3834887  51.0539686  21.2823963
  61.9460385  51.2185489  20.5256391  61.9920769  50.8653342  21.9967294
  85.3489970  71.3891112  31.0530734  85.2461504  71.5664386  31.9880652
  86.2957453  71.3374566  30.9218073  18.1735181  48.8888537  40.9733725
  17.9533958  49.0300738  40.0525904  18.1722641  47.9372489  41.0767078
   4.4369304   0.6379805  64.2792034   4.4273290   0.4245263  63.3461523
   4.3229267   1.5879071  64.3087721  69.5414995  59.6750938  47.5686836
  69.8997521  60.5105602  47.8684855  69.5937442  59.7208582  46.6140079
  30.4505134   8.1061459  48.2651138  30.5915380   8.9281970  48.7347698
  31.3297558   7.8133202  48.0254984  23.1875539  17.4275899   8.1817490
  23.1685829  18.1025720   7.5033158  23.1429029  16.6019583   7.6994932
  67.8624093  64.6874105  53.0423689  67.0748352  65.2177845  52.9212761
  67.5900828  63.7986290  52.8140259  31.3582992  67.2787963  63.9863634
  32.0125484  67.7649378  64.4882107  30.5779743  67.8326499  64.0103054
  70.8548737   1.3000041  44.6598244  71.1157608   1.9154455  43.9746952
  70.7083464   1.8479554  45.4308701  22.0239353   6.3066453  26.2599301
  21.0905600   6.2811500  26.0492349  22.1771622   7.2022939  26.5608740
   8.2390857   3.2893768  29.5423913   7.9756719   2.7215651  28.8182116
   9.1577774   3.0696121  29.6971178  19.4511509  74.3234806  16.2652731
  19.6514511  74.2329555  15.3336525  19.8449325  73.5511505  16.6710722
  42.3912430   2.9161024  15.1879025  42.3773623   2.0199522  15.5239892
  41.7802763   3.3922848  15.7502186  23.6681842  76.3508456  40.4482174
  23.0340719  76.0762238  39.7858620  24.5204830  76.1492526  40.0619698
  26.3107824  42.8279721  31.6167474  25.7749700  43.6099588  31.7495441
  25.6827879  42.1439349  31.3844967  54.7294902  56.8748795  17.5641751
  55.5434513  56.4114105  17.3669493  54.8488044  57.7429997  17.1789992
  40.5821466   1.3838054  17.9014349  40.3899860   0.4489317  17.8285253
  41.4471149   1.4193918  18.3098459  38.9264917  49.0350687  12.0313799
  38.0228901  49.3147456  12.1780503  39.1439199  49.3733512  11.1627483
  79.7127121  14.1686308  35.1235414  79.8729682  13.9391768  36.0389113
  79.6939969  15.1256204  35.1162481  43.0092001   3.0469051  43.7849236
  42.6357269   3.8162804  43.3550262  42.9439449   2.3515177  43.1303930
  37.8845286   8.1927907  39.8796773  38.2156038   7.7978361  40.6862926
  38.6571813   8.5793489  39.4675922  25.1330232  78.1541573  27.8428173
  25.6945705  77.3795455  27.8133273  24.3189811  77.8448643  28.2401943
  38.7500858   6.9597405  33.4950924  38.2591319   6.5067106  32.8095555
  38.2500815   6.7972469  34.2949820  71.5845585  35.8955643  17.0926221
  72.0740223  36.0301966  17.9041226  71.5013600  34.9449108  17.0180066
  76.0405480  58.6284482  57.4429607  75.0903200  58.5395967  57.5164795
  76.1738097  59.5221244  57.1270275  23.9295769   7.1509129  36.8749142
  24.6353459   7.0748699  36.2327743  23.4041262   6.3609648  36.7479682
  18.7998914  74.3359702  60.3606701  18.0188226  74.7264128  59.9686003
  18.9422416  73.5319506  59.8611498   3.6524511  27.7014462  16.0251935
   3.0456949  26.9922415  16.2375768   4.4566990  27.2565643  15.7578023
   2.1167850  57.9224931  59.7641468   2.0405268  57.6881920  58.8392019
   2.1435570  58.8793122  59.7674274  80.6745177  18.9619887   3.3793274
  80.1424777  19.1779160   2.6134682  81.0353815  18.0971658   3.1841579
  50.9251690  20.4049039  44.1580582  51.5998554  19.9969161  43.6153078
  51.3573790  20.5657387  44.9968433  53.6013365   6.7880893  35.4433870
  53.4104204   5.8506113  35.4737163  53.3836412   7.1053267  36.3198590
  12.5026321  71.4226674  24.3096757  11.8264722  71.8803804  23.8101387
  12.0724249  71.1816143  25.1300693   0.5467223  44.4834290  56.4561204
   0.6814527  45.3060998  56.9265382   1.4304637  44.1699482  56.2638704
  63.2113760  72.0193790  46.2285423  62.7978586  72.2147500  47.0694160
  62.4924802  71.7201005  45.6718969  13.3491706  75.2767246  41.6554451
  13.6200046  75.8156507  42.3987103  12.5685739  74.8170953  41.9647026
   9.6634477  21.3578176  58.1099081  10.0744271  20.7671428  58.7411213
  10.3807473  21.6369462  57.5408745  40.8817911  13.8526428  46.2787294
  41.1765623  13.0391026  46.6879892  41.4287996  14.5314717  46.6739607
  23.0109406   2.2419047  47.1936226  23.4267569   2.6353061  47.9608011
  23.6511707   2.3530571  46.4907789  28.0728126  11.6645455  31.3686466
  27.3711157  11.2650907  31.8827391  28.4659171  12.3074949  31.9588304
  16.2407112  74.9000638  55.7076502  16.2949896  74.7366910  54.7660589
  15.9048175  75.7937299  55.7767105  71.8184530  81.8704012  59.9615192
  72.2403359  82.0074020  60.8097410  72.1167218  81.0046432  59.6827173
  29.7360134  14.9031746  43.6396885  29.8231483  15.6819987  44.1893005
  30.5936527  14.4805706  43.6854362   8.1404412  31.3213921  21.1225700
   7.7133912  32.0375395  20.6524706   8.0256599  31.5399003  22.0474005
  38.7987947  77.7370512  37.6886177  38.1125545  77.1566697  37.3592758
  38.5352516  77.9335420  38.5875988  54.6758938  15.9670222  53.0394745
  55.0894451  15.1037765  53.0431557  55.1989317  16.4857793  53.6506605
  29.3465281  10.8279312  48.8220263  29.1616797  10.4858351  49.6966887
  29.9194026  11.5793824  48.9748907  73.0235397  15.5938256  44.3622017
  72.6212596  14.7263145  44.3194675  72.2861504  16.2023461  44.3153763
  22.6458311   6.2690550  46.0033369  21.8164849   6.1421371  45.5425644
  23.0261922   7.0499688  45.6011772  45.3707790   1.3007396  34.6545172
  45.7239294   1.0148223  33.8120413  44.7389889   1.9838601  34.4299698
  35.2523470  76.7567187  62.7899361  35.3148317  77.3040663  62.0071602
  35.1617002  75.8655809  62.4524641  80.2145689  41.4863014  35.2935171
  81.1177963  41.5609312  35.6014848  80.1280295  40.5717659  35.0245047
  86.4785933  75.7687174  43.8853741  87.1841001  75.4538672  43.3202505
  85.9058212  76.2641590  43.2999659  50.2712631  15.7835841  24.9667621
  50.6915092  16.5576816  24.5920610  49.4005346  16.0853922  25.2255535
  37.3746157   9.8494726  47.0706463  37.9040074  10.2366769  47.7678156
  37.1112514   8.9963222  47.4156189  13.0018425  21.2279534  48.6791229
  13.4820735  22.0456648  48.8093567  12.2808838  21.2709498  49.3072987
  46.9332981  11.1380970  33.9247656  47.4446106  11.4844787  34.6560740
  46.0234976  11.2095785  34.2135239   9.7517824  64.5787679  25.9778953
   9.5666718  63.9953815  25.2419424   8.8888740  64.8304414  26.3069558
  61.9623651  76.8813275  19.4252694  62.2019755  76.9692405  18.5027242
  61.5094515  76.0395830  19.4759321  37.2292256   3.0165511  21.8769979
  37.1705890   2.4474058  22.6443744  38.1663084   3.0694780  21.6891003
  12.2340440  65.4098987  47.4247694  12.9928732  65.5933737  46.8709230
  12.3037004  66.0392319  48.1426287  28.2300782   4.7527102  59.5353317
  28.0424547   4.1300890  58.8329268  29.0028453   5.2295899  59.2325974
  62.5875807  64.1045550  10.5506452  61.8555951  63.4929208  10.4710515
  63.1274701  63.7418727  11.2529309  37.3918819   5.9892476  53.2248449
  37.9308128   5.6258243  53.9274883  36.9727755   6.7555881  53.6163855
  61.1180019   7.5354350  30.4306746  62.0520544   7.3773217  30.2936530
  60.6873751   7.0531768  29.7248268  22.5423312  13.4224045  58.5281324
  23.2655048  12.8679025  58.8210154  22.9347086  14.0033352  57.8763723
  55.6792999  50.7633362   9.8428472  55.5654455  50.1734433  10.5880292
  55.1589775  50.3684977   9.1431268  82.0615982  25.8784639  46.8934441
  82.6877426  25.4318582  47.4632835  81.7185830  26.5939771  47.4288034
  46.8576145   7.5709796  26.2824225  46.1867285   6.8912721  26.2180972
  46.3651419   8.3910066  26.3178492  29.5183778  20.2760053  60.2041388
  28.7983966  20.4854584  60.7991076  29.1018796  20.1838088  59.3472481
  15.0105238  66.8772708   8.5127527  14.8082065  67.6089846   7.9297483
  15.3728294  67.2891377   9.2971843  21.4783287  75.4930477  45.7596302
  22.2398090  75.0077276  45.4420710  21.4579868  76.2850266  45.2224255
   1.0245704  68.0084120  43.7191105   0.7224083  68.9144396  43.7827015
   1.9219184  68.0313109  44.0514898  75.8923411  65.9408974  48.5877705
  76.5941261  65.8178031  47.9485703  75.9883987  66.8482291  48.8771725
   3.5346100   6.0037154  59.3906879   3.9346975   5.6607389  58.5916090
   2.6488382   6.2530285  59.1270924  12.5745058  74.1023796  22.3667598
  11.7568922  74.1384505  21.8703294  12.4942922  74.8050826  23.0117440
  49.6701050  30.3015780   7.1183658  48.9319468  30.7829189   6.7446488
  50.4399347  30.8138871   6.8711179  72.2992802   5.8842778  38.7699127
  71.9961786   6.4609557  38.0686259  71.4971638   5.5895865  39.2011809
  67.1488821  64.3971299  38.2540035  67.7120327  64.3755304  39.0277147
  66.9659745  63.4767484  38.0651283   3.0499887  39.5189392  58.5929823
   2.2235679  39.9744140  58.4323692   3.7220049  40.1246892  58.2804298
  42.4638605  23.2681990  49.6263075  41.9831419  22.4962425  49.9250078
  41.7830467  23.9044309  49.4073677  22.5403022  66.4132678  34.5001006
  23.0877065  66.0033499  33.8303661  21.9943952  65.7006620  34.8323774
   7.5307822  70.4487895   2.5101775   6.6499471  70.8070563   2.4006031
   7.5301957  69.6473586   1.9867857  15.0799322  70.1043509  62.2974443
  14.9370336  69.8811709  63.2172298  14.3517828  69.6899461  61.8345165
  13.9884615  54.3240105  41.7452192  14.7142315  53.7262093  41.5659761
  13.2034874  53.7872230  41.6361094  36.9903779  15.1837039  46.7242384
  36.1531091  15.6144178  46.8965769  37.6033998  15.9032834  46.5737677
   1.2222184  22.3396134  31.8347716   1.4746392  23.2438469  32.0215249
   0.9142719  22.3591757  30.9286714   9.7030283  20.9523753  37.4547608
   9.4811846  21.6353563  36.8218644   9.4342495  20.1370624  37.0313771
  26.1183772  37.4333910   5.8285173  25.2473736  37.0422954   5.7604774
  26.7179367  36.7252097   5.5934842  61.6812205   3.9170009   5.0930041
  60.9766483   3.3160317   5.3351712  62.4434876   3.6000305   5.5774742
  77.7635287  73.5819029  44.9443579  77.5992071  72.6614158  45.1491356
  77.7830063  74.0171026  45.7966805  38.3357739  17.8987956  39.1160321
  38.7866879  18.5004675  38.5236645  38.0174661  18.4557498  39.8264647
  51.7440033  49.9638519   8.8380225  51.6217494  49.7901151   7.9046948
  52.5018835  50.5473117   8.8757785  60.9389483  78.7030383  61.9799042
  60.9347399  78.2894467  61.1166763  60.3320130  79.4384547  61.8960905
  78.7880438   9.9600136  29.6765256  78.0322688  10.3405011  29.2290163
  79.2537742   9.4784504  28.9928412  76.2364411   4.4173944  40.9188652
  75.9172987   5.0421441  40.2676630  75.5995643   4.4680542  41.6316462
  28.3685875  19.8230886  33.1714773  28.2616639  19.9650097  34.1120386
  29.2660308  20.1007724  32.9878497  38.4288049   7.3019433  50.8614635
  38.5965157   6.6506386  51.5425730  38.1361175   8.0780929  51.3391256
  62.5846052  25.7404351  63.4495640  61.7484856  25.6101322  63.8969564
  62.7946568  26.6623998  63.5981989  23.1500816  14.4603133  46.2149954
  23.4183526  15.0978017  46.8767166  23.7423635  13.7192249  46.3423681
  62.7273204  76.2529724  65.5678177  63.3853089  75.5735772  65.7151461
  62.2396319  75.9518551  64.8011875  79.7673964  79.0161683  43.5960054
  79.1069793  79.0027445  42.9032612  79.4420337  78.3966558  44.2491341
   1.4785504  69.7396444   2.8231540   1.3569140  70.2098917   3.6479595
   1.8443870  70.3928517   2.2267345   1.6953587  71.0963725  43.8105536
   0.8000278  71.3331448  44.0525293   1.6662812  70.9898483  42.8597450
  33.3820224  13.4803498  38.4394336  34.1975069  13.9741111  38.5255551
  33.4615254  13.0315411  37.5977206  35.6218028  42.1704539  25.3196939
  34.6771193  42.1841241  25.1660188  35.7463807  42.7185913  26.0944589
  27.1745300  77.6779377  54.8383331  26.9241809  78.3574553  54.2123842
  27.5685119  78.1571718  55.5672693  48.5486364  17.6731980  17.3241496
  48.4996223  16.8682456  16.8085146  49.3789768  18.0730844  17.0655763
  57.2851229  23.5285354  42.0575619  56.7104006  24.2939901  42.0551300
  58.0425262  23.7993479  42.5764322   8.0325627  79.9880276  61.4428282
   8.6339450  79.6528903  60.7778072   7.6301121  79.2048969  61.8182945
  38.7756085  21.2753868  43.1677771  39.3534136  21.5630722  42.4609470
  38.1088591  21.9597340  43.2256222  46.5106058  29.4794512  47.9638672
  46.4028502  28.5322547  48.0501223  47.4358940  29.6335864  48.1544495
  29.9072133  61.7666320   2.5770171  29.5785927  61.3820461   1.7644055
  29.2923901  61.4701752   3.2480844  25.6579685   7.5479990  56.9109488
  26.6030979   7.4879706  57.0500851  25.3951788   8.3351958  57.3879099
  37.5930834  26.8123531  26.3347936  37.4139738  26.7640066  27.2738433
  37.7888989  25.9102678  26.0815597  39.0710258   3.3341122   9.0576482
  38.6341095   3.3701235   9.9085534  38.6632156   4.0350786   8.5491520
  67.2499466  15.3027153  41.8062353  66.9107056  14.5186687  42.2379971
  66.6194582  15.9887171  42.0255947  46.1273241  39.0461135  36.0755396
  45.6640339  38.4770441  35.4609203  45.5525923  39.8044515  36.1796379
  12.8810465   5.7705891  31.5444040  13.0745256   5.0399876  30.9570193
  13.7364995   6.0460281  31.8738937  15.4846084  28.1541419  48.9847755
  15.1587105  29.0123081  48.7135267  16.1449718  28.3480430  49.6500254
  76.5384173  77.1543874  61.2128305  77.2855305  77.2854882  61.7966700
  76.9082414  76.7193239  60.4445982  35.4994595  71.0410241   1.9650872
  35.0886780  70.9324364   2.8228171  36.3318056  71.4754347   2.1514209
  43.6403370   3.1765130  67.5936890  44.5303249   3.0938610  67.2511625
  43.6085320   2.5636184  68.3282518   7.8942610  40.0603915   7.1148236
   7.1315933  40.4912956   7.5006898   7.5594784  39.2229215   6.7942031
  15.2040076  20.0679970  15.8638632  16.0499644  20.0465918  16.3112235
  15.0287366  19.1542161  15.6391060  58.2370472  26.6788101  43.3229637
  57.3076344  26.8370509  43.4884501  58.6909389  27.2976518  43.8950205
  22.2399711  79.1641586  18.0884397  21.7145824  78.4239363  18.3921945
  22.3211479  79.7310131  18.8554585  42.6990271  15.1596665  29.1041994
  42.8743315  14.2806852  29.4401908  43.4540653  15.3595614  28.5508513
  16.0763955  16.4856136   6.7201310  16.5671003  16.9656360   6.0530329
  16.7434740  16.1810577   7.3353416  21.8707466  75.7805096  55.3406477
  20.9535932  76.0385310  55.2485466  21.9258499  75.4009002  56.2176275
  60.0082254  14.5551586  51.3210440  60.3875685  14.1108143  50.5628300
  60.5650091  15.3226364  51.4522076   7.6997639  33.8566408   9.8071607
   7.0610929  33.2293311  10.1460012   7.9642654  34.3664435  10.5729039
  22.0372534  41.4042473   9.9294049  22.7693200  41.3401175   9.3160534
  21.4443469  40.6992626   9.6692348  30.7997488  58.3344785  14.1924413
  30.1183606  58.6659912  14.7772916  31.5794200  58.2720403  14.7442086
  62.5027585  55.2026228   0.7454093  63.4590936  55.2390865   0.7634242
  62.2695685  54.6592120   1.4981111  37.6735735  76.2611847  41.8664551
  38.4973764  76.4339053  42.3222446  37.5596666  77.0126318  41.2845755
  26.1472654  44.4692432  67.4770927  25.6558609  44.8014509  66.7258310
  26.7516470  43.8279401  67.1033430  57.7332497  25.7248139  60.4463482
  58.5086918  25.3993583  60.9035158  57.8582335  25.4507565  59.5377779
  16.5224195  18.9770234  58.1919956  16.1432946  19.7276521  58.6492157
  15.8403158  18.3063471  58.2260370  49.9844556  72.0821886  42.0182610
  50.2381747  72.1121835  41.0957909  49.0381580  72.2260707  42.0111990
  31.9411230   4.5486969  66.0130358  31.8447971   4.6910477  66.9546795
  31.0750198   4.2608869  65.7244778  24.3440437  19.3932235  55.7243061
  25.1300621  19.8845327  55.4855156  23.6508775  19.7731996  55.1845169
  84.8444485  78.1456636  50.8022594  85.7141828  77.9282077  50.4668331
  84.3149685  78.2915192  50.0182867  27.1619511  12.3395288  46.4675140
  27.0714068  12.8893173  47.2458220  27.5408530  11.5232527  46.7936373
  56.6342115   5.8415061  50.0975323  56.7109871   6.7479736  50.3952837
  55.7839584   5.5519342  50.4283619  70.3227854  72.8402284   2.1082337
  70.6575919  73.2737664   2.8932078  70.9748364  72.1683506   1.9091352
  40.7228279  11.9717765  36.1545658  39.9264240  11.7512023  36.6375947
  41.3750744  11.3460207  36.4695883  44.5767021  26.4935112  70.2404690
  44.2760992  25.6017971  70.0652075  44.9650955  26.7820144  69.4145489
  27.2232771  20.2147317  54.4285107  27.3857641  21.1474776  54.2877483
  28.0472875  19.7895384  54.1909170  49.6837568  24.2682076  44.0502834
  48.8056707  24.0768290  43.7207842  50.2523994  24.1725159  43.2862663
  34.7005367  22.8184581  45.1528835  34.1536450  22.8460884  45.9379816
  34.4252658  22.0230150  44.6971130  41.4743614  29.4076562  54.0489578
  40.6353378  28.9681149  53.9108372  41.4086723  29.7780585  54.9291372
  71.7167782  78.1036105  54.7042418  71.2446665  78.3990487  55.4827404
  71.4872717  78.7415104  54.0284872  31.6620398   8.9377576  29.3746543
  31.2454987   8.2397962  29.8801994  31.4304972   9.7415119  29.8400569
   3.3612038  75.6938914  10.0283082   3.1139065  75.5807785   9.1105445
   4.2353226  76.0824994   9.9946721  75.0046253  10.9162247  43.7900209
  75.4407454  11.2158692  42.9923677  74.9420309   9.9666989  43.6865187
  71.8983126  16.6853726  52.9892206  71.0177183  16.3646054  53.1838989
  71.7560196  17.4643695  52.4514961  68.7671863  42.6972496  48.5039616
  68.8921594  42.1071445  49.2471933  69.1276073  42.2204339  47.7563143
  14.1783952  80.8952772  45.3119087  14.9684810  80.3598105  45.2393198
  14.1911411  81.2201937  46.2121820   3.5297107  73.6171644  35.2210498
   3.8381052  74.5230930  35.2415085   3.5069608  73.3928501  34.2907834
  20.6198716  41.2289476  59.9384785  20.1110196  42.0149612  59.7397566
  20.8636141  40.8784723  59.0817451  25.3234172  20.1665950  23.5133433
  24.9784493  20.9520626  23.0887604  26.2379909  20.3777838  23.7009239
   4.1645265  61.9377664   4.7207912   4.3787790  61.3637666   3.9853652
   3.8790060  61.3425473   5.4139169  52.0078993  33.8240409  57.9740620
  52.1125698  34.0049314  58.9081669  52.2905827  34.6294999  57.5409746
  57.3690128   9.1907382  43.8109541  56.9807291   8.8311881  44.6085739
  56.9643450   8.6915696  43.1015158   8.4547233  70.0160288  14.8057389
   9.0485906  69.3444609  15.1412237   8.6794138  70.0928794  13.8784635
  80.8455800  77.9156872   3.9083618  80.7731771  76.9765594   3.7379834
  81.3181590  78.2607999   3.1508669  80.5494427  66.4228653  41.7262459
  80.1427650  67.1906339  42.1279621  80.3097104  66.4811861  40.8013916
  41.6258574  13.5803783  63.4574890  42.5333786  13.6375546  63.1585360
  41.5578890  14.2431235  64.1447878  55.4475451  21.4608288  55.4794359
  55.6689358  22.1151066  56.1421108  55.1023483  21.9700003  54.7460794
  67.0809358  66.0799252  23.7642074  66.6530733  65.2239381  23.7429237
  67.5417542  66.0965609  24.6030188  23.0399561  69.2432593  52.7146912
  22.7469968  70.0458025  53.1463528  23.9506387  69.1412698  52.9912519
   6.2832904  78.9294763  26.2043786   5.7275080  78.7568589  25.4444170
   7.0565700  78.3828898  26.0646820  36.9300985  30.7083488  64.7075033
  36.6437316  30.3425145  63.8706112  37.1246314  31.6253829  64.5140123
  35.7429123  14.6934521  38.4867716  36.1239457  15.4804683  38.0973458
  36.3948560  14.4018626  39.1240907  75.5157185  19.3708980  38.0006123
  75.7019091  19.9939084  38.7030530  75.5531073  18.5135841  38.4246969
  32.8297615  19.8664463  64.6682882  32.9385042  20.0278139  65.6055021
  31.8823409  19.8751831  64.5320940  59.7189808   3.1674036  48.1295872
  58.9243698   3.6933339  48.0388880  60.2031088   3.5857201  48.8415337
  30.8232379  24.6732044  17.2189760  31.3584900  25.0423765  17.9214358
  30.0188875  24.3904757  17.6540804  51.4929628  28.9091730  62.3214245
  51.3102484  29.7843385  61.9794750  50.9365177  28.3283091  61.8025827
  17.5752877  44.6954228  65.4843966  18.4162902  45.1369126  65.3659110
  17.2318601  45.0503893  66.3043265  51.9828081   0.9298928  45.4044294
  51.9422197   0.3779393  46.1854124  52.8740740   1.2790017  45.4039288
  79.0288567  81.0043313  34.3488240  79.7821879  81.5855904  34.2446184
  79.2027544  80.5303215  35.1620317  14.8405361  75.8510899  37.6934671
  15.3149080  75.9068762  38.5229802  14.6793890  76.7621314  37.4479723
  54.7648859  14.0998185  33.4406447  54.5243120  14.7957444  34.0522361
  55.7171726  14.0357220  33.5133076  84.8904924  32.1727729  28.6632705
  85.0280802  32.8572536  28.0084538  84.4206833  32.6110435  29.3727970
   6.5376866   1.5704568  36.3357806   6.9827461   2.2699633  35.8574057
   6.5998828   0.8088777  35.7592750  13.6699820  12.9251838  21.1909342
  13.4604383  12.3151886  21.8982029  12.8836024  13.4628808  21.0975480
  37.9135013  12.5615788  53.0622673  38.2814527  13.2385159  53.6302423
  38.6763716  12.0971179  52.7179718   1.9196057  78.7808802  14.4545937
   1.4593172  78.1227150  13.9338386   2.1554947  79.4623049  13.8251114
  23.7343407  40.9458637   8.1462020  24.5232129  41.4091253   7.8646010
  24.0161252  40.0376463   8.2556099  56.3108421  47.5465647   6.2216313
  56.8433094  46.9847277   6.7846997  56.2280608  47.0563827   5.4036458
  85.7030392  22.8245926  51.3709927  85.1974583  23.2634306  52.0551252
  86.6079807  22.8619075  51.6807127  21.9859790  75.0814103  32.5194407
  22.6329088  75.7814490  32.4319243  21.2597799  75.4844992  32.9952431
   6.1221862  14.9005318  34.5042539   6.5325379  15.4371953  33.8261414
   5.5751562  15.5130172  34.9960375  20.4651999   5.7344383  44.6721268
  19.7189617   5.6130838  45.2591848  20.2141595   6.4710158  44.1147566
  44.0450859  10.8094025  50.6985807  44.5669365  10.5899036  51.4704132
  44.6878958  10.9170818  49.9975538   8.3833433  64.6827888   7.0639449
   8.9932943  64.1527653   6.5508521   8.8239122  64.8088074   7.9043305
  21.5082908  23.2263756  47.3732901  21.6664410  24.0717697  46.9531345
  21.1097670  22.6893687  46.6884279  66.7336440  81.2985543  37.0536645
  66.9382620  82.2104720  37.2604688  66.3214207  81.3353804  36.1905606
  62.9612780  14.6951234  42.3439980  62.0957327  14.5532787  42.7273321
  63.4859133  15.0498009  43.0617666  86.4780358  33.3024859  56.8709373
  85.6507653  33.5131288  57.3039341  86.7849926  34.1388941  56.5210342
  53.2014370  44.2754316   1.7437977  53.4402084  44.9222660   1.0798511
  52.8873348  43.5227108   1.2428170  19.5769358  36.9233394  21.8444037
  20.0753903  37.6308393  21.4354801  18.8053370  36.8209100  21.2872887
  10.0959110  13.8314080  44.1647005  10.9850192  14.1381633  43.9868832
   9.5963424  14.6301520  44.3340254  35.9463286  28.7014484  58.6869812
  35.3417993  29.2156577  59.2221117  36.6401196  29.3171310  58.4507179
  20.4602241  78.1152095  57.5825930  20.9286356  77.4305220  58.0601120
  19.7933817  77.6448872  57.0822382  66.7906237  14.0317345  65.3786612
  67.6313448  14.2149389  65.7980108  66.6856098  14.7332931  64.7359943
  43.4492922   6.0747075  48.1573486  43.4269857   5.1178432  48.1452990
  42.6205397   6.3285118  48.5635281  21.2181592  10.5428934  13.6395681
  21.3684034  10.1769710  14.5112097  20.9209776   9.7990686  13.1155074
  69.3402862  10.8627244  67.0843999  70.1237976  10.3137895  67.1162469
  68.6344575  10.2594300  66.8518646  50.1000381  46.8490151   1.5601428
  50.7689405  47.1826474   0.9622367  50.5208159  46.1122063   2.0031865
  11.2047803  41.6063499  34.3312430  11.7037439  41.5132284  35.1427841
  10.9258628  42.5219917  34.3252945  31.6809535   4.8927099  15.3939605
  32.4723339   4.4861355  15.0409091  31.1966920   5.1846516  14.6216321
  31.8764067  14.0422416  53.3325005  31.3182187  13.2968187  53.1111336
  32.2987485  14.2787731  52.5067234  57.5747061  29.9821091  46.3228321
  57.5662899  30.9095693  46.0862398  56.7960024  29.6200037  45.9000683
  85.5936717  68.7016999  61.1105061  86.4247369  69.1601717  60.9865332
  85.8398604  67.8578018  61.4892673   0.4790855  53.6517314   1.4327081
  -0.0561451  53.6921219   2.2252543   1.3085104  54.0588359   1.6828235
  30.6448555   6.5685904  50.7198334  30.9783673   7.4566996  50.5923080
  31.3872290   6.0016477  50.5108118  24.9931383  30.2742219  21.0566807
  25.7163453  30.6590986  20.5616331  25.4064012  29.6073341  21.6050458
  69.3670546  78.6092072  52.4508095  69.2548596  78.0327116  51.6949701
  68.9314102  79.4231611  52.1979761  68.1732416   1.9983399  28.5770035
  67.9915142   2.6303834  27.8814960  68.4062195   2.5357077  29.3340945
   4.3569654  22.3967385  65.7917595   4.5766550  23.0165076  65.0961637
   3.4161952  22.2500157  65.6934977  13.4078372   3.5158402  24.0000677
  13.3750236   2.8436375  24.6807265  13.6291957   4.3205991  24.4686770
  15.1310014  50.9216010  38.4159517  16.0862970  50.8798133  38.4594941
  14.8428726  50.0313913  38.6177945  54.4769478   9.5735955  42.0420742
  53.9968538   9.8458517  41.2600136  53.9292240   9.8624253  42.7720118
  48.9872932  39.1447616  36.2263370  49.3637848  38.3105469  36.5066385
  48.0434895  39.0313792  36.3386655  33.3577538  22.7402472  47.7734232
  32.4741697  22.8730893  47.4301100  33.3203554  23.0781579  48.6682129
  55.2592754   7.8371650  54.2481852  55.2544451   8.2520711  55.1107740
  56.0441208   8.1808990  53.8214588  57.4462986  18.2537603  61.8802261
  57.4951887  17.4768269  61.3232565  56.5537739  18.5783422  61.7607403
  19.5675862  18.2282007  32.0316076  18.9407158  18.6725402  31.4607930
  20.3942633  18.6871672  31.8826604  38.7984562  17.2100008  46.5037060
  39.3838811  17.0531440  47.2445869  38.7605262  18.1632924  46.4260626
  17.0383834  78.5494395  29.6843863  17.8332901  79.0251773  29.9252653
  17.2029256  77.6497071  29.9665880   7.9810393  10.9822237  54.8829412
   7.5624591  10.1709223  55.1707125   8.4425265  10.7417440  54.0795565
   7.7957404   1.9845058  27.3372078   7.0089322   1.8237239  26.8163300
   8.1629741   1.1140889  27.4913049  15.6143463  22.0087790  69.1849852
  16.2867737  22.6492167  68.9527941  14.8499012  22.2666740  68.6698675
  26.2370682  54.9823141  32.1973038  26.9097733  55.4791880  31.7316699
  25.4097414  55.3518295  31.8887305  40.2425575  22.5464821  41.1909771
  40.9451294  23.1927896  41.2610531  40.1612663  22.3819828  40.2515316
  12.7391028  30.8471394  23.2539654  13.1352472  31.3333678  22.5308585
  12.4231195  30.0372720  22.8533387  25.4268551  71.7338430  54.4051600
  24.4767618  71.7241823  54.5211744  25.6840419  72.6327836  54.6100807
  58.1956863  18.7420917  39.2253470  58.6096478  17.8811109  39.2851877
  58.1904745  19.0684044  40.1251936  43.3823919   5.2056050  59.0390348
  42.4436712   5.1546526  58.8589239  43.7983608   5.0069988  58.2001352
  39.6759248  36.5139699  63.8241243  39.5332980  37.4044347  64.1450071
  39.7328162  35.9800673  64.6165562  37.2061515  33.7726331  24.8377895
  37.8436089  34.4864297  24.8185086  36.3561201  34.2114663  24.8710012
  29.9608755  73.3861040  38.8504100  29.3632984  73.8158988  38.2385206
  30.4368639  74.1054033  39.2654729  28.9011455   0.6073155  67.3795080
  29.3038678   1.4097902  67.0477247  29.6352577   0.0904012  67.7113342
  74.4279420  51.9048511  39.3268323  73.5682320  51.4876448  39.3822312
  75.0502621  51.1801850  39.3885326   2.9909014  69.1458034  48.5118675
   3.2231903  68.2536422  48.2543373   2.8680896  69.6098482  47.6837301
  64.5143556  50.7733904  39.3334675  63.9642226  50.6975686  38.5538292
  64.1062062  51.4698922  39.8477912  75.4863786  58.3580982  48.3108282
  75.9537887  58.4180652  47.4776602  76.1657190  58.4726774  48.9753580
  22.2813678  25.8279896  46.1684799  22.2916198  26.7177629  46.5212297
  22.2297716  25.9469056  45.2200985  48.7994099  18.7591791  51.6067171
  49.0301371  19.6821165  51.7124653  47.8562403  18.7281919  51.7670441
  52.9668617  20.7000327  48.8674545  52.7594471  19.8683119  49.2934275
  53.8767242  20.8727145  49.1094398  44.3994819  17.3081334  63.7196122
  45.2535402  17.7304967  63.8114135  43.8027357  17.8627927  64.2220841
  72.4815725  81.4451235  24.4621730  73.2267105  81.9926539  24.2147660
  72.7168786  80.5686413  24.1578031   6.9629407  49.9615049  64.4758320
   6.1205602  49.5070267  64.4665575   7.5408292  49.4054937  63.9532089
  26.6113448  15.5340970  35.7822371  26.9333220  14.6330655  35.8087730
  25.9973335  15.5906880  36.5143728   6.5030145  51.3238036  26.4025331
   6.9175815  51.0185086  25.5955863   5.9972286  52.0916163  26.1363053
  29.2150783  58.3749138  32.8612947  28.7287616  57.8259980  33.4764552
  30.1264333  58.3031260  33.1450272  85.5750084  16.6160905  31.0253930
  85.7512283  17.2701406  31.7017031  86.4157772  16.4953697  30.5840731
  49.2161179  11.7199910  39.4821763  48.2680511  11.6614747  39.3639684
  49.3941879  12.6593423  39.5284557  39.9451303  23.9942360   4.1991761
  40.6583929  24.1758323   3.5872018  39.5302129  23.2030821   3.8554460
   6.3762855  55.5808555  47.8596020   6.6693020  55.0940191  48.6299038
   7.1727442  55.9834086  47.5134277  63.6107969  36.3236022  38.5372734
  64.1021585  36.8348813  39.1802263  64.1162872  36.4062691  37.7286482
  32.9514503  16.6583622  67.9784298  32.3858762  16.9802952  67.2764921
  33.5771942  16.0837996  67.5373459  33.8031626  12.2381854  59.2464304
  33.7465739  13.0288088  58.7098265  34.4316149  12.4596071  59.9336386
  68.3987331  51.6291714  32.9393673  67.9645443  50.9852791  32.3797989
  68.9423370  51.1064100  33.5288143  16.5377975  15.4152477   0.4294971
  17.3110187  15.9042823   0.7109291  15.8038950  16.0022902   0.6111550
  32.6010728   7.5259525  59.2622900  32.4297261   8.4215593  58.9711523
  32.9947686   7.0981091  58.5019064  24.9670267   7.8847879  28.4910989
  24.1395450   8.2577026  28.7951374  25.1128340   8.2903683  27.6364207
  76.6122246  67.4008898  11.7128499  76.8457270  67.0457081  10.8552106
  76.0498190  68.1502012  11.5167268  15.1839662  50.7868866   0.8723338
  16.1134554  50.6580529   1.0612424  14.9668194  51.6182450   1.2941440
  49.5392179  11.3333690  70.0242805  49.1280460  10.5986512  70.4796457
  50.3787041  10.9876466  69.7210169  61.2672057  71.0578953  31.4092922
  62.1508544  70.8422255  31.7074251  60.9794518  70.2804314  30.9307718
  52.2782898   5.2345997  60.4271126  51.5629911   4.7857457  59.9764347
  52.5563622   5.9163624  59.8154688  70.9805107  39.4932818  33.9908171
  70.2394092  40.0261497  33.7026334  71.7338109  40.0813484  33.9365172
  22.3727560  30.8345103  48.3127594  22.3371339  31.1574793  47.4123955
  21.5790343  31.1787868  48.7222862  72.8495954  73.9516885  62.1538208
  73.4766506  73.7023051  61.4749668  73.1667827  74.7960098  62.4743543
  53.6072302  26.9007826  66.1353350  53.1535387  27.3627877  65.4303932
  53.5015631  27.4671364  66.8997383  27.0754671  66.9294046  62.0523262
  27.5724029  66.1237477  62.1944571  27.6449680  67.4683975  61.5033436
  34.9386072  28.0199122  31.4996743  35.8245063  27.6577973  31.5166569
  34.8518562  28.3997893  30.6253743  73.4208822  16.6027975  60.9047890
  72.6030397  16.7081106  60.4187059  73.7206030  17.4974561  61.0659838
  64.8287773  41.7977381  63.8665438  64.3353987  41.0191822  63.6083555
  64.3300915  42.5290489  63.5022306  26.6260290  16.6931963  17.5339031
  25.8379936  17.2148490  17.3818898  27.3477578  17.3127556  17.4267328
  54.0839195  38.2533264  66.8169785  53.5318899  37.5714040  66.4342594
  53.9350414  38.1809258  67.7597570  65.5538999  46.6825854  14.4836771
  65.8553760  46.7426549  13.5771811  65.9330123  47.4492561  14.9134719
  39.0187383  10.6543481  49.6070242  39.2015386  11.5743399  49.4161558
  39.8224616  10.3296924  50.0130558  66.4247656   0.6511408  27.0580196
  67.1174812   1.3041866  27.1575499  66.8722963  -0.1894208  27.1549916
  52.5511265  17.4076116  46.6105843  51.9474459  16.9989085  45.9902906
  52.0304298  17.5338030  47.4037933  34.4968080  77.4408444  58.2802916
  34.5584917  76.5050780  58.4720421  34.6483802  77.5025760  57.3371840
  83.3011245  73.7057315  42.5615168  82.6033711  73.0596774  42.6709938
  84.0911411  73.1836634  42.4216890  14.2835593   7.4724150  50.1973677
  13.9612865   8.2428282  49.7295713  15.2045536   7.6661110  50.3719616
  48.8096952  32.2342944  67.0399904  48.1766891  32.0634246  67.7373695
  48.5612011  33.0922461  66.6959000  34.8968196  19.6498132  40.6843948
  34.3213367  19.7988594  39.9341726  34.7800922  18.7235081  40.8955002
  33.7724566  10.5563939  62.1287584  32.8238344  10.5134630  62.0083380
  33.9483070   9.9629200  62.8588963  82.2733997  78.1453203  42.5950289
  82.2084903  77.2939273  43.0276394  81.4717578  78.6037233  42.8469610
  65.0489735  17.5545752  67.9018688  65.1736950  18.5025370  67.8566551
  65.0928044  17.2635186  66.9910479  19.2282927   7.0178294  32.2391772
  19.1769743   6.3769126  32.9482770  20.1171446   7.3683047  32.2969675
  19.7333789  41.3562250  22.9869628  18.8579237  41.5689278  22.6635933
  19.6570635  41.4123487  23.9394641  24.6783137  21.0969257  64.0046453
  24.5008779  20.1701117  64.1651535  23.8267541  21.4670396  63.7720633
  38.2165074  16.5978563  49.9660349  38.8086438  16.9155538  49.2843676
  38.7785530  16.4674163  50.7297897  77.2262847  77.7661439  53.8344431
  78.0261587  77.4360671  53.4251976  77.2640359  78.7136885  53.7041903
   0.6898905  32.9323254   2.8756555   0.5433155  33.3305976   2.0176776
   0.7659937  33.6750606   3.4746440  35.8610821  44.8718405   7.4536639
  35.1097727  45.2938366   7.0369083  35.7576180  45.0646496   8.3855188
  14.6974182  81.3482222  54.0602016  14.0218353  80.6775392  53.9601994
  15.2336645  81.0409007  54.7911119  82.8004933  60.3766302   6.8178208
  82.4045182  60.8117834   7.5728543  82.0663166  59.9525324   6.3735707
  35.3092480  18.2408154  54.7920942  34.6467638  18.9177680  54.9302435
  34.9483228  17.6908350  54.0967655  24.6601702  63.7061910   7.8138764
  25.4650713  63.9982251   8.2417567  24.8374964  63.8032369   6.8782647
  34.7711754  17.4979186  57.2718239  35.3046584  17.7448046  56.5163946
  34.7230983  18.2937872  57.8014565  31.3466358  81.1811184  38.2748556
  31.0197162  81.8801519  37.7085471  32.1715116  81.5203871  38.6222839
  27.3361110  79.4814107  14.8548973  28.1821298  79.8014342  15.1680613
  26.7670107  80.2508195  14.8739934  43.5884523  17.0330644  24.2625976
  43.3215523  17.4133325  25.0994945  43.0948400  17.5260758  23.6072206
  50.4816008  15.9720051  32.6454759  50.5969143  16.7840433  32.1519899
  49.9409580  15.4219425  32.0785832  80.4203939  67.4779760  46.4155149
  81.0125302  68.0905174  45.9791660  80.9997629  66.8361365  46.8261290
  33.5845136  80.5478708  70.2215528  34.1072654  80.5649852  71.0232162
  33.8712644  79.7566699  69.7654772  19.8431313   5.5638343  62.9061508
  19.4782972   6.4462143  62.8388166  19.2068660   5.0067240  62.4577904
  39.4597030  14.3666089  39.7371078  39.2016172  14.9623632  40.4404545
  39.2540407  14.8425949  38.9325118  46.5080690  14.9076021  37.6083660
  47.0632601  14.5702767  36.9053674  46.5866280  14.2588758  38.3078051
  67.0916891  28.8484812  55.1308155  67.3911572  28.3133340  55.8657789
  67.1990347  29.7506785  55.4320621   9.3912100  59.6562182  59.5600843
   8.7022781  60.2550494  59.8481894   9.8846316  59.4580971  60.3560209
   4.7249984  79.4619720  37.0674372   4.2485308  78.8373040  37.6142478
   5.4219436  79.7931831  37.6338267  20.4239297   3.8378391  64.8769236
  19.8280680   4.2724106  64.2667389  20.0832844   4.0599099  65.7434559
  65.4516745  36.3676381  27.0182824  64.5862770  36.6435361  27.3202729
  66.0306263  37.0916486  27.2567344  62.8044391  57.4044517  24.7434838
  63.6924196  57.2941355  25.0834115  62.8828717  58.0990557  24.0895684
  58.7241220   7.2343862  56.7182589  58.0890894   7.4371040  57.4051905
  58.4133768   6.4118457  56.3399792  45.9993076  30.2983427  53.7117577
  46.7624569  29.7445321  53.8764811  46.1191893  30.6107688  52.8149605
  69.8525238  24.3237305  69.3543243  69.0853310  24.8848701  69.4673204
  70.2642679  24.6400332  68.5501814  34.6867991  50.1271037  23.7318357
  34.6225232  49.5614151  24.5013173  34.9922568  50.9662942  24.0763410
  56.3824081   2.6093170  27.3525882  56.4545107   2.6493543  26.3989472
  55.6928539   3.2375482  27.5672317  49.9290132  68.6347603  35.5679989
  49.1852855  69.1727852  35.2966571  49.6229124  67.7336680  35.4651952
   0.9903551  27.3832774  56.8684959   0.5157876  28.0780315  56.4120626
   0.3304315  26.9665790  57.4226522  58.5641146   9.2930460  36.2379813
  58.5239267  10.0057435  36.8756962  57.6541519   9.0161437  36.1305952
  82.9375744  46.1410284  30.6873035  83.6477470  45.8467674  31.2576580
  82.1405029  45.8344126  31.1196113  28.1395102  19.1936874  57.8215551
  27.6845527  20.0279784  57.7066422  27.4402237  18.5403824  57.8420877
  19.3734324  46.7031574  61.1646128  18.5817921  46.5552092  61.6819572
  20.0492787  46.1916161  61.6093493  65.9128189  56.6482782  60.2652121
  65.0678158  56.8177795  60.6817055  66.2882376  57.5171947  60.1228046
  36.7440295  27.3828769  38.9517474  36.5937853  26.8066621  39.7011709
  36.4396882  28.2416773  39.2451262  25.6940413  16.3801372  33.2588291
  26.2255621  16.3195431  34.0525842  25.8552527  15.5561626  32.7991462
  44.7470903  12.2273242  55.2244329  44.3443298  11.6715217  55.8915901
  44.6644592  11.7259645  54.4132376  61.0485506  15.3293514   9.7206300
  61.6372108  15.8250594   9.1514367  60.2250195  15.2867556   9.2346120
  71.7782450  29.5197535  26.0852909  71.0573387  30.1449585  26.1603999
  71.3581371  28.6998510  25.8254910  75.4831457  35.5750990  63.5223007
  75.0258446  35.3204131  64.3237019  76.2647581  36.0351038  63.8284254
  36.6136837  26.5546131  16.2965500  35.9702921  26.5673113  15.5879474
  37.2202420  27.2633505  16.0820508  47.0577192  20.8135962  53.9721823
  46.8139172  19.9265826  53.7076139  46.4286089  21.3787270  53.5237694
  66.2076640  78.7121538   8.9373525  66.3031984  78.2805661   9.7863706
  65.6957603  79.4989327   9.1248735  17.0448805   3.1013410  14.6976312
  17.8512455   2.8745191  14.2344220  16.3437725   2.8081386  14.1156419
   0.8174158  37.9502559  30.1552367   1.4324117  37.2326851  30.3072238
   0.0577474  37.7331328  30.6956077  13.1967712  53.3977238   4.5379956
  12.7596355  54.1189782   4.9906953  12.7588964  52.6108197   4.8624642
  38.0678725  29.7237110  40.6325626  37.2350478  29.8193216  41.0946178
  38.6906981  29.4661999  41.3122749  81.5864468  47.6481247  54.8190737
  81.3255405  48.5595083  54.6866226  82.3136520  47.6949501  55.4397249
  82.8465176  44.9132005   6.1613019  82.3046112  44.1340957   6.2860663
  82.3925591  45.6011531   6.6480001  68.1220579   8.4214038  66.9500256
  68.0809259   8.0083138  67.8125191  68.7871790   7.9216892  66.4765978
  80.7873630  81.8787765  43.4540796  81.6323876  81.6126165  43.0916977
  80.3332972  81.0552861  43.6327410  74.0920019  29.9217582  27.5849342
  73.8771629  30.7545376  28.0051184  73.3084440  29.6976209  27.0829058
   9.3398529  13.6109996  54.4987392   8.6388242  13.0281460  54.7904110
   9.8393571  13.8009608  55.2928686  78.2232523  15.3222823  62.5616455
  77.4161005  15.2975082  63.0755758  78.7215805  16.0501480  62.9332876
  83.7607956  14.2035806  59.2841101  83.8635826  15.1053774  58.9800835
  82.9668331  14.2200089  59.8185062  78.0365229  53.4988308  38.0420756
  78.4274101  53.5501242  38.9143181  77.5473976  54.3164921  37.9503441
  77.9608250  49.7958946  57.9002428  77.5451708  49.0010500  58.2344389
  78.8982534  49.6451473  58.0216217  74.0652561  21.0480380  58.6281919
  74.7464657  20.3758812  58.6084127  74.1567898  21.4565516  59.4889879
  76.3327408  77.7156309   0.6280025  76.5931416  77.0681671  -0.0271384
  76.4581824  77.2715834   1.4666446  45.2674198  31.8738008  48.4689999
  45.6675816  31.0095239  48.3734465  45.3676605  32.2806215  47.6083708
  45.4856253  10.0335085  31.3466334  46.3578176  10.0095105  31.7402554
  44.9816322  10.6145525  31.9163775  50.4482841  15.6546974  58.9194345
  50.2629566  14.7333133  58.7379503  50.3455019  16.0908043  58.0735731
  34.7243118  71.1166286  68.1062555  35.0083351  72.0178597  68.2590437
  33.8095426  71.1963617  67.8359365  21.8602991  80.4456294  57.6266813
  21.4902401  79.5645109  57.6807022  22.8066682  80.3062440  57.5921869
  18.4971761  74.0305143  47.0392179  18.2738781  73.1218039  47.2407532
  19.2589569  74.2172961  47.5878859  78.8925982  32.6159167  54.5434284
  78.5110664  33.2792711  55.1184320  78.1642580  32.3287725  53.9927053
  65.5487490  20.3102279  56.2572193  65.3749561  21.1807227  56.6153669
  65.1022291  20.3060532  55.4105568  50.7539177  28.5623717  37.1818113
  51.5692711  28.0654550  37.2489047  50.5418396  28.5497403  36.2484884
  32.2082519  81.8594050  29.4575953  32.6480245  81.1089447  29.8571444
  31.4578294  82.0284433  30.0272679  45.9422159  32.8556013  55.6082726
  46.5744400  33.4522533  56.0089350  46.4528370  32.3604584  54.9676991
  72.7280235  18.9811254  11.7227888  73.6410284  19.0119541  11.4369559
  72.2269440  18.8804233  10.9134626  50.6976461   8.2968080  58.3424568
  51.4942837   7.8285968  58.0926991  50.0065851   7.8890741  57.8205156
  58.6080361  34.9405590  11.9743283  58.0832243  35.0537775  12.7667840
  58.7893701  35.8323888  11.6776975  51.4681435  18.4163511  31.5522814
  51.7239094  18.2723236  30.6411982  50.7409239  19.0366912  31.5016985
  81.9198036  28.7458086  44.9562073  81.4664841  28.8260770  45.7954264
  82.8363991  28.6024499  45.1918507  82.5661373  46.9814644   8.2590516
  83.4209872  47.3009006   8.5478766  81.9755364  47.7226249   8.3936055
  65.7435608  45.5193043  26.3135791  65.7746458  46.4756918  26.2892938
  65.6867695  45.3050804  27.2447681  51.3656736  60.3138188   5.6724580
  51.6019988  59.9877242   6.5408118  50.4285288  60.1344708   5.5961354
  47.9347610  20.9441376  41.5712166  47.1680593  20.6114149  41.1046362
  48.1098032  20.2862406  42.2440958   1.4052559  81.5051392   3.4685166
   2.1622873  82.0670918   3.3031543   0.8847786  81.5625409   2.6672395
  65.1971007  79.2191724   4.3089135  64.4559074  79.7300247   3.9834960
  65.7927394  79.1588477   3.5620482  18.0638958  33.6173079  12.1418603
  17.2435642  33.4242091  12.5957330  18.3886076  32.7621803  11.8598111
  72.4131584  31.3382149  20.7642126  72.7478075  30.9918618  21.5914273
  71.5822744  30.8817124  20.6320596  59.8033905  80.8632088  64.9266815
  60.7447910  81.0361767  64.9353886  59.4376326  81.5561104  64.3768311
  11.1928583  78.8250974   5.8031400  10.3909756  78.8344625   6.3257535
  11.2548090  77.9278187   5.4755910   6.4950204  35.6814575  49.7399807
   6.7857385  36.1178112  50.5408001   6.7839361  36.2595034  49.0338469
  65.7045841  57.4507141  55.7849741  66.3914013  57.1673632  55.1814604
  65.4206038  56.6463852  56.2193060  68.1742859  69.5193338  24.9989152
  68.2248831  68.5723734  24.8687649  69.0800619  69.7889376  25.1509595
  78.2089520  74.2111731  35.5023313  77.2696114  74.3926620  35.5328441
  78.2871723  73.4493256  34.9281383   2.3767400  44.1092873  19.6732819
   1.7621637  44.7490692  20.0327492   3.1400419  44.6274853  19.4182062
  68.0709076  38.7710667  52.5295305  67.7165699  38.7886262  53.4185553
  67.9843807  37.8581142  52.2551966  63.0177021  37.1070838  46.6737223
  62.3549604  37.7426243  46.9440794  63.3059025  37.4127555  45.8136415
  85.9186077  57.0365047  52.3836279  86.6823483  56.7122078  52.8608799
  85.2190018  57.0567846  53.0365992  75.1261997  49.4045544  24.4130254
  74.2598915  49.3940926  24.8200011  75.2367783  48.5207844  24.0623665
  58.2162571  50.4579830  29.8925090  58.0512333  49.8718309  30.6310415
  57.5988913  50.1737022  29.2185092   1.3861204  46.8847275  55.4194260
   0.4682851  47.1545553  55.4512310   1.8435789  47.6357269  55.0413227
  67.8623390  28.8039064  46.8680477  67.5883818  29.3609571  47.5966597
  67.7451897  29.3507862  46.0912418  82.4711990  55.5073357  47.1727324
  83.3782101  55.8082581  47.2276878  82.0290184  56.1742020  46.6473818
  61.8033361  71.1056614   9.5305765  62.2135019  70.3386402   9.1309822
  61.8086290  70.9183645  10.4692590  75.7736540  35.8257198  36.9325161
  75.6207180  34.9534440  37.2958064  75.1576376  35.8927011  36.2029481
  10.7507062  57.1792221  45.8934069  10.0305486  56.7944527  46.3929653
  10.3407121  57.4990606  45.0897694  85.7003117  48.0192566  55.0137043
  85.3021812  48.7313223  54.5130205  85.4125786  48.1695700  55.9141731
  84.5491409  26.0315657  68.8745117  83.8066673  26.5009952  68.4942579
  85.1082993  25.8216596  68.1265020  61.7352152  65.7123470  55.2147627
  61.4594412  65.1433229  55.9333658  62.6916456  65.6833172  55.2397776
  83.4400654  43.5842562  55.6294823  83.4801960  43.6785793  56.5811777
  82.5187111  43.7276363  55.4132271  81.8545818  51.1231470  63.7409306
  81.2946796  51.7448664  64.2059088  82.5982761  50.9853745  64.3275976
  23.9252115  67.0646255   1.6491302  23.9892508  67.9328697   1.2512763
  24.6830107  67.0115344   2.2314961   8.5260606  42.2357702  51.3252449
   9.4189954  41.9974089  51.0760593   8.5273004  42.2021818  52.2818518
  57.3312902  59.7971916  37.1415138  56.7660236  59.2288303  37.6646519
  57.0912409  60.6846380  37.4080563  58.6162758  60.9250259  62.6118851
  58.0754614  60.3069401  62.1202374  59.2181110  60.3725719  63.1107044
  12.1220327   4.5129336  36.8517041  12.9002786   4.3636359  36.3147879
  11.6564728   5.2212180  36.4069319  86.2324810  78.7533168  16.1981710
  86.1078024  79.5910839  15.7522710  87.1777392  78.6052731  16.1698659
  65.2556181  58.1924343  51.2012005  65.5100203  59.1148520  51.1755037
  66.0790825  57.7202129  51.3242674  75.0365639  50.0783014  44.5045900
  75.0597048  49.6565723  45.3635645  74.1045856  50.1948786  44.3200302
  72.3728609  55.6778049  52.2440243  72.9134464  56.2233496  51.6727257
  72.3188496  56.1693478  53.0635929  83.9351463  58.4360933  56.3943481
  83.9631271  57.5204468  56.1167908  84.6236801  58.5071135  57.0554876
  62.3428106  46.3418150  54.0768433  61.7554426  46.6054583  54.7851706
  62.6060724  45.4498720  54.3034744  62.0712376  61.1666679  49.6982574
  62.0736837  62.0036745  49.2338753  62.8107500  60.6849909  49.3276691
  84.2267799  37.5619292  18.6103249  84.2323685  37.3130631  19.5345902
  84.0779018  36.7405033  18.1420040  55.8386421  52.8606701  43.4383440
  56.1316013  51.9494152  43.4437418  55.8425093  53.1080246  42.5136614
  75.6785107  32.0893073  21.7631721  74.8699379  31.5784788  21.8018126
  76.2781763  31.6336036  22.3539066   5.7252717  40.9297132  63.1708813
   4.8303915  41.0665274  62.8599072   5.8735109  39.9896789  63.0679703
  62.2251129  10.0702357  37.6570773  62.7225065  10.0195837  36.8408251
  62.8846741  10.2418768  38.3292055  58.1478167  55.6796789  38.1757259
  57.3666191  55.2607584  38.5369372  58.0146217  55.6582212  37.2280812
  24.4276071  64.8288107  52.8825331  23.5241914  64.7044754  52.5916719
  24.3693567  65.4958820  53.5665321  81.2109852  27.7555323  48.7641621
  80.3852463  28.0204082  49.1694164  81.8797302  28.2503176  49.2376661
   5.2606035  31.4579797  23.1140184   5.5654645  30.6928325  22.6263261
   5.9651113  32.0989585  23.0188584  67.8042555  51.5325308  66.4375496
  68.4723711  51.5661764  67.1221781  68.2897234  51.3250256  65.6391191
  14.0667940  39.2540301  12.5808747  14.5209432  39.9958360  12.1812470
  14.6351314  38.5035966  12.4074491  79.3865824  55.7304096  47.3493910
  79.3418550  56.5298939  46.8249369  80.1184750  55.8775854  47.9484797
  61.0727596  54.8690701  48.1209850  61.2252522  55.7905865  48.3302212
  60.4222727  54.8873091  47.4190140  76.6448164  56.3909054  61.0869694
  76.9217396  56.7781639  60.2565670  75.9908676  55.7369900  60.8400202
  77.6490164  78.0460624   5.5194409  78.2996798  78.1390909   4.8235829
  78.0754185  77.4924401   6.1735948  57.3510885  34.5132017  52.1920061
  57.4282789  35.1947141  51.5243101  57.5314999  34.9643588  53.0167150
  28.9877820  43.6121559  25.1334238  28.1652761  44.0966415  25.0627446
  28.7235952  42.7270746  25.3845525  29.2990112  61.9578969  30.8286405
  29.3498897  61.5398394  29.9690652  30.1207113  62.4423384  30.9083796
  70.7723713  39.3116641  51.7293501  71.0631132  39.8315263  52.4786425
  69.8170042  39.3206048  51.7878819   6.7130971  55.8056831  44.4679260
   6.6744829  56.5794563  45.0300789   7.0615125  56.1300850  43.6375093
  66.8423964  32.7395170  13.9086469  67.1734930  32.6273744  13.0175622
  66.0537173  32.1980588  13.9410241  64.4544315  49.9530554  33.2840633
  64.0074587  49.1184616  33.4251499  64.6730518  49.9531364  32.3521614
  15.1492954   9.7843398  41.4095497  15.5603863  10.5552996  41.8005228
  15.7028557   9.0529860  41.6832876  79.7455263  16.1545504  25.3824234
  80.5357838  16.2869490  24.8587918  79.7447873  16.8830431  26.0033345
  12.0479608  47.5952530  66.0842848  12.7986551  47.1816969  66.5105009
  11.2921739  47.3025417  66.5935469  16.8830228  67.4029541  12.0883667
  17.2291398  66.9121981  12.8337479  15.9415269  67.2310400  12.1047843
  12.4362112  67.8811073  50.5455065  11.8388963  67.2766829  50.9860992
  13.2323957  67.8606224  51.0764503  45.9458876  62.5272942  35.3429079
  46.5821171  63.1092739  35.7585359  45.4938984  62.1055651  36.0737157
  76.4861774  56.1671400  41.0048628  77.1720982  56.8333054  40.9604740
  76.8219900  55.5184317  41.6234350  51.1675453  70.5065489  50.0730133
  50.6362867  70.6426573  49.2884970  50.5632496  70.6553555  50.8002806
  15.1604772  27.5597191  37.2224784  14.8609758  28.1090689  37.9468703
  16.1085916  27.6893020  37.1997261  71.8996620  80.4075146  44.6486139
  72.1210337  80.4942989  43.7214184  71.3374758  79.6338654  44.6892405
  67.4694109  56.8207264  51.5390396  67.0022631  56.2746096  50.9067774
  68.3585501  56.8838310  51.1902046   8.9667058  62.9298639  54.6167517
   9.1467691  61.9965029  54.5043135   8.0216051  63.0087757  54.4872093
   2.5106359  39.3821168  41.4600039   3.0061174  40.1170683  41.0986519
   2.5578237  39.5045495  42.4081659   2.5608945  73.7193012  38.9443731
   2.0206476  74.3240881  38.4358501   3.3236719  73.5553360  38.3898354
   3.7503076  36.8466902  36.1209679   3.2487703  36.6346359  35.3337383
   3.1031728  37.2066021  36.7275238  60.0874567  52.3106050  55.0720263
  59.5202494  52.8359890  54.5076847  60.0155544  52.7218437  55.9333897
  52.9058790  78.0171919  44.8175335  53.6691856  78.5558891  45.0258636
  53.0941820  77.6605082  43.9494610  69.2449189   3.0840434  31.0539627
  68.4044171   2.8513087  31.4484549  69.7818423   3.3776511  31.7899895
   0.0650383  23.1814421  48.2050467   0.8394409  23.4474505  47.7092934
   0.3140426  23.3023776  49.1213465  45.7172800   3.4793032  44.5641041
  46.2930609   3.2743300  43.8274240  44.8611570   3.1424178  44.2999172
  39.4877077  75.3120354   2.6749833  38.8602663  75.6707386   2.0473846
  38.9550329  74.7883419   3.2735093  84.3278980  55.0736332  25.0571418
  83.4521198  54.9688721  25.4290009  84.2841625  55.8960199  24.5692897
  10.8500887   6.8079508  26.1384201  10.9500719   5.9280623  26.5018010
  10.0548197   7.1476210  26.5487933   8.5897947  26.5391898  53.8825893
   8.3305002  26.6343665  52.9661083   8.4109426  27.3950124  54.2722225
   1.9769311  69.4609833  65.6482553   1.0516763  69.2174387  65.6769037
   2.2987771  69.0833235  64.8297071  57.6295519  73.1390905  49.4383383
  57.2836733  73.7465572  48.7844372  58.5740805  73.2942486  49.4334745
  17.4489332  38.9735842  32.5317192  18.0844045  38.3202362  32.2392368
  17.9753137  39.7485733  32.7280450  64.3123722  54.2410564  51.4991760
  63.3670235  54.2476177  51.3491488  64.6852350  54.5989084  50.6934786
  80.2883578  16.9290961  35.5031610  79.7479153  17.7182902  35.4666114
  80.7807684  16.9377936  34.6823764  49.2502905  14.3920172  30.8188295
  48.6127020  14.6913374  30.1706648  49.1011549  13.4487284  30.8836317
   5.0615144  66.6890574  41.4483070   4.3808771  67.1166801  40.9285927
   5.8812452  66.9406843  41.0229254  15.2610708  62.1854210  65.4071522
  15.8561445  62.6728392  64.8374605  14.4096113  62.6030874  65.2775478
   2.8853631  43.9627981  25.3727460   2.9115701  43.1385040  25.8586359
   2.2128892  43.8261652  24.7054005  72.5927496  72.8218555  36.7939711
  73.0054140  71.9839621  37.0034337  72.2295094  73.1246233  37.6262116
  69.1869116  54.6712732  68.0220079  70.0889206  54.9443817  67.8545952
  69.2709351  53.8847780  68.5610819  59.7054005  64.6856785  65.7539558
  59.0904665  65.2929783  65.3425264  59.8341990  65.0357914  66.6354704
  76.4004707  50.9873724  47.4952698  75.5043840  50.6709957  47.3805285
  76.9020510  50.2064514  47.7293825   2.8764081  55.6560183  27.3225832
   2.2227693  55.8350086  27.9985595   2.5064111  56.0350466  26.5252924
  41.1936356  39.1173808  18.2368310  40.6026198  39.8278491  18.4861596
  41.6641403  39.4537513  17.4741300  85.2428246  50.3928471  58.0905199
  85.4286766  51.3112354  58.2860994  85.8001900  49.9018478  58.6942625
   5.8487821  27.7420378  64.7718573   5.2790666  27.6351070  64.0101337
   6.7264772  27.8398442  64.4026470  66.7425013  69.8783731  36.8572712
  65.9955978  70.4751396  36.9045353  66.8794584  69.5940351  37.7609444
  67.0847273  73.4624767   7.8446513  66.9292974  72.5190067   7.8006250
  66.5577126  73.8255167   7.1328288  63.6125565  67.9372454  18.9190936
  63.6000252  68.7246084  18.3749115  62.6891470  67.7389479  19.0747344
  47.4797630  64.2772007  33.5819006  47.4510193  63.5860777  34.2435336
  46.7421198  64.0852833  33.0028677   0.4299283  80.0922585  33.6245346
   1.3570428  79.8859119  33.7433195   0.4165578  81.0283184  33.4249067
  61.1605215  57.3408651  52.0889807  60.4794884  57.8942156  52.4713802
  61.7285633  57.1163607  52.8259754  78.0195045  60.3879309  48.2631636
  77.4603176  60.6619310  47.5362110  78.9103222  60.5603552  47.9582930
  69.2991590  57.6580143  45.0944471  69.6323919  58.5493803  45.1976776
  68.4008789  57.7725554  44.7842741  50.3622770  72.4505663  52.6790428
  50.4387903  72.2414398  53.6099815  49.7072840  71.8357801  52.3484993
  48.2531071  73.8328791  25.7417822  48.3826923  73.1512213  25.0824022
  48.6843872  73.4928465  26.5257525  80.6439972  46.6197634  39.8879838
  80.1729298  46.9356060  40.6590700  81.4240646  46.1927795  40.2421141
  75.1854849  68.6173868  52.5925493  75.9327698  68.1068611  52.2808361
  74.4834661  68.4168291  51.9735336  82.4637699  50.4419422  20.6363606
  83.2239628  49.8708248  20.5260849  82.7884102  51.3167191  20.4228091
   6.5748334  39.1235280  57.7378988   6.1396432  38.3184624  57.4573421
   6.6459299  39.0385389  58.6886644  31.1718298  81.3213137  10.6975873
  31.2452341  82.2499017  10.4772122  30.6431795  80.9487370   9.9919351
  80.9872341  37.4404931  59.8342371  81.8497562  37.5716853  59.4404364
  80.3816986  37.4489331  59.0929651  64.3802166  72.7541256  56.1162806
  64.0138054  71.9432497  55.7634974  64.1629934  72.7295828  57.0481825
  46.0841776  24.6298234   1.0523923  45.6251599  23.7936179   0.9729846
  45.7545592  25.0074928   1.8678363  79.8013020   1.8275298  21.8168569
  80.3994084   2.3720301  22.3287272  80.3353310   1.0848177  21.5350246
   2.2638441  77.2204304  70.3388405   1.8467451  77.9193401  70.8426189
   1.6284395  77.0053959  69.6560097  60.5803442  66.6844654  17.0378244
  60.0920391  66.0580730  17.5720751  60.3131390  67.5416756  17.3695242
  76.3709021  39.9971104  16.2511528  76.9024229  40.7015705  15.8804023
  75.9509134  39.5898366  15.4935479  44.8088385  20.9423654   3.8610967
  44.5933701  20.7894914   4.7811158  44.1707207  20.4195611   3.3755906
  26.0151958  26.7892429  62.5034933  26.7195749  27.0381662  61.9050644
  26.4144182  26.8279525  63.3726041   8.8243175   5.7689322  37.0060372
   9.6015478   6.0748137  36.5385127   8.5281730   5.0081290  36.5063262
  65.8627605  43.8570309  17.1758926  65.7999516  43.4571648  18.0432999
  66.6491413  43.4706879  16.7904305  46.8768120  78.8257027  28.5477710
  46.3505745  78.5352373  29.2927122  46.2888479  78.7522221  27.7960181
  70.8764982  68.2089138  66.1991405  70.4232740  69.0488148  66.1258221
  70.4342556  67.7602148  66.9197845  58.8527155  56.3634253  50.6720209
  58.2858562  57.0858860  50.4019022  59.6220350  56.7905712  51.0487509
  57.2154522  73.3225393  34.1953588  56.4364052  73.6939096  33.7813449
  57.4179363  72.5468683  33.6723208  85.6808472  61.6309690  27.2469497
  85.4271412  61.1887407  28.0570722  85.4949951  62.5555992  27.4104881
  23.3685995  48.2758951  38.4060478  24.0581918  48.2189560  39.0674424
  22.5616193  48.0856943  38.8844252  72.7243662   3.2405890  36.6116071
  72.8740216   3.9680899  37.2154093  71.9089365   3.4651698  36.1634278
  79.1661644  47.7839661  41.6607523  78.7896538  48.6522341  41.8042278
  78.5182905  47.1792269  42.0223856  65.8348989  69.4642210  28.1925750
  65.7887793  70.0747013  27.4567628  65.8004141  68.5976934  27.7873826
   6.0776353  64.0847445  44.5275688   6.8171812  63.7620211  45.0425005
   6.3939596  64.0785456  43.6241674   5.5779100  72.7929878  30.0121021
   5.8845067  72.8649616  30.9160113   5.8556867  71.9202995  29.7337413
  72.1975803  65.6253099  51.0078907  71.2828636  65.7659149  51.2523365
  72.2628927  65.9687996  50.1168346  63.0221224  76.5837669  51.8050051
  63.4231472  76.5798903  50.9358692  62.0810843  76.6234207  51.6344070
  82.6210165  12.5021018  43.7325668  82.0980883  11.8686522  44.2240047
  82.6990986  13.2545603  44.3190336  64.8101187  57.6884747  14.9430847
  64.9273062  57.3340321  15.8244860  65.1343822  56.9996786  14.3628728
  81.0499955  25.8277167  56.9250584  80.3175784  25.2151049  56.8579960
  81.3301516  25.9660567  56.0202885  72.3748684  49.0247488  45.6967354
  72.0520067  48.6433077  44.8803473  72.5292492  48.2723999  46.2680244
  56.4920330  69.2264748  51.9688654  55.5438852  69.3059969  52.0733881
  56.6029406  68.5709047  51.2802744  59.4637108  75.5574274  32.9947495
  58.8843012  74.8515940  33.2816505  59.7801590  75.9526587  33.8070822
  78.5520506  63.3975983  43.4842253  78.9852190  63.1108236  44.2881870
  77.6859760  63.6887121  43.7695360  50.0796461  75.4444838  41.5535831
  50.0097847  76.3650322  41.8064594  49.3165398  75.2905178  40.9966373
  15.5496240  58.9930677  12.2471690  16.2724519  59.1660070  12.8503585
  14.8232484  59.5151329  12.5878549  80.4413605  48.7119532  46.7577744
  81.3515186  48.7767076  46.4685345  80.0906181  49.5953465  46.6445017
  72.1984339  53.2771063  50.9792471  72.3075485  54.0623188  51.5156841
  73.0466127  52.8358555  51.0252237  84.5992756  75.2294064  49.4816113
  84.7988987  75.8596611  50.1738310  85.3666115  74.6581125  49.4492817
  69.9653435  56.7297220  38.7879848  70.4015589  55.9164667  38.5338926
  69.0691042  56.6313171  38.4665656   6.8288064  69.6778297  51.4886904
   7.2942186  69.9293184  50.6909561   5.9059549  69.8311663  51.2860155
   9.1652513  53.4787083  51.9275141   8.8897062  53.7510681  52.8028011
  10.0574422  53.1534624  52.0476580  56.5953255  61.3079405  42.5858116
  56.4183998  61.8887901  41.8458509  57.5304270  61.1143160  42.5200605
  51.3288641  80.1783180  23.8965678  51.3715363  79.2344761  24.0500832
  50.3982019  80.3906536  23.9673400  58.3290529  49.7616053  34.4539881
  59.0100288  49.5905542  33.8034129  57.5157595  49.4955540  34.0250373
  52.6851559  74.4313908  40.7998610  52.7315855  74.2272425  41.7338800
  51.7835331  74.7220993  40.6627655  37.1857858  66.7631721  15.7667959
  36.6216755  66.8642998  16.5334666  38.0275822  67.1286106  16.0389447
  17.4773527  61.1230421  17.4842441  17.0658708  60.2690220  17.3517013
  17.9898954  61.2679720  16.6889250  78.2958460  56.7302799  58.1452560
  77.6468945  57.2950554  57.7255869  79.0067148  56.6671610  57.5073576
  80.9570217  73.9830494  69.4840479  81.4198303  73.7722445  68.6731195
  81.5644073  73.7299347  70.1792049   8.4660364  59.5872307  50.7122421
   8.3630205  58.8383389  51.2994242   9.0898824  59.2886877  50.0504875
  50.9971548  43.3030670   6.0716661  50.4176737  42.6303737   5.7140143
  51.5596987  43.5496108   5.3375085   1.9087816  81.4090157  30.0790071
   1.8975187  82.3595715  30.1910305   2.5180936  81.0962486  30.7476950
  73.8528872  62.0005035  29.8635459  73.1618786  62.4767733  30.3238773
  74.5269012  61.8552971  30.5275106  19.0517080  80.9402275  56.0210180
  19.0334702  81.8734741  56.2330484  19.3548238  80.5178833  56.8247461
  56.3230635  13.5182254   2.0101531  56.5059305  14.2277114   1.3941796
  57.0779062  12.9345481   1.9341500  85.2260876  31.3692927  43.6723232
  85.7387829  30.7464671  43.1570911  85.7437992  31.5073967  44.4655037
  60.7280159  63.0982828  33.2625294  61.1747885  63.9371347  33.3763480
  61.4277363  62.4814653  33.0476713  83.2369614  45.3887892  40.5231619
  83.5455513  45.5529737  41.4142513  83.5909176  44.5273733  40.3020191
  63.0719900  49.6028090  44.3840885  63.7055540  48.9127350  44.5806265
  62.2322130  49.1472483  44.3251705  81.7178179  31.0822885  10.1817639
  81.1307169  30.3315322  10.0928243  82.5783087  30.7441156   9.9339231
  23.2006120   6.3051053  70.8656709  24.0508222   6.7404052  70.8033152
  22.6462555   6.7715665  70.2401064  49.9942471  12.2803418  19.4550832
  50.5466915  11.6300742  19.0212758  50.3488995  12.3425405  20.3419812
  39.7627783  79.3417263  51.0141659  40.4597425  79.4989586  51.6511536
  39.7057509  78.3882475  50.9520054  57.8519583  65.0090933  42.8144360
  56.9273615  65.2506351  42.7596140  57.9560471  64.3114996  42.1673203
  60.0974703  66.6650152  39.3169999  60.9448957  66.6726971  39.7620153
  60.3118610  66.7825031  38.3915448   0.6459260  58.4560204  37.0491862
   0.6174493  59.2789650  37.5372267   0.4387689  57.7847099  37.6993132
  71.0702944  48.0933571  51.8388176  71.5546560  47.6334620  51.1531639
  71.4950752  48.9490032  51.8993425  68.9753437  44.5662308  44.0642691
  69.8521328  44.1822195  44.0614367  69.1099072  45.4725313  43.7872505
  73.8124228  62.1905088  48.1790495  73.9778423  61.2487745  48.1342649
  73.8678217  62.4868870  47.2705746  77.3806095  71.1235571  36.5232754
  78.2639551  71.4080000  36.2887073  77.1994829  71.5645409  37.3533082
   9.2442346  74.4017839  39.0451050   8.8555646  75.2404737  38.7965727
   8.4948659  73.8382101  39.2376208  65.9132100   5.4747809  45.1755762
  65.2252412   4.8603285  44.9199009  65.9219909   6.1288489  44.4767523
  77.1057224  71.1300659  47.1112347  77.5752735  70.3603411  47.4325991
  76.7500401  71.5401030  47.8996468  62.1148300  56.5220261  45.3326988
  63.0637169  56.4936876  45.4553413  61.7763805  56.8628836  46.1606503
   1.8099523  56.5674257  62.2220516   1.8519521  56.8459272  61.3072300
   1.2734628  57.2340775  62.6509809  63.3304071  58.9396477  44.4799900
  63.2161522  57.9893780  44.4929409  64.1261148  59.0782309  43.9662981
  60.8310366  66.1557961  31.9639206  60.0219584  65.6444311  31.9525242
  60.9937763  66.3259602  32.8917074  73.1733894  66.7530966  48.6433983
  74.0030766  66.2819624  48.5666895  73.4147406  67.6765347  48.5709333
  69.5006084  62.8704357  23.8025641  70.2333260  62.3648405  23.4508061
  69.4901085  62.6591778  24.7361016   4.1799951  46.9475746  22.5493169
   4.6562505  47.7342510  22.8149462   4.3129755  46.3321877  23.2703209
  21.5322328  65.5184174  48.7113285  21.2531114  65.7917881  49.5851660
  21.4541841  64.5644665  48.7224674  60.2116060  69.4973040  47.9349422
  60.7622433  69.3785191  48.7088442  59.7674608  70.3322220  48.0828714
  57.8497362  78.5615349  59.2819595  58.1043339  78.2711411  58.4061241
  58.6199188  79.0222120  59.6148634  53.7942266  74.8070812  25.9956765
  53.2995081  75.0291824  25.2069092  53.2276106  75.0780153  26.7180133
  74.1427040  74.2112875  46.0292816  73.9777517  74.7143030  45.2317858
  75.0850487  74.2952156  46.1747789  61.7927980  73.7979794  31.8429637
  61.4601851  73.0328703  31.3736987  61.8356800  73.5181665  32.7573466
  34.0196253  13.0520953  49.6738863  33.7817980  13.2109393  48.7604094
  33.8223577  13.8759650  50.1194811  61.2925529  63.7681341  57.0934725
  62.1878338  64.0676737  57.2515297  61.1086559  63.1701374  57.8179121
  62.1533346  51.0954666  11.5374935  61.4046526  50.7419825  12.0178592
  61.7640162  51.5741968  10.8057284  41.1266756  76.1015754   4.9951950
  40.6434726  75.6901019   4.2786503  42.0446396  75.9035342   4.8098430
  78.3134365  53.1397009  35.2732396  78.7401295  53.9948893  35.2201438
  78.1328249  53.0196190  36.2055445  14.4585538  45.7034349  33.9297342
  14.5445276  46.6098642  34.2250752  14.7839761  45.7129383  33.0295968
  77.7242231  79.7664785  56.6516733  77.8845739  80.0997734  55.7688141
  78.2190657  78.9481211  56.6922903  71.3634993  22.6346557  10.2203973
  71.2148501  22.6243989  11.1659272  72.2199370  23.0494754  10.1170667
  53.7335205  60.8392382  40.8700323  53.5231686  60.7432890  39.9411726
  54.5267773  61.3748074  40.8818865  38.1828714   5.8983553  56.6608238
  38.0174280   5.4495181  57.4899197  38.2981039   6.8168105  56.9045162
  60.1323414  54.3047619  39.9179411  59.8005104  53.9107609  40.7247162
  59.3608332  54.3892527  39.3577051  42.7078463  26.8605106   2.4914105
  42.8154970  26.0130613   2.9232343  43.3170296  26.8324773   1.7536195
  81.7689133  73.9401007   8.1688017  80.8826256  74.2346430   8.3785051
  82.3150730  74.7161961   8.2937413  76.6604614  61.6966820  46.1793470
  75.9316206  62.0484781  45.6682014  76.9644642  62.4372578  46.7040920
  20.3780866  38.9392352  69.8716784  21.0968328  39.4658065  69.5218945
  19.9438787  38.5819626  69.0970469  76.9266939  66.0372210  69.8788023
  76.3893366  66.0829639  69.0879869  76.2951136  66.0406780  70.5980587
  70.6140900  38.4167790  62.6163530  71.5664482  38.5087824  62.5883102
  70.3779125  38.6437726  63.5157537  79.3332005  27.2269845  34.7639489
  79.0044403  26.3346815  34.8732281  80.2621174  27.1168065  34.5609665
  62.8342772  51.8037510  54.8364639  61.9283724  51.6623974  54.5615292
  62.9446363  52.7543831  54.8179388  59.6565151  54.0899706  57.3927116
  59.5022297  54.0648556  58.3370590  60.2880764  54.7990417  57.2719765
  68.6374950  65.5291271  36.1480093  69.2042637  64.8011446  36.4030504
  67.9344368  65.5242491  36.7975569  63.4830856  60.6556654  26.3857174
  62.5296593  60.6727982  26.3025737  63.6775160  61.3170099  27.0498371
  80.9037209  75.3736353  17.2418165  80.2199650  76.0265255  17.3916197
  81.0550308  74.9834347  18.1026757  80.0202847  48.6107254  31.3742852
  79.7639275  49.0407133  30.5584311  80.9147644  48.3092546  31.2153363
  51.0329437  82.0056343  64.1359806  50.1762104  81.6716099  64.4018221
  51.6573715  81.3729572  64.4909954  70.9014368  67.1314335  54.7203302
  70.3763199  67.0169163  55.5123997  71.3632488  67.9587030  54.8566532
  21.9557024   8.8456286  21.5618062  21.4600635   9.6603907  21.4797616
  22.6737524   8.9379920  20.9356189  43.0116869   8.1112612  55.7417297
  43.8000799   8.5254038  55.3908062  42.3536421   8.8063754  55.7369852
   2.0427633  42.7351046  60.6380320   2.6609922  42.6952887  59.9083519
   2.1331239  43.6244583  60.9802580  69.3478823  61.4908075  20.1318145
  69.7094250  60.9971619  19.3957222  68.4943962  61.7931223  19.8213243
  65.6475210  39.5122671  26.1016345  65.0300121  39.2195797  25.4313755
  65.0993156  39.9275088  26.7674232  58.0483389  51.8309069  48.8833904
  57.9836845  52.7769375  48.7526846  58.1017733  51.4699554  47.9984665
  84.1424084  54.7161627  44.4079685  84.9366093  55.0322342  44.8387671
  83.8824558  53.9489603  44.9179173  81.2421894  28.9376783  63.1269407
  80.6769562  28.8398790  62.3606634  81.4561462  29.8703933  63.1492615
  12.7780844  32.6734273   1.0114034  12.7596451  33.2350700   0.2365192
  11.8628336  32.6126449   1.2849935  75.7493591  69.6604824  24.3839550
  75.2983475  69.5462132  23.5474372  75.2133226  69.1775703  25.0129962
  69.9345636  29.2825341  57.6981544  70.3763390  29.3182778  56.8497515
  69.6854496  30.1893067  57.8768635  68.9347363  61.2386370  34.5155716
  68.7893534  60.3269625  34.7684503  68.8526154  61.7299271  35.3329563
  33.9947153   5.1094072   1.5889485  34.6260859   5.7668512   1.2967713
  33.2988192   5.1371591   0.9323009  21.0754800  34.3391252  21.6612911
  20.5493761  35.1386738  21.6482091  21.6051126  34.4138765  22.4551010
  82.4398518  63.5583735  39.2092562  81.7828655  63.1773615  39.7918582
  82.2750759  63.1469250  38.3608508  57.1230078  67.3732138  44.5731735
  56.9976854  66.5551949  44.0921688  58.0701303  67.5116348  44.5676231
  75.9561157  64.5162535  31.6764879  76.0026264  64.7272348  30.7439876
  76.8616819  64.5754766  31.9809079  73.7409878  57.1698713  50.6487131
  73.9953423  57.5188065  49.7944403  74.5157242  57.2916889  51.1975145
  50.3532435   9.7027891   6.5159257  49.6788336   9.5501821   7.1778281
  51.0009314   9.0152566   6.6709645  77.3320627  52.9435444  70.6542730
  76.3894653  52.9694653  70.4897547  77.4950981  52.0561361  70.9738827
  83.2302237   2.6875819  34.0566397  82.4675179   2.9734553  33.5538554
  83.2661915   3.2893122  34.8001862  75.9375954  68.6019754  17.2445166
  75.6949759  69.2074919  17.9450274  75.8474684  69.1157436  16.4419258
  30.3865648  37.2386861  15.2665102  31.1046339  36.7233920  14.8989737
  29.7652173  37.3327255  14.5444906  67.7101660  43.9934587  52.6208735
  68.0932474  44.7830677  52.2387791  66.7821407  44.2036676  52.7248716
   3.7944723  51.1913919  62.1994066   3.2495809  50.8122396  62.8890276
   4.0524221  52.0473909  62.5413990  58.6834431  63.9300489  47.0011902
  58.1113291  63.2607365  46.6257715  58.3867788  64.7489023  46.6040754
  81.6679955  74.9590063  64.9158669  81.5087128  75.8987856  65.0035143
  80.8557224  74.6117640  64.5472622  14.1261793  44.2370176  52.9772997
  13.9151597  45.0992107  53.3355331  13.3188749  43.7323618  53.0763769
   9.1173673  73.5709667  21.8643832   8.2160402  73.8651085  21.7327309
   9.3677450  73.9382267  22.7121234  71.6647482   8.1204802  26.8031096
  72.1680117   8.8876939  27.0757651  70.9974480   8.4693915  26.2121773
  67.3344707  58.6288786  48.5127783  68.1293297  59.0405941  48.1737852
  67.0957804  59.1589689  49.2732191  64.8081350  25.3108478  39.4339132
  64.1717339  25.6846714  40.0434065  64.2772675  24.8340130  38.7959170
  64.0366364  30.1014209  43.5060740  64.1140413  30.4201484  44.4053268
  64.9409008  29.9849486  43.2145739  28.9164139  39.9086730  19.9025472
  28.4223486  39.5883529  19.1478761  28.2537295  40.2905147  20.4781182
  79.8922348  67.9675722  26.1157274  79.7862864  68.9063454  25.9617591
  79.5355320  67.8269482  26.9927812  70.3126574  65.6356907  41.4788866
  70.7533741  66.1197472  42.1772385  69.5038795  66.1233425  41.3229942
  61.1335970  52.6436679   9.3499787  61.2509371  52.4240463   8.4257348
  61.0813738  53.5993354   9.3643029   4.5549894  35.8950090  33.0904889
   3.7018419  35.5494714  33.3531237   4.6152997  35.6989455  32.1555257
   4.5033288  53.6653519  58.0745840   4.6740365  54.1862869  57.2899055
   5.3204275  53.7060070  58.5715008  84.8156071  61.9700432  42.4157524
  85.4223061  62.6047802  42.0346403  84.3528175  62.4595165  43.0958080
  80.5128002  44.0333605  61.4067888  81.0187531  44.5462608  62.0370054
  79.6297169  44.3996716  61.4538574  73.4506845  75.8215475  59.1343403
  73.7812996  75.6586027  58.2509518  73.9931440  75.2704954  59.6985292
  17.8526712   3.5450495  30.5280161  17.8865887   4.4899691  30.6770158
  18.2418991   3.4250391  29.6617985   8.7457634   0.5888213  43.0387688
   8.3981586   0.6191767  43.9301062   9.6243978   0.2218760  43.1367111
   5.2804780  53.6683893  53.1175852   4.7272134  53.1552601  53.7065077
   4.6999288  54.3479967  52.7750444  28.8076425   7.7345503  44.6459436
  28.0263544   7.4916113  45.1427364  29.2493368   6.9032324  44.4725847
  27.7657820  16.2979735  30.4824424  27.9179884  17.1821440  30.1488161
  28.0870844  16.3234652  31.3837457   0.4552389  30.2220845  42.2114229
   0.0505662  29.4584846  41.7998600   1.3360811  29.9294400  42.4453354
  11.3342405  51.4468193  31.0045195  12.2194505  51.5010214  31.3646674
  11.0468412  50.5568123  31.2082958  81.1495113  65.3121805  37.7552795
  81.6052246  65.0126171  38.5419321  81.2077713  64.5738268  37.1489167
  24.1400362  15.3534926  56.8556213  23.3327509  15.6531466  56.4376116
  24.5675398  16.1562861  57.1539354  41.2476374   7.3505152  49.8046017
  41.6942812   6.7909373  50.4399109  40.3639913   7.4553431  50.1573086
  14.9127984  42.0526838  40.0319910  14.7269845  42.6790619  40.7315350
  14.0799928  41.6044998  39.8843622  27.5098539  73.7459993  29.3870354
  27.7836252  74.2329264  30.1643300  28.0437112  72.9516411  29.4016743
  48.8474680  13.2016028  25.4039168  49.7930837  13.3247889  25.3210664
  48.5097433  14.0727938  25.6117630  12.8854871  77.6623201  53.5035515
  12.5690294  78.4809065  53.1214476  12.0978952  77.2348118  53.8399601
  26.1007096  28.6298005   7.3352082  26.8613030  29.1357629   7.0493253
  26.2238194  27.7674405   6.9384654  41.1380602   8.4192885  53.3213615
  40.6743456   7.6955260  52.9002142  42.0644022   8.1972826  53.2272816
  16.1420465  81.9140911  23.6252594  16.0371995  81.4244843  22.8094649
  16.8173910  81.4359665  24.1064429  29.0992380   0.9067477  56.5895033
  28.5365511   0.4575003  55.9587955  29.8283602   0.3032530  56.7323828
  25.1547933  75.0931787  52.0739269  24.2300153  74.8596287  52.1543884
  25.5246664  74.9076176  52.9370546  76.7114019  80.8496761  28.5624599
  75.9634256  81.0837650  28.0129480  76.6698265  81.4619064  29.2970800
  74.0441990   8.4314966   2.6984435  74.0441704   9.3833405   2.7995592
  74.1752005   8.2902449   1.7608303  40.8572412  17.7240027  48.3689785
  40.8969713  18.2976855  49.1341877  41.7692400  17.6264323  48.0951786
  86.3179016  47.1941185  35.4218888  86.9591236  47.8488922  35.1455903
  86.7873001  46.3616467  35.3682089  11.5331865  23.3200979  11.9038200
  11.0470796  22.7929711  11.2697363  11.8822027  24.0494442  11.3914955
  80.0092316  53.7214804  60.6861305  79.4806528  54.1421890  60.0080109
  79.3837070  53.1979418  61.1869907  52.1075846  23.4663905  42.3428345
  52.9679323  23.1099070  42.5640774  51.7527033  22.8534258  41.6989708
  75.4350948  57.0875978  52.6902771  75.3656340  56.8378019  53.6116934
  75.4881954  58.0432177  52.7045393  86.3834572  77.5016832  61.2984705
  86.1519432  78.4279394  61.3669014  86.7172241  77.2734928  62.1660900
  72.9176092  33.6598539  44.8147631  73.1660223  32.7409363  44.7141933
  73.7330151  34.1440177  44.6846581   5.7144285  52.7708149  41.6826963
   4.8785234  52.3068047  41.7295456   5.4740262  53.6973047  41.6759062
  27.3907591   4.4886721  23.2656527  27.4019838   5.1932086  23.9135242
  27.0196653   3.7399233  23.7324476  13.9793802  55.1358175  30.8266306
  13.6272359  54.9541855  31.6979718  13.4628225  54.5836782  30.2396584
  67.4590635  56.6841221  63.3260918  68.0272818  56.1043787  63.8332939
  68.0514956  57.3422861  62.9626656  42.3551394  17.7034681   4.9510034
  42.1176983  17.1744745   4.1894134  43.2566334  17.4488847   5.1477988
  13.7100721  62.8956318  27.3193908  13.2036138  63.6764908  27.5429893
  13.4441209  62.6858997  26.4241171  51.9402361  68.0796528  10.4937840
  52.3339462  67.6976538   9.7093737  51.3198185  67.4169731  10.7973754
  80.2035522  52.8649712  65.2740765  80.1738453  52.5784349  66.1869001
  80.5893993  53.7402153  65.3102160  62.9726696  60.4810524  52.7119350
  62.3765373  60.8505154  53.3633566  62.4206400  60.3184366  51.9470501
  11.8141723  10.1324500  57.1805954  12.5369669   9.5061911  57.1404791
  12.0483328  10.7229174  57.8966570  82.7418423  62.5641870  27.0723271
  82.0185947  63.1162834  27.3695326  83.5186577  63.1153059  27.1675205
   8.9508367  51.4773893  65.7617998   8.3055521  52.0845842  66.1239624
   8.4318281  50.8435440  65.2667189   6.7618108  78.3175373  45.3858471
   7.2092176  77.5062561  45.6264448   7.3749376  79.0107536  45.6302977
  35.9410215   3.7228049  51.7236662  35.0420118   4.0497054  51.6896772
  36.4061762   4.3573702  52.2688103   4.6813035  71.5835142  43.3493376
   3.8203931  71.6077137  43.7670374   5.0220132  72.4722052  43.4512043
  62.1673037  12.1526449  18.4946759  62.2042204  11.2279479  18.7392171
  61.2585856  12.4068229  18.6554654  78.3125305  44.6655464  28.4432125
  78.7705946  44.2502928  27.7124763  77.4262381  44.3059492  28.4057236
  67.0829010  12.9281636  43.2743804  66.9399070  12.4440881  42.4610822
  68.0326843  12.9216262  43.3931653  61.4652920  57.6715803  47.5586653
  62.0876694  57.7530146  48.2813358  60.9371233  58.4684324  47.6064968
  15.8508611  48.1174135  34.3054342  16.7676759  48.3779049  34.3938446
  15.5025602  48.1609154  35.1959562  15.3294301  65.8166456  60.9670591
  15.2850080  65.8948946  60.0141001  15.0211359  64.9289274  61.1491156
  81.2022591   5.9118498   4.1077995  81.4281178   5.0072707   4.3244755
  82.0455933   6.3593997   4.0390873  20.5910421  13.9415873  30.6810856
  20.9962822  14.7888030  30.4960060  19.9001385  14.1395701  31.3132954
  18.6950661   3.2438601  28.0074978  19.2618299   3.0268897  27.2672725
  17.8488232   2.8571642  27.7826262  25.5057455  66.5685991   5.8290132
  25.5312754  67.5238136   5.8851035  26.3075090  66.2815002   6.2660440
  19.3007112  74.8583984  53.9629745  19.3926263  74.5813036  53.0513811
  18.5670591  75.4731274  53.9536428  22.7361990  27.5692976  16.6462004
  23.5667444  28.0188216  16.8022096  22.9827715  26.6574515  16.4913535
  38.9986444   6.5090407  22.9215384  39.4990373   7.2792185  23.1910920
  38.7049986   6.1147059  23.7428260  16.7247034  64.9594450  23.4896135
  17.2914339  64.5812607  24.1619444  17.1725011  64.7706318  22.6649547
  32.7226472  65.7869148  31.2474179  32.0701623  66.1554098  31.8429899
  32.2545171  65.0978518  30.7759523  85.4170895  50.5904293  14.0695763
  84.9902916  51.1707163  14.6999228  84.9754333  49.7486544  14.1817546
  64.8127031  60.7956076  67.9417467  64.7086430  60.4309368  67.0628738
  65.4451418  60.2170324  68.3677864  78.0246687  69.1342497  60.8996677
  77.8584957  68.6777401  60.0749159  77.8627300  70.0562620  60.6999207
  56.4446855   1.1296881  38.5668373  55.7984091   0.4448641  38.7387729
  57.0466638   1.0828341  39.3095756  11.3448167  35.9396911  43.0810595
  10.4037786  35.9562278  42.9066992  11.5831686  36.8594909  43.1967688
  26.8057466  28.8072753  29.8046947  25.8932138  28.9640045  30.0475097
  26.7820573  28.6747861  28.8570046  10.9303499  72.8305674  40.6188965
  10.3011537  73.2956028  40.0674534  10.8011461  73.1990671  41.4928246
  29.6819044  73.0423880  55.9218121  30.5643392  72.9180670  56.2712002
  29.2949415  72.1669436  55.9314537  -0.1422667  65.2975321  32.9382229
  -0.5632185  66.0835934  33.2862782   0.7612539  65.3518724  33.2495666
  60.0797964  40.9356086   3.3037026  59.4863154  40.9454982   4.0546496
  60.6587340  41.6844623   3.4460862  82.3681831  47.1691847  37.6650906
  81.5919971  47.0783281  38.2178140  82.4412251  48.1105137  37.5076151
  61.9265556  60.5773783  63.2322979  61.9717312  60.3942680  62.2938633
  62.6520729  60.0792217  63.6087275  84.4174099  54.1753912  41.4549351
  84.1702843  54.3527031  42.3625278  84.6006203  53.2360840  41.4357233
  60.9165668  57.0149040  58.5358477  61.5869284  56.3342714  58.5957003
  60.2700424  56.7732859  59.1990662  14.5138479  64.9871778  51.1875534
  14.6586824  65.9330463  51.1632776  14.8095918  64.6775436  50.3314590
  70.6445789  75.9690094  50.0941944  71.0037184  75.3524923  49.4561100
  71.2900639  75.9855461  50.8008146  24.9130846   9.1738642  54.1531277
  25.4404665   8.8617171  54.8884296  24.8114515  10.1122035  54.3125820
  56.2920500   6.3519801  29.1794872  56.4680982   7.0889605  29.7643852
  57.0949770   6.2554968  28.6674118   1.5232778  36.5862406  60.9376335
   1.6615272  35.6816329  60.6569147   2.3948789  36.9810236  60.9113884
   2.8196646  17.0070590   5.2693284   3.1541754  17.4448145   4.4865733
   1.9881798  17.4447955   5.4516870  58.9318228  52.2996616  10.9519017
  59.7000313  52.2591496  10.3823030  58.5538244  53.1627369  10.7832146
  52.0751095  65.3461599  44.4835520  52.3056126  64.9284554  43.6537218
  52.1584892  64.6488571  45.1339769  74.4781542  28.8691462  22.0483184
  74.8419381  28.2907713  21.3779616  75.1131678  28.8357104  22.7637696
  84.7928524  56.9866562  47.3923111  85.7287407  57.1750975  47.4617958
  84.4116402  57.3725224  48.1809950  63.6381483  50.7062721  23.4995437
  64.0184307  51.1361170  24.2656064  63.9914179  49.8169804  23.5238934
  70.5539846  70.6979847  57.0561934  70.6434965  71.6446018  57.1663523
  71.3014317  70.4483509  56.5128326   5.3759529  38.1637542  15.5233701
   5.5824901  38.7368314  16.2617143   6.1122944  37.5536840  15.4803975
  20.0202489  67.5847626  65.5251980  20.0392175  67.6887035  64.5738459
  20.5381704  68.3183336  65.8566523  65.8020878  62.6148415  52.5706625
  65.6681108  61.6725826  52.6727819  65.9329510  62.7376413  51.6304350
  37.7928233  78.6247158  40.4864216  38.6346030  78.8678551  40.8718061
  37.2479534  79.4049311  40.5894232   6.3112569  48.8592911  30.8012676
   7.0940710  49.3972254  30.9198499   5.9317613  49.1668224  29.9780822
  62.9404879  19.0226305  23.8492298  62.5247598  19.4507254  23.1008077
  62.3324967  19.1649855  24.5747042  64.0691328   0.7312239  30.3026199
  64.7412157   0.4326380  30.9153032  63.2414437   0.4931773  30.7203507
  75.0921917  70.3633881  63.5472155  74.5897722  70.3170633  64.3606424
  74.4301796  70.4514551  62.8614902  27.4497057   8.1159247  34.5249963
  28.2473684   7.8108634  34.0926814  26.7688490   8.0334223  33.8572669
  16.2946344   4.8090209  47.4789143  16.7192150   4.2662371  48.1432533
  16.5744091   4.4302500  46.6455507  19.5398832  64.7504282  69.8393202
  19.9768663  64.9838877  69.0203094  20.1877809  64.9381781  70.5184460
  13.9636398  23.9062537  46.4284849  14.5105816  24.0739192  47.1959352
  13.9228845  24.7481574  45.9748697  30.9704328   2.1074332  47.0671606
  30.5209471   1.4844454  46.4961195  30.5929113   2.9569376  46.8390179
  64.0102196  80.5303001  51.0826778  63.4608698  81.2347698  51.4264250
  63.6913872  80.3913879  50.1908875  81.7692852  71.7216969  50.4882383
  82.2389793  71.1787319  49.8551416  81.9432068  71.3083553  51.3338947
  71.7301607  52.9399538  55.7902241  71.4732218  52.4739647  54.9945688
  72.6727676  53.0760479  55.6942606  43.7876511  65.8694839  46.0540009
  44.3659258  65.6002569  45.3403187  44.3797684  66.0753107  46.7773724
  70.0227642  35.6450605  41.2729931  70.1441956  35.1376414  42.0754957
  69.2709303  35.2372718  40.8432341  32.9928423   3.0203665  30.8780813
  33.6255384   2.7992571  30.1946831  32.1609045   3.1121291  30.4136467
  38.7726808   2.2454775  43.8535929  39.2524649   1.6387785  44.4174671
  38.3165003   1.6818465  43.2287312   0.3844190  34.2083478  45.6272697
  -0.4957938  34.3916917  45.2988720   0.5580545  33.3067703  45.3566360
  79.9979448  45.3234196  17.6563954  79.9767494  44.4311666  18.0023181
  79.4773054  45.8333397  18.2769990  18.0673052  16.3048209  29.0848255
  17.6812054  15.6190432  29.6296763  18.9284159  15.9630812  28.8441324
  39.0591932  54.8173969  -0.0094335  38.4275652  54.1660468  -0.3144328
  38.6777331  55.1609866   0.7984479  56.8680525  71.8587208  63.1105137
  57.4476290  71.4483023  62.4687386  56.0316467  71.9499302  62.6540709
  31.5929056   4.3979109  60.1509953  32.0466257   5.1917685  60.4341221
  31.1342455   4.6563662  59.3515825  42.4831129  25.2704562  52.8692961
  41.7381693  25.7538355  53.2265568  42.1902777  24.3593539  52.8497028
  72.9125690  81.1950970  36.1557627  72.6290464  80.3684998  35.7651401
  72.4920750  81.2103939  37.0155191  24.4887758  14.2021883  49.7063112
  24.5602918  14.7245825  50.5052042  23.7481619  13.6176909  49.8678303
  67.1326828  25.4757738  31.7405844  67.7230120  24.8396134  31.3368034
  66.3379383  25.4363585  31.2085509  63.6838293  57.5331163  54.0239620
  64.2622805  57.7355576  54.7592449  64.1465282  57.8681421  53.2559109
  70.3930092  63.4463263  68.7160587  69.4918442  63.5636663  68.4154606
  70.8791637  64.1575861  68.2989311  63.2939005  51.4882231  30.4997015
  62.3498631  51.5440798  30.6476808  63.6107969  52.3812580  30.6349611
  84.6032429  40.1388073  61.7133665  85.2799129  40.5507517  61.1760998
  85.0882721  39.6811533  62.4000502  71.8880844  58.3712339  39.1568398
  71.1728621  57.8524685  38.7886429  72.3393679  57.7702475  39.7496247
   3.1697679  60.0598812  40.4894495   2.5119806  59.4070053  40.7288265
   3.3959890  59.8508263  39.5831656  15.4260946  64.7808266  48.7242317
  15.3299928  65.5743027  48.1975508  15.2540899  64.0650034  48.1124735
   4.7264410  44.3975353  34.9676919   5.6171537  44.1002417  34.7819924
   4.8223997  45.3272724  35.1741195  63.5989523  79.0217352  11.6056013
  62.7227402  78.9400530  11.9821870  63.4963703  79.6554518  10.8955944
  74.6391535  34.7475934  47.2331190  73.8557291  34.3875670  47.6488876
  75.2489519  34.0108776  47.1927881  85.4701328  40.2888250  35.3140831
  84.6471596  40.7732487  35.3795552  85.6689835  40.0317001  36.2144017
  30.3887296  55.4898643  68.6738300  30.8150602  56.2664127  68.3112812
  29.5007349  55.7797289  68.8828182   1.9565130  52.5416613  19.0069437
   2.7103067  52.3617029  19.5687628   1.4408136  53.1827402  19.4961298
  22.7743746  10.8284319  47.5608969  22.2062326  11.5278185  47.8838634
  23.3264089  11.2524737  46.9038773   9.2406106  48.0140066  36.6193366
  10.1000524  47.8008270  36.2558150   9.0792203  48.9151955  36.3399649
   6.0817838  74.4167280  68.7210751   7.0199609  74.4040251  68.9105225
   5.8182264  75.3236389  68.8769054  12.3879743  45.4575539  40.5317640
  12.0965982  45.1975489  41.4056826  13.0889535  46.0895681  40.6911755
   1.5408349  75.6474876  41.7416859   1.4299417  76.5551662  41.4587450
   2.3862291  75.3847313  41.3776922  64.0151072  61.7645741  39.5601296
  63.5827065  61.3147593  40.2860260  64.9472046  61.7233467  39.7739792
  21.2288022  63.2567883  45.8871889  21.3528562  63.5147238  46.8005943
  21.5100217  64.0199566  45.3824902  75.7756640  39.8907440   2.9911597
  75.9774615  40.7855670   3.2646592  75.9535242  39.3576019   3.7659820
   9.2485452   6.5503157  39.7724199   9.0503670   6.0278071  38.9952826
   9.9652363   7.1231307  39.4995308  83.1766415  77.8431606  62.7857876
  83.1398773  78.0548716  63.7185574  83.7319660  78.5247135  62.4071980
  40.4964376  14.3182887  16.7574203  40.1628614  14.1148032  17.6312387
  41.4011503  14.0058554  16.7676604   2.2641588  68.0507326  63.4167862
   2.9614664  67.4173355  63.5864925   1.6047121  67.5562954  62.9300547
  77.0709515  71.2176657  59.4120312  77.1726513  71.2194395  58.4602499
  76.1610413  70.9572840  59.5551968  72.1381235  63.6332655  30.9483171
  71.5505028  63.3490801  31.6484380  72.4540710  64.4904709  31.2339830
  33.5782266   2.2417487  43.9258623  34.3240476   2.6289118  44.3842077
  33.4643770   2.7889002  43.1487513  83.8832544  77.9792466  58.0578947
  84.7406983  78.3703940  57.8904819  84.0800547  77.1386625  58.4713173
  26.8836259  70.2915691   2.1316063  27.2826099  70.0921093   1.2846953
  26.5890598  69.4433700   2.4633007  49.4418715  36.0167526  62.2182069
  49.8837327  36.6905905  61.7015515  48.6419879  35.8255286  61.7284594
  13.5411262  73.9580326  54.1236830  12.7346277  73.5453670  53.8146448
  13.2735061  74.4601994  54.8933840  72.9134417   0.6085113  37.7120852
  72.6309872   0.3644474  38.5934973  72.8110838   1.5597652  37.6825809
  67.8297138  24.6654606  22.8636241  67.5976706  24.4185257  23.7588382
  66.9886732  24.7880530  22.4233389  86.0951219   9.3632120  51.0108328
  86.3397740   9.2211932  51.9252777  85.2893853   9.8780054  51.0556412
  86.3805412  47.9316579  59.3382215  85.6009435  47.4174797  59.1282749
  86.7320823  47.5218116  60.1285839  55.8169242  72.5642996  30.3391409
  55.2532058  72.2758137  31.0569358  56.2859818  73.3204108  30.6920052
  51.9521809  17.5075483  62.6886368  52.3622847  16.6492963  62.5816393
  52.1534252  17.7584410  63.5901785  19.0621948   5.4707309  66.8535588
  18.9842653   6.2823507  66.3521297  18.5201168   5.6153461  67.6291017
  32.2955990  13.7060928   5.7495505  32.6975226  13.8165581   6.6112268
  31.3542986  13.7548757   5.9162968  74.7384167  28.3829093   7.5398642
  74.8103762  29.2142725   8.0087882  75.4480124  28.4078002   6.8979287
   8.0428004  68.0079090  53.2311487   7.4202680  67.8222000  53.9341402
   7.5269651  68.4698152  52.5702477  19.8563003  59.1065370  41.0449314
  20.2046632  59.4189798  40.2099133  19.8364687  58.1538021  40.9547281
  40.2370453  24.5448160  23.8290715  40.2365255  25.0393772  23.0095339
  40.7215595  23.7447453  23.6256933  27.6630116   0.9974801   9.3561804
  27.1707129   0.9958524   8.5352850  27.6236176   0.0909287   9.6608841
  72.7543281  60.4432900  59.6765081  73.0192159  59.5343299  59.8174338
  72.9539226  60.6108804  58.7554721  62.5330957   4.0098973  67.6049854
  61.8270238   4.6533748  67.6652239  62.2896593   3.3278962  68.2309623
  50.4589224  17.2420597  35.3554726  50.5463743  16.8061852  34.5077729
  49.5625925  17.5779140  35.3607607  48.8051033   0.3666859  51.5213251
  49.7063160   0.3605088  51.8438339  48.5152864  -0.5419285  51.6029167
   7.8813076  56.6055714  27.6196384   7.8415036  56.0102736  28.3681512
   7.6324629  56.0648119  26.8700480  29.3554592  13.4352052  23.1554937
  29.7742915  12.9275203  22.4604630  28.7651372  12.8146577  23.5828948
  44.7470713   8.0736381  29.4791341  45.1110554   8.7409920  30.0608444
  44.9710131   8.3753490  28.5987639  52.2286606  19.2868769  35.9506631
  51.6969395  18.5416079  35.6712413  51.6397905  19.8111248  36.4934611
  53.7173939  31.0375595   5.2016461  54.4961882  31.3186407   5.6819665
  53.9998436  30.2587700   4.7221205  82.8709459  65.5737554  34.5382738
  82.4854516  65.7591628  33.6819720  83.1926607  64.6750926  34.4665956
  25.4086351   2.6225874  42.2260141  25.0429964   3.5021567  42.1316862
  25.8746481   2.4675450  41.4044142  16.3860225  49.3359076  12.0659876
  16.1015749  50.1566612  12.4680889  15.7562112  48.6857878  12.3773050
   6.3018012  78.7654783  70.6389856   7.0673847  78.4849577  71.1404037
   5.6648349  78.0613696  70.7603836   3.6472749  68.1961273  34.8133492
   3.0772972  68.7633084  34.2940569   4.4591093  68.1457590  34.3087530
  76.2346028  78.5581135  24.8320150  76.7112266  78.4491019  25.6549239
  75.3147422  78.4445142  25.0711465  86.3505173   3.4115511  28.8531590
  85.6429672   2.8045666  28.6359406  85.9037876   4.1967991  29.1694665
  17.8157425  30.2761960  60.8316708  18.6031318  30.6989551  60.4888535
  17.6729119  30.6901312  61.6828394  82.2397184  64.1794561  49.6331978
  81.3765406  64.1593277  50.0464153  82.8463196  64.3496977  50.3538132
  12.9494810  71.9110601  13.3537376  12.8085804  71.1032557  12.8599453
  12.9719400  71.6315125  14.2689323  83.9145850  78.3876201  27.4359083
  83.6287951  79.2971089  27.3499656  83.5074972  78.0843060  28.2473946
  84.5611309  66.3089521  55.9599297  83.9103626  66.3850911  56.6577379
  84.7133898  65.3676660  55.8760838  71.0736226  68.0444597  38.2094383
  70.6088399  68.6252367  37.6070213  71.3684677  67.3171865  37.6613784
  62.8969448  64.2546975  39.6238565  63.3017879  63.3970903  39.4940734
  63.3150511  64.8179542  38.9725780  80.3549885  35.2730436  69.4868959
  79.8041319  35.5753209  70.2089879  80.2023767  34.3288798  69.4482188
  11.7510414  58.7693655  64.2058086  10.9059405  58.5939752  64.6196604
  11.5733814  58.7166773  63.2667208  85.1110310  35.0805926  64.2596769
  85.4728099  35.7542443  64.8354721  84.5069937  35.5537796  63.6874294
  75.7451951  57.9716074   6.2409359  75.7563280  57.7196824   7.1643221
  76.1391091  58.8438665   6.2258792  25.1328516  81.3888052   2.6134413
  25.7959127  82.0050128   2.9246742  24.4163131  81.4698436   3.2429162
   9.4590830  65.5668711  22.6387858   8.8237190  66.1501693  23.0538821
   9.2831468  64.7082960  23.0236578  44.8246336   6.5850198  22.6440334
  44.7810316   6.2780386  23.5496235  44.0390491   6.2261206  22.2313857
  34.9662161  74.9868076  26.0253453  35.8466243  75.0624835  25.6573892
  34.6935463  75.8908891  26.1819267  55.0683403  25.8121824  39.2337537
  54.1440392  25.6194544  39.0764236  55.3812313  26.1769438  38.4059358
  16.5202808  75.6306081  23.5281420  16.6784525  75.8592265  22.6122022
  17.3593473  75.7854628  23.9619875  32.3051810  13.8297021  34.5253277
  31.3937616  14.0065706  34.2923832  32.5266337  14.5109022  35.1602745
  62.9892206  21.6556239  33.5787749  63.4532547  21.7163801  34.4137669
  63.1626606  20.7654548  33.2725930   9.9453854  77.3702039  13.1798708
  10.7680606  77.5150373  12.7124703   9.9076914  76.4226984  13.3104241
  55.9139967  24.0943217  21.9554615  56.5829802  23.4116006  21.9046736
  55.4481888  23.9129686  22.7717733  59.3921185  11.4162898  67.7463722
  59.8741865  12.1871245  67.4469471  58.8519621  11.7371833  68.4685183
   3.6452483   1.5396888  57.8208701   4.3115567   1.4377220  58.5004799
   2.9606866   2.0661743  58.2336859  54.7315906  62.4919398  65.0705151
  55.3148745  62.4965604  64.3115745  55.3024100  62.6915248  65.8125143
  85.2989578   0.0277199  14.6789122  85.1479530   0.2081010  15.6067550
  85.2107430   0.8797982  14.2518139  56.9308901  12.3695648  54.7701836
  57.3206425  11.6194439  55.2192307  56.6871929  12.9702044  55.4745102
  39.9102783   6.3938421  14.9651515  39.9541187   5.8040363  15.7177722
  39.3404889   5.9440577  14.3412423  41.1187458  10.0161552  26.2616658
  41.0774183  10.1042867  27.2139025  40.6420803   9.2073238  26.0750771
  51.7633438  20.8227873  29.1896534  51.7120123  19.9279046  28.8538241
  52.4419928  21.2393761  28.6585021  36.1611843   6.0007393  38.3611631
  36.4267302   6.4683080  39.1530561  36.8021607   5.2952969  38.2732368
  37.4912214  70.7167732  53.5546446  38.0378484  70.7146906  52.7688789
  38.0296564  71.1455356  54.2198420  32.7636333  27.5335117  61.6672377
  33.1275143  28.4113069  61.5519170  33.5263907  26.9552488  61.6604559
  51.1411572   6.5147632  24.8037791  50.2465820   6.1748195  24.7837424
  51.1614513   7.0907182  25.5680418  54.8736191  18.0407536  39.9352908
  55.5280828  17.7865636  39.2846775  54.7101402  18.9676619  39.7610831
  76.6160272  22.7802653  65.7649790  76.2936186  22.0363136  65.2562348
  75.8255361  23.1936891  66.1120192  82.0313358   3.8606626  23.8605618
  82.1483612   3.3993295  24.6910477  82.3005199   4.7602591  24.0462971
  52.9637098   2.5014895   8.1784606  53.1767654   1.6685082   7.7577710
  53.7059736   3.0700693   7.9735357  86.3850187  41.6228258  59.6638648
  87.0225977  42.1450788  60.1506714  86.8942379  41.2151651  58.9633338
  50.4436731  25.5492735  51.9597721  51.3200378  25.8395958  52.2126102
  50.3517056  25.8301044  51.0493279  84.0683270  18.2179356  48.2129717
  83.8589954  18.3606648  49.1360283  83.5375404  18.8622355  47.7445984
  24.9007583  15.8523083  60.2333927  25.4611254  16.5622759  60.5467129
  24.0127254  16.1324847  60.4550409  60.7602167  11.7675018  25.9444666
  59.8570728  11.4530909  25.9858084  60.6919956  12.7114701  26.0876513
  69.1583014  25.7901692  37.1274161  68.8855267  25.0455046  37.6634216
  68.9833689  25.5144596  36.2276316  13.8047456  67.0180499  39.2247438
  13.0939960  67.2018479  39.8389769  14.2253542  67.8663491  39.0843582
  67.7819681  33.1778216  35.0495052  67.4934721  32.2702217  35.1457572
  68.2805777  33.1852818  34.2324615  13.8208532  73.5369538  33.2632923
  13.1342458  72.8729432  33.3256865  13.8700437  73.9138984  34.1417694
  12.4492443   4.1414574  18.8348734  12.5171709   4.4513819  19.7379601
  12.1704066   4.9106228  18.3380187   3.0937004  56.0709273  22.7570534
   3.0542040  55.1220333  22.6375794   4.0132951  56.2926780  22.6107550
  40.5539989  30.9605026   8.7799627  39.7554827  30.4371691   8.8486952
  40.7947874  30.9096932   7.8549373  22.7536821  65.5703699  37.7009225
  23.1334638  64.7683548  38.0597663  23.0067205  66.2537431  38.3215714
  13.9991939   0.3029324  33.6606884  13.0671442   0.2378227  33.8687158
  14.4403064   0.2059557  34.5046353  45.7087516  81.0408018  35.6612062
  45.0793790  81.2356452  36.3555837  45.3183412  81.4160207  34.8718905
  30.5569887  16.7824948   7.5918388  30.0546288  17.4610651   8.0428487
  29.8968792  16.1641288   7.2786117  51.0460163  62.5530962   8.7640269
  50.3397441  62.5894860   8.1189807  51.7129088  63.1489996   8.4228738
   5.5329806  32.4752283  40.3394032   5.8505696  31.8404579  40.9816170
   6.3187039  32.7533221  39.8687291  56.7235231  19.4636917  66.4536476
  56.4941549  18.5492098  66.2882853  56.9923973  19.8014390  65.5993271
  41.7266417   2.8555715  38.8078952  42.5012302   3.2812935  38.4404564
  41.8020439   2.9946545  39.7519302  22.6801920  21.8810558  27.5760603
  22.9407191  22.4341607  28.3125591  22.6169205  21.0012841  27.9478550
   3.5830306  68.1463344  67.4989618   3.9249801  67.3465665  67.0993720
   2.8953265  68.4380014  66.9004379  15.0882196  67.8619646  24.1973710
  15.2972507  66.9283949  24.1659951  14.1393518  67.8991281  24.0769815
  35.6690478  25.8711958  36.7538691  34.8660564  26.3463759  36.9675040
  35.4115057  25.2662897  36.0581756  24.5099020  25.1057386  47.8511190
  23.6314249  25.3530455  47.5624180  24.8598623  24.5811677  47.1309900
  85.3390096  57.1070631  64.7433130  84.7435736  56.3645954  64.8454289
  85.0021337  57.7690478  65.3470711  63.4581232  25.0882244  53.9393854
  63.0944967  25.8198810  54.4380665  64.1409016  25.4836035  53.3974266
  44.3172478  76.1703675  54.0398645  44.2320751  76.3595258  53.1054163
  44.7800516  75.3331636  54.0735531  30.8481264  58.9856421  62.4490595
  30.4245996  59.8026620  62.7123690  31.0207176  58.5291277  63.2724905
  33.6706829  56.3317501  26.7156243  33.9236498  55.8711778  27.5156951
  34.4975519  56.4963304  26.2623763  19.0750742  55.2422630  34.8094893
  18.2166242  54.9586283  35.1238871  18.9114618  55.5624258  33.9223838
  69.6208811  26.4494824  22.2777557  68.7377024  26.8111873  22.2042894
  69.4847012  25.5272222  22.4948335  47.6041317  12.0025826   3.3123493
  47.0639467  11.3293076   2.8986651  48.0024338  11.5622258   4.0631306
  48.4875488   7.2081375  36.8184114  49.1710377   7.4627316  37.4382949
  47.8169298   7.8849757  36.9100142  55.2980518  18.0394030  27.9122734
  55.0669622  17.3112643  28.4890246  55.9198523  18.5598373  28.4209466
   9.5765138  17.7079785  45.8218956  10.3320241  17.1673083  46.0523319
   9.9468065  18.4379196  45.3256035  53.8598299  13.4648418  39.4731593
  53.6151314  13.8400042  38.6272216  53.4005928  14.0047526  40.1164532
   0.9273767  13.5926664   4.7139913   1.0481041  12.8574681   5.3149414
   0.1163515  13.3901501   4.2476684  15.4884290  80.6121729  21.3876414
  15.0975370  79.7442015  21.4879394  14.8124170  81.1302745  20.9508228
  31.1321712  31.8923759  21.1276150  31.7701578  32.2788167  20.5277276
  31.6097474  31.7882156  21.9505978  17.8043604  11.1136067  17.8197253
  17.1115804  11.3574219  18.4335995  18.4072649  10.5808282  18.3382666
  23.3075857  73.9614861  37.5039268  23.9929962  74.4098645  37.9993010
  23.4937620  73.0305540  37.6261377  26.9222641  71.7470657  41.9145012
  27.5393915  72.1562885  42.5210667  26.0682201  71.8539881  42.3333168
  22.1096992  79.6260425   0.3391979  21.9947242  79.4610794   1.2750396
  21.4733219  79.0507253  -0.0853773  73.4784269  42.9569101  48.2985306
  73.2313538  43.4008980  49.1097403  73.8370752  42.1169090  48.5848999
  50.9832286  73.3095889  47.9017544  51.1329555  73.6748224  47.0297337
  51.8216419  73.4129166  48.3518887  50.8387804   7.6114792  38.0889535
  51.7204571   7.9082036  37.8634953  50.9768486   6.9222915  38.7387133
  29.4050002  18.7798285   8.7716705  29.9281859  19.2724502   9.4039917
  28.6767817  19.3629253   8.5573602  39.8056483   8.7120670  13.9037013
  39.5254540   7.9728800  14.4434464  40.6747818   8.9358050  14.2365420
  72.8454638   6.7478895  42.1033335  71.9731903   6.6275448  41.7279816
  72.7108765   6.6801417  43.0486012  16.1041307  77.4659519  42.6013422
  16.6497469  76.6829549  42.5275183  15.3113365  77.1644764  43.0449867
  27.6335287   4.9384451  40.8126259  27.3441219   5.3698826  40.0086737
  27.5250053   4.0040702  40.6354284  50.6043911  20.3552151  37.6630378
  49.7652340  20.7896471  37.5103474  50.7261658  20.3961015  38.6115813
  68.4247875  20.1704431  55.1935101  67.4748516  20.2737236  55.1370382
  68.7739468  20.8412361  54.6066904  35.3020120  29.7806001  39.3120909
  35.3904057  29.6819210  38.3641028  34.7632885  30.5641150  39.4221377
  49.5015907  28.9046669  43.6298704  49.4506788  28.3446121  44.4044542
  49.8573446  29.7316122  43.9551926  63.2702076  71.8131064   5.0237036
  64.0103661  71.4552473   4.5334643  63.3353978  72.7598636   4.8986757
  34.4740152  80.2564535  22.2808528  35.2149963  80.8431571  22.1293283
  34.4433546  80.1499670  23.2316160  27.7777362  16.1220586   6.2926251
  27.4892735  15.5797350   5.5585229  27.3431706  15.7422662   7.0562625
  14.8787332  13.1603777  31.5779328  15.0538469  14.0183449  31.9645333
  15.5187536  12.5780892  31.9872665  54.1196441  77.9340979  55.8028698
  54.6665382  77.7741851  56.5720034  54.3122673  77.2029968  55.2158260
  64.9790955  36.2300229  65.4389095  65.0674534  37.1718717  65.5849981
  64.9210024  35.8557057  66.3179636  58.3053398  10.3848886  33.4336662
  58.7443733   9.6599674  33.8786077  57.7436781  10.7728434  34.1046810
  81.1979460  21.0882945  68.0452780  81.4043306  21.0501094  68.9791836
  80.2785944  21.3529391  68.0137805  51.7758178  80.9957820  34.0164304
  51.4522648  81.2450956  34.8821044  52.5604534  81.5295269  33.8911390
  35.5394411  66.3277232  62.3838329  35.4180288  66.8860947  63.1517601
  34.9500465  66.6949736  61.7250681  30.3377914  33.2151079   4.6956018
  29.7983074  33.3112931   3.9107856  31.2141681  33.4817982   4.4179827
  73.0095959  46.5450106   1.2311633  73.8385821  46.0807345   1.1151155
  73.2094145  47.4527565   1.0024627  85.8840847  27.4287820  63.4290409
  86.6042900  27.0517564  62.9236794  85.1982594  27.5940013  62.7820539
  84.3200493  24.6253109  48.7353754  83.8590240  24.6076775  49.5740509
  84.8402691  23.8218307  48.7310886  45.8371687  34.9533653  12.0910180
  45.4163504  34.6367049  11.2917244  45.1136494  35.2617455  12.6365972
   4.9831199  62.5533091  17.8013694   4.8297500  62.1202766  16.9616115
   4.8691678  61.8608116  18.4522867  41.0382843  18.7387097  50.8230400
  41.6530848  18.2669008  51.3848639  40.2563381  18.8496983  51.3638496
  11.9297147   5.4103023  28.8816953  12.7179885   5.6517196  28.3953071
  11.5256381   4.7202080  28.3556485  68.7085770  36.9611843  70.2215921
  68.6160730  36.4257620  69.4335578  69.5046543  36.6346319  70.6409456
  45.3345871  16.7324567  34.6885204  45.4365396  16.1114943  33.9672422
  44.9694920  16.2112010  35.4035234  62.6980186  71.5124158  12.0740636
  63.3371759  70.8888105  12.4187787  63.2141376  72.2884873  11.8559773
   8.4394955  81.4492116  54.4247246   7.5194525  81.3241194  54.1921186
   8.4802961  81.2447364  55.3589392  24.9224210   7.7487338  22.2473454
  24.9467325   8.3457357  22.9951620  25.4430652   8.1868190  21.5741110
  16.8345308  78.9827134  70.3587389  16.9599247  79.9175950  70.1959372
  16.9213104  78.5757317  69.4967222  26.9166946  72.5690978  32.5162148
  27.1854448  73.4847008  32.4408650  27.4335098  72.1123861  31.8524766
   8.6737775  73.1437068  51.6243124   8.1601190  72.8929775  52.3921108
   8.1641769  73.8416492  51.2127113  61.3079643   9.6967369  24.4378567
  61.9656754   9.8432302  23.7580132  61.0861921  10.5741572  24.7495985
  19.2215013  68.6379301  69.2441130  20.1543998  68.6566662  69.0306330
  18.9246988  69.5364522  69.0998840  48.3944178  29.2835855  63.9903021
  48.8752365  28.6455297  64.5174885  48.2283068  28.8333988  63.1620646
  29.5248937  72.1587395  14.1153824  29.7617292  71.2357878  14.0242708
  30.3080463  72.5722437  14.4785869  72.8161764  50.9299850  32.2877288
  73.2536411  51.3154316  33.0468655  72.9537582  49.9877214  32.3848724
  22.4623918  60.2987062  60.8996105  23.0815506  61.0010635  60.7006884
  22.7723264  59.9338280  61.7284870  33.9245105   3.6962432   3.8721582
  34.6546936   3.9377570   4.4420153  33.9408016   4.3490553   3.1722990
   1.2063527  67.8396856  17.5266683   1.7603373  67.1791207  17.1107519
   0.3156638  67.6020824  17.2688878  28.2742620   0.8844259  17.5498044
  27.4339437   1.3392496  17.4929166  28.7044048   1.2705106  18.3127904
   7.1698445   7.4559569  28.6185098   7.0186484   7.8416497  29.4814205
   6.4281160   6.8654263  28.4868121  79.1454457  55.7740723   9.2187196
  79.8218774  55.1450287   9.4696718  78.5829877  55.2918946   8.6126024
  43.2845211  80.5103425  32.1578312  42.8894043  81.1864506  32.7082777
  43.3136892  79.7335560  32.7163863  74.2208290   9.0753484  38.1117463
  74.5201445   9.7745079  38.6929679  74.6568251   8.2886153  38.4391427
  20.5644321   3.8115308  31.9354367  19.7826517   3.2746434  32.0650697
  20.4607677   4.1774037  31.0570168   1.6504693  65.7940959  15.8459973
   1.2239694  64.9485218  15.9850407   1.0159802  66.3021301  15.3404713
  49.7729397  30.6676936  70.3154421  48.9837790  31.1112309  70.0044155
  49.4464540  29.9076462  70.7970762  67.5156546   9.0401459  27.4634457
  67.9302168   9.6405083  26.8438220  68.2279491   8.7592947  28.0378938
  28.0550075  20.3980660  21.7163944  28.9301085  20.0119352  21.6799045
  27.5786090  19.9799132  20.9991598  54.8053598  12.9623151   4.9927893
  54.9696827  13.2203090   4.0857786  55.2759838  12.1351576   5.0955367
  46.9404507  11.4463365  26.4054036  47.2389174  10.9873426  27.1905637
  47.6559782  12.0450568  26.1914206  19.4366765   3.0226138  35.3835368
  18.5562027   2.8789917  35.7304811  19.9857891   3.1290105  36.1603165
  16.3476848  81.0215086  14.4650984  16.5941572  81.5978386  15.1885116
  15.4198694  80.8370554  14.6112466  51.6091585   2.3920928  10.5416179
  52.2001457   2.6944920  11.2311983  52.1414375   2.4075219   9.7462106
  14.0523863  18.8873899  27.5523615  14.5376146  18.0825770  27.7341962
  13.1346154  18.6158371  27.5387096  13.4441518  47.1328222  30.3524423
  13.8912725  47.8089391  29.8433423  12.6084041  47.0078813  29.9028373
  76.8317413   8.2352352  32.2459650  77.7864456   8.2516354  32.1788907
  76.5524912   7.6460314  31.5451860   7.0197868  76.1109584  47.6553345
   6.7983436  75.7169663  48.4991121   7.9663109  75.9921299  47.5765514
  54.0572786  25.4414320   9.7134918  54.0095139  24.5591283  10.0815797
  53.6826134  26.0042357  10.3910673  47.9855680   5.1692867  34.7908306
  48.0066252   5.7536256  35.5486798  47.0724583   5.1819122  34.5039535
  41.5459442  78.3802201  35.6061053  41.8757867  79.1675823  36.0391140
  40.7008361  78.6434444  35.2417707  34.2004943   4.2713693  24.3892527
  33.8571358   4.0476602  25.2542901  34.1673517   5.2274954  24.3583322
  57.3855019   4.9996725  31.9004583  57.2853565   4.1237405  32.2732115
  57.8324270   4.8553708  31.0663915  44.8020840  14.9908769  55.7244968
  44.9472666  14.1068661  55.3873348  45.6232500  15.4511821  55.5511856
  58.7700748  28.2500029  58.9105463  58.1382895  27.9823136  59.5779467
  59.2499590  28.9744782  59.3118954  28.0879879   8.5476786  26.5022254
  27.6448536   9.3949783  26.5463519  28.3939290   8.4842241  25.5974579
  22.8962469   9.5099211  42.4133778  23.3856916   9.2005086  41.6511869
  22.4431491  10.2945507  42.1046877  43.2930088  22.2703075  57.5176144
  42.3368549  22.2660661  57.5621748  43.4904528  22.1126056  56.5943718
  59.4014215  10.2869511  45.6078339  58.7981653  10.6744885  44.9736977
  60.0113440   9.7752553  45.0764227  51.9173384  11.0605919  17.9393089
  52.7298260  10.9747744  18.4380424  52.2031832  11.2681091  17.0496666
  43.3674097   8.5280758  20.2337813  42.5303078   8.5009450  19.7703564
  43.9859962   8.1087446  19.6356642  14.5907402  47.0458995  53.4899855
  14.1452407  47.6341163  52.8802633  15.2657985  46.6198694  52.9617548
  65.5860376  29.0479398  38.6634922  65.7629538  28.2143641  38.2275033
  65.3777075  28.8066864  39.5660567  57.4180412   3.7569726  35.7374358
  58.2480001   3.9590949  35.3055334  57.4792099   4.1904491  36.5886641
  18.0366349  18.8567650   8.5514468  17.8083968  19.6398127   8.0504733
  18.6814356  18.4041083   8.0077857  57.7579594   4.8181969  47.8115034
  57.5500059   5.2516568  46.9837952  57.2937250   5.3305840  48.4734488
  52.2581482  79.1858839  52.9164505  51.7364978  78.3896016  53.0166721
  51.6161155  79.8957491  52.9271555  64.2076587  63.2056617  12.5552607
  63.8553142  62.4546503  13.0328214  64.1894436  63.9226030  13.1892133
  23.3090998  62.8498916   0.3060372  23.7009645  63.5505728  -0.2152268
  23.0429293  63.2772116   1.1201509  69.9040985  28.3308744  43.6699152
  70.0631618  28.5445428  42.7505255  69.1157770  28.8238263  43.8974571
  -0.1438189  50.3389831  61.7294936   0.3576230  50.7758511  61.0410623
   0.4308509  50.3604223  62.4946926  40.5883455  19.8028767  31.7195821
  40.6017971  20.7598662  31.7345142  41.4832258  19.5543480  31.4879465
  14.9905109  40.4136249  33.4479396  15.1542377  41.1761066  32.8929321
  15.7190656  39.8212501  33.2621138  14.5936966  60.9830367  59.5266819
  14.5152282  61.5746819  58.7783289  14.9433851  61.5308200  60.2294493
  74.2168724  67.2255229  29.1699696  73.3732270  67.4302339  29.5731926
  74.3062722  66.2777316  29.2696261  31.0293841  40.4740763  28.0666065
  30.9558582  41.3755465  28.3799362  31.5222478  40.5441236  27.2490406
  50.5902576   3.1182620  45.5899811  50.1382065   2.4705915  46.1307240
  51.0323238   2.6013666  44.9164629  78.2748652  51.0930014  45.4478836
  78.5933685  51.9747114  45.6412172  77.3737812  51.0876894  45.7707691
  18.4416103  12.2148025  48.5315895  18.4733665  11.6689575  49.3172598
  18.0759144  11.6425753  47.8570127  82.4924374  22.3628926  35.7701516
  82.7966309  21.9490790  34.9624038  83.0911064  22.0412445  36.4442182
  78.7410307   2.5245742   5.7217200  79.2447329   1.8807486   5.2237161
  77.9203081   2.0779160   5.9294112  10.9974933  52.2815732  12.1529515
  11.3425136  51.3921884  12.2316011  10.3739668  52.3612968  12.8748162
  12.8496313  77.8503340  40.5351210  13.0632782  76.9336649  40.7092047
  13.6948251  78.2995163  40.5461454  54.5871210  33.3809519  53.7753201
  55.1023293  33.2630801  52.9772615  53.8075399  32.8425670  53.6388302
   3.8545870  61.4767896  45.6139517   4.6665573  61.3644754  46.1082411
   3.4478020  60.6103598  45.6214857  16.5008258  80.2573118  42.5646162
  16.2267589  79.3581848  42.7454185  16.5757179  80.2977448  41.6112089
  45.5209684  60.1639043  60.8200216  44.8258829  60.6208812  61.2935829
  46.1465263  60.8512079  60.5908489  28.2272196  37.2124410  13.9312983
  28.1808615  37.0171070  12.9953885  27.6036620  37.9275489  14.0578938
  68.6673594  30.0938678  60.6478357  69.1280699  29.2618060  60.5398893
  68.8810205  30.5902028  59.8577499  34.4003367  14.0110540  28.3229542
  34.5330191  13.8754129  29.2611599  34.3438530  14.9614477  28.2239842
  25.0873613   7.0925993  10.1197243  25.7675076   6.4403480   9.9517941
  24.2726874   6.5903342  10.1362026   4.5379958  25.5411243  19.2798591
   5.2295059  26.1625314  19.5076776   4.7565067  24.7490239  19.7708368
  22.8389597  -0.0098768  27.3191333  22.8649783   0.9285984  27.1325326
  21.9430757  -0.2715730  27.1066833  39.8835111   9.7930431  38.6784983
  39.8202634  10.1586461  39.5608640  40.8114481   9.5837432  38.5719109
  42.7487087  35.4892588  17.2588623  42.7642012  34.6497822  16.7992198
  41.8476439  35.5752707  17.5701773  51.1506939  70.2632391  19.0921736
  51.4612674  71.1296391  19.3550968  51.9116115  69.8495447  18.6846244
  25.1863479  72.7958374  24.6441603  24.3267536  72.5233757  24.9652433
  24.9985551  73.2877194  23.8447762  34.2444515  12.1807516  33.5080147
  33.5602522  12.7772379  33.8118315  34.9012423  12.1951795  34.2041826
  43.8181829  73.3564078  46.6530752  43.6353969  73.0654483  47.5464773
  43.8322639  74.3117808  46.7104864  19.3253898  57.2134315  59.1696072
  20.0840044  56.7718302  58.7878704  19.5530414  57.3258482  60.0925255
  39.6543694  78.3308592   3.9046462  39.9050903  77.5592842   4.4126256
  39.3407369  78.9561978   4.5579560  40.2829742  79.0343161  29.4967484
  40.6633329  79.9125462  29.4802928  39.7886228  78.9720552  28.6794519
  26.0853791  12.1641314  51.8005562  26.0754991  11.2175393  51.6587973
  25.2522254  12.4688601  51.4410734  33.8555598  14.8461330  20.2555251
  33.0620861  15.3106654  20.5216837  33.8559842  14.0493810  20.7860136
  62.8119373  29.2411041  10.3032625  62.7501011  30.1804638  10.4765010
  63.5807562  29.1515088   9.7401249  35.1329088   5.3960677  48.8079707
  35.9887027   5.1442739  49.1550366  34.5082473   4.8663827  49.3034141
  10.3702831  73.8139253  36.0223985   9.9871969  72.9758756  35.7632661
  10.5716753  73.7079429  36.9521523  57.7776670  54.6343327  44.7105217
  57.2674894  54.4611025  45.5016851  57.4395704  54.0121269  44.0664864
  67.1980690  31.4591117  56.3239161  66.2589477  31.4051618  56.5010421
  67.2553228  31.8509890  55.4524891  55.0874710  14.5676970  11.7116046
  55.3414488  15.3167295  11.1724591  55.9051180  14.0938139  11.8636453
  54.8543262  78.3361684  14.5718431  55.3297996  78.5116609  15.3838575
  55.5224800  78.0106964  13.9686215  75.8539915  20.7583857  40.3922415
  75.1594257  21.2996459  40.7675409  76.1821938  20.2444100  41.1300373
  82.6610487  20.5104280  47.0410252  83.2774704  20.9558868  47.6222515
  82.6122400  21.0723615  46.2676716  83.7440395  40.1284838  58.3176804
  84.1063881  41.0082531  58.4222460  82.8284550  40.2733564  58.0790234
  62.0853615  42.6687813   9.9895149  62.3708820  42.4358225   9.1060901
  62.5131941  43.5065842  10.1663744  36.9481850   9.1908133   6.6311765
  36.3872743   9.8522282   7.0363212  37.3734903   8.7531614   7.3686099
  67.8433657   5.9900612  40.3685045  67.3093414   6.5876007  40.8919525
  67.3277760   5.1848328  40.3237200  50.7503605  25.0143766  35.6441998
  50.0410700  25.3389215  35.0893950  50.5524397  24.0860009  35.7673907
  78.2125330  30.2162504  39.9016643  78.9608526  30.6091332  39.4523358
  77.5830364  30.9319854  39.9893403  63.9850569  21.0269690  25.5100918
  63.8549805  20.2336240  24.9905562  64.4117975  20.7217050  26.3106775
   8.1700731  30.5938331   2.4083121   7.6725603  30.8241681   1.6236718
   7.6087738  29.9743036   2.8745301  68.8911915  36.4203644  36.2619948
  68.2756662  36.4244676  35.5289555  68.6527061  37.1896100  36.7793107
  62.3362064   9.7835082  19.5819819  61.7958784   9.0244168  19.3627644
  63.2206106   9.4292653  19.6745491  31.7174816   9.5978194  52.8962231
  31.3414192  10.4603100  53.0720663  32.3339939   9.7469682  52.1793556
  60.2700377  29.4233608   6.2917173  60.5984735  30.3092074   6.4454627
  59.3829823  29.4310331   6.6513032  33.5504770  20.4743767  28.6206269
  34.4448090  20.8091140  28.5546422  33.0264664  21.2374973  28.8641286
  31.5065813  20.2619004  48.4478092  32.4544406  20.1334953  48.4117126
  31.1647606  19.4311643  48.7783718  64.0913582   3.5994950  12.8775358
  63.8173246   2.6930249  13.0169988  64.6374178   3.8041180  13.6366034
  32.5170565  17.6791048  25.7490754  32.1966934  16.9646752  26.2997007
  31.8628502  17.7582955  25.0548291  57.6037359  22.3534727  59.0395927
  57.0428658  21.6767406  59.4186544  58.1808853  22.6156449  59.7568083
  64.5017433  22.6011014  54.4862652  64.4374466  23.4965658  54.1542435
  63.9096117  22.5813222  55.2380800  66.4339399  21.8858075  31.9316983
  66.2528753  22.7295184  32.3459435  66.3897991  21.2527633  32.6483154
  68.2488251  34.9128222  14.8503292  69.0199518  34.5324469  15.2709305
  67.7834749  34.1627526  14.4800866   6.3478017  34.7179532  29.8047304
   6.6868234  35.1042986  30.6122136   6.3291288  35.4440165  29.1812587
  18.5504305  13.7373722  34.7311664  18.9938498  12.9893160  35.1311970
  17.6606417  13.4268236  34.5636320  46.1858606  16.0883451  16.5890586
  46.4220715  16.0663676  15.6617212  45.7900667  15.2328944  16.7557418
  52.3240757  62.4128186  13.0718386  52.5119686  61.4956080  13.2709634
  52.2954368  62.8424953  13.9267004  66.3380623   0.3547096  43.6992359
  66.7895126   0.2579576  42.8607464  66.6693163  -0.3665932  44.2342377
   7.4012876  26.8482733  13.2321560   6.9587732  27.5530005  12.7591062
   7.8021360  27.2807693  13.9861441  57.0286942  45.9753704  66.2356520
  56.4213324  45.8870602  65.5011177  56.9921970  46.9036388  66.4663458
  66.4054251  38.7571859  10.2963305  65.8318710  38.0265594  10.5275238
  66.9205189  38.4328580   9.5576030  68.7329674  27.0378852  50.1135302
  69.0040302  27.4064898  50.9542990  69.2847776  27.4806881  49.4688129
  43.5231256  11.0896039  25.0133848  42.7223063  10.7556784  25.4176259
  43.2187748  11.5876698  24.2547441  61.5331625  74.0841873  53.7244038
  61.3408231  73.1470068  53.7549405  61.2327980  74.3622668  52.8591387
   0.7834077  69.0640496  50.2074385   0.7299852  69.8931264  50.6828451
   1.3313889  69.2587899  49.4471598  46.2389946  54.4046116  28.9112067
  45.3984308  54.6529961  28.5265160  46.8827534  54.6103144  28.2333469
  70.8825397  17.4400711  59.2967176  70.1450109  17.1278667  58.7724924
  71.0185575  18.3417523  59.0056849  71.4077473  22.6397943  52.5764465
  72.2247696  22.4411941  52.1189928  70.7335615  22.5796127  51.8996239
  18.0107069  73.5910892   9.2377335  18.6341953  73.9940332   9.8419917
  17.2419548  73.4038286   9.7764194   7.6874780  19.0177901  30.0241248
   7.7013253  19.5967896  29.2620198   8.0718993  19.5396907  30.7284467
  79.7518038  58.1853767  69.2719532  79.9744486  58.5432871  68.4125574
  80.3281711  58.6475988  69.8805438  58.5499191  24.1202164   3.3328804
  58.3043623  23.4431005   3.9633164  58.4622955  24.9413109   3.8169846
  84.5331478  13.0112767  47.9315948  84.8478889  13.7154293  48.4984636
  85.3047180  12.4668479  47.7750492   1.0506368  21.7265534  28.8557076
   0.1289392  21.4716840  28.8138843   1.5189958  20.9997129  28.4451270
  68.9532471  24.2960501  41.1151409  69.8670578  24.2852521  40.8304167
  68.9500570  24.8597765  41.8887281  71.6487408  45.4818010  52.9169655
  71.6091728  45.2258873  53.8384724  72.1476030  46.2987280  52.9164696
  59.9875259   6.7849338  36.7539978  59.3319273   7.4088162  36.4422417
  59.9336147   6.0534650  36.1389542  48.8162493  40.8928479  68.4588040
  49.2975138  40.9429170  69.2847039  49.4039868  41.2878635  67.8147851
   2.6631761  15.1324177  17.2695506   2.6777006  14.5355213  16.5213966
   3.1884790  15.8816051  16.9884610  40.1184368  72.8318523  41.9556618
  40.9545374  73.0382149  42.3734951  40.0814962  73.4113293  41.1946917
  35.9655261  16.3590276  35.5675745  36.8468118  16.0338223  35.3837037
  35.7826710  16.9713855  34.8549628   4.6789766   9.6033120  18.5623181
   4.6892000   8.6560690  18.4249938   4.2484975   9.9537474  17.7824986
  81.0846615  52.6228094  40.9374285  81.6815472  52.0416880  40.4659891
  80.7812691  53.2433176  40.2747393  77.4161695  35.9631868  67.2032891
  77.6983284  35.0542630  67.3056431  76.4936756  35.9578068  67.4586601
  68.2659899  81.4516641  30.7523203  67.3836570  81.0950706  30.8550930
  68.8393807  80.7846224  31.1298251  81.6951275  21.1633039  49.8147631
  80.8784580  21.4145136  50.2462482  81.4458561  21.0039210  48.9044380
  83.1081200  27.2691265   6.3207419  83.9662361  26.9264559   6.5706285
  83.2826949  27.8176383   5.5559619  66.4509010  24.1536713  27.2493887
  65.9884119  23.9297605  26.4418030  65.8974028  24.8133492  27.6673508
  64.8159027  37.1249294  35.9023309  65.0067234  36.3719559  35.3430009
  65.6207514  37.2622538  36.4019251  30.8323884  40.2509642  10.2057338
  30.9491086  41.1952305  10.3104520  31.6372108  39.8697639  10.5567038
  32.6954126  34.9574471  15.6956208  32.1266031  35.1711202  16.4352369
  32.6512718  34.0037131  15.6272316  42.6714134   6.3850141  17.0584536
  42.7512503   5.6818223  17.7029526  42.6077414   7.1837491  17.5820947
  23.0033016  74.6853073  70.3902687  23.2046603  75.6203754  70.4268286
  23.5148048  74.3021186  71.1028394  80.3666401  10.7178891  33.3361292
  80.9374332  10.9868884  32.6163602  79.6954346  11.3990963  33.3769488
  52.1901941   4.4111192  18.5196221  51.7533636   5.0587553  19.0727735
  51.5455008   3.7113100  18.4153783  27.0519637  60.8422442  69.2725532
  27.7416133  61.4124735  68.9327757  26.2411403  61.3247235  69.1112681
  47.7335930  66.7246806  26.1606622  47.8338194  67.6009666  25.7887626
  48.4141111  66.6699587  26.8315816  81.4496828   2.9204719   7.2024377
  81.7391444   2.2220247   6.6154035  81.1092640   3.5983341   6.6186126
  41.9038773   0.6743138  63.7387800  42.6960516   0.2554965  64.0753508
  41.9253874   1.5578374  64.1064119  75.6593775  42.1428923  64.7876780
  74.9804710  41.7292237  65.3207813  76.3554930  42.3556973  65.4092602
  51.8245220  79.4951064  18.2130861  51.4785289  79.5965486  19.0997839
  52.3197174  80.2990120  18.0557883  56.4926577  12.9859722  23.0631804
  56.5884781  12.1288967  23.4784794  57.3122931  13.1136656  22.5855589
  53.4560633   2.4819736  26.0992265  52.9033852   2.0796788  26.7692518
  53.7807751   3.2848182  26.5069437  32.2500634  35.8540750   7.1341634
  33.1554008  35.5449581   7.1018410  32.0863461  36.2076640   6.2598622
  54.1493034  36.8704629  59.5741987  54.7001457  36.3064003  60.1170111
  54.1225147  37.7035809  60.0447655  52.5339842  21.1047626  46.2286472
  53.2976484  21.6117764  45.9529924  52.6238966  21.0338235  47.1789694
  43.7165546  30.1484919   7.0165282  43.6860180  29.7880435   7.9027432
  44.5445442  29.8301768   6.6568911  58.8273430  80.8790523  15.5367506
  57.9514312  81.0838244  15.2095068  59.1311931  80.1645591  14.9769282
  77.0689583  14.3590701  37.3649287  77.8683472  14.8175204  37.6238298
  76.8947887  14.6653104  36.4749193  53.4213686  20.6730509  63.0085611
  52.4777842  20.6641960  62.8479338  53.5361958  21.2950420  63.7270117
  48.0777693  22.5904894  15.1524222  47.6411724  21.9725537  15.7387400
  48.8852692  22.1460342  14.8942745   0.7654810  77.9266550  40.5646276
  -0.1648260  77.7688949  40.4037762   0.7802009  78.6140241  41.2306166
  54.1647530   5.4562598  51.5385103  53.6511421   6.0837311  52.0471525
  53.5342693   4.7837260  51.2807894  11.5682602  76.6741346   8.6986166
  12.4311399  76.7838269   8.2990670  11.4006567  75.7328742   8.6520368
  39.6147275  22.5656462  33.7520695  40.0915527  22.3440003  34.5519090
  38.8579726  21.9795179  33.7541509  69.7859001   9.0896577  32.8713417
  70.1994753   9.2587215  32.0248127  69.3955183   9.9278551  33.1188440
  76.0886478  41.2181711  18.4743679  75.6195879  41.9933605  18.1656766
  76.1563015  40.6560278  17.7025843  69.7189140  12.5843334  23.5978103
  70.2483082  12.9273498  24.3177485  69.4182920  13.3630776  23.1293893
  49.3860817  78.1322064  42.4267149  48.5936069  77.9920148  42.9449463
  49.6900034  79.0024971  42.6845074  75.4082537  13.0291224  15.3995335
  75.8078241  13.5399723  14.6955383  75.0093317  12.2807205  14.9556983
  26.8015575  14.4158769  48.2780981  27.3556280  14.8460805  48.9293766
  26.0302472  14.1328454  48.7692213  72.7380371  38.6891413  43.6167288
  72.6601982  37.9386473  44.2057371  72.2302723  38.4409714  42.8441858
  79.9501038   6.0746378  29.9479818  79.7208881   5.1488519  29.8666668
  79.3253469   6.4209986  30.5851221  53.5357332  14.5951307   8.8272983
  54.0979576  15.1593530   9.3581361  53.8781548  13.7128258   8.9705408
  52.5628519  25.9039164  45.1796770  52.5929880  26.1929321  44.2676497
  53.2507896  25.2414560  45.2438593  10.3314519  61.0347271  35.8557916
  10.3819585  61.3608742  36.7542934  11.1685682  60.5927181  35.7140279
  71.4429855  19.7482479  18.5434783  70.6021643  19.3168390  18.6955798
  72.0962286  19.0923190  18.7869155  65.8894825  17.8140998  47.2155905
  65.2628613  17.1810985  47.5661421  66.6202021  17.2802210  46.9037342
  26.5642023  47.2458506  32.9565358  26.7942929  48.1466675  33.1841660
  27.0487404  47.0714808  32.1496582  77.7323055  22.5471616  37.4421287
  78.0842686  23.4372807  37.4484253  78.5047817  21.9845343  37.3877525
  61.4375067  22.2877169  16.3457239  61.8500328  23.0289268  16.7891932
  61.2999725  22.5917292  15.4485655  61.5225172   7.4941885  61.7749977
  61.0782480   6.6463906  61.7848396  62.4545193   7.2761309  61.7677641
  71.1999273  32.4243546  27.3392940  70.6261873  33.1878185  27.4039149
  71.9253778  32.6190209  27.9326391  40.6526279  10.0906551  41.3554859
  40.0914001  10.4599643  42.0372915  41.2797976  10.7864475  41.1585999
   7.7725625  36.4120913  60.2294111   7.7887941  35.7006621  60.8695984
   8.5347391  36.2511921  59.6731567  57.5585747  57.3915720  14.1960943
  56.6448116  57.3488903  14.4779611  57.5871134  58.1294060  13.5869777
  50.0757503  37.1520303  64.6800302  49.9344825  36.7215480  63.8368444
  49.2718410  36.9848128  65.1719789  30.4267358  81.8187971  57.1456766
  29.6719312  81.4878129  57.6324511  30.3746843  81.3807943  56.2961626
  34.0807914  59.4815670   8.6791062  33.5184574  60.2281009   8.8857418
  33.5527229  58.9387309   8.0936980  67.2582674  24.0692449  46.5577364
  66.6912794  24.8333335  46.4531994  66.7369556  23.4527087  47.0718861
  66.9536066  37.6240134  37.6353741  67.5427294  37.7226639  38.3833289
  66.6213131  38.5070825  37.4741197  68.2846737   5.5220950  37.5261545
  67.4494362   5.5918133  37.0638227  68.0426979   5.4642171  38.4504557
  51.2360929  63.1981738  64.8421858  50.7750510  64.0306480  64.9454085
  51.3692139  62.8855426  65.7370452  18.2708538  11.3164783  25.0279760
  18.2058585  10.8688331  24.1844010  17.4347162  11.7728400  25.1220012
  17.9243588  18.9029109  19.2802215  17.5672042  18.0339777  19.0968418
  18.0192387  19.3095303  18.4188914  40.1750565  27.2948360  11.7758751
  39.2567039  27.0691848  11.6277540  40.5789137  26.4768767  12.0658278
   5.2005076  74.3030505   3.1071395   5.0629377  75.0696610   3.6635706
   4.7573304  74.5198386   2.2868770  82.6748060  80.4591364  55.0787513
  83.1678937  80.1578373  54.3156592  83.2889341  81.0174507  55.5555777
  77.7591848   9.7089130   7.9799783  78.2478428  10.5264688   8.0750722
  78.2932520   9.1779983   7.3891056  48.2298565  81.6602682   7.3854429
  48.6154127  81.1545949   8.1008953  47.9637003  82.4852054   7.7914876
  42.7681446  15.6229675  47.6177025  42.1923208  15.0979066  48.1735516
  43.1453323  16.2732410  48.2102442  51.1298800  27.5892663  40.6073618
  51.2241602  28.4934640  40.3077507  50.2005863  27.5030613  40.8199835
  51.3964176  76.8256324  32.4298668  52.0235538  77.2149830  33.0392408
  51.2891960  77.4839850  31.7433500  24.4165063  14.8820412  13.9985764
  23.6547685  14.5322788  13.5363472  24.3695474  14.4883871  14.8698187
  25.5660486  75.1601677  17.0434964  26.3761234  75.5252587  16.6875207
  24.9374294  75.8804380  16.9957328  32.3787237  34.3137121  27.0024252
  32.1517206  35.1352239  27.4381065  31.7650152  34.2533088  26.2703466
  78.8311625  14.2042530  54.6636724  79.0541887  13.6146569  53.9433479
  78.7559748  13.6318600  55.4271841  53.5557461   0.7321987   0.0084445
  53.6306906  -0.0176810   0.5986101  52.7915907   0.5351946  -0.5333006
  25.9452605  14.4216430  41.1580992  26.1617637  13.6143672  41.6246462
  26.3565969  15.1145387  41.6747522  57.6767921  73.3491158  22.4100351
  58.2683658  72.7844351  21.9126415  58.2428264  74.0332531  22.7675033
  60.0242567   8.8154906  17.6836419  59.8395014   8.7043178  16.7510438
  59.3738365   9.4509655  17.9825711  13.9459609  76.0694153  62.6341079
  13.1019210  75.6668289  62.4297873  13.8044643  77.0058949  62.4954979
   9.8035324  22.7809572  25.1167107   9.2720121  23.0436826  25.8681703
  10.7002664  23.0011845  25.3689027  48.9271879  10.1176071  36.5351462
  49.1744947  10.2396965  37.4517512  49.4165277   9.3437219  36.2560773
  84.3255473  63.1152586   6.3134225  85.0162077  63.3706216   5.7018598
  84.2377615  62.1695665   6.1942800  86.3777351  17.4435949  15.7474208
  86.7168045  18.0799925  16.3769150  85.6596661  17.0099235  16.2084305
  74.9957800  36.0905385  27.6221013  75.8371687  36.5400958  27.7008176
  74.3523121  36.7962170  27.5573087   4.3385721  26.8426228  32.0830035
   4.7065378  27.0660138  32.9379439   4.3814874  27.6579309  31.5833378
  24.7861981  47.0658731  22.8580117  24.6339679  46.3509464  23.4760237
  23.9177608  47.4373055  22.7028131  64.8306513  47.0666409  51.2874222
  64.7426605  46.4223862  50.5849791  65.7315254  46.9647074  51.5944433
  77.9818869  58.9049911  18.8491321  78.1637621  57.9713202  18.7423050
  77.0985746  59.0186119  18.4982932  70.6912136   6.0668951  62.1366739
  70.3519869   6.9582349  62.0550156  70.0694132   5.6260836  62.7157068
   9.1688775  74.7536810  66.0323663   9.0852069  75.6971390  65.8940954
  10.1123952  74.6026452  66.0889135  65.8855915  39.9401283  29.2520142
  66.3418436  40.7719994  29.3787503  66.5432024  39.3630028  28.8637996
  26.5769577  12.4573537  56.9224123  26.1637258  12.6400443  57.7662711
  25.8528041  12.4558564  56.2964456  84.2243671  52.8452682  15.6621683
  83.3039379  52.9795313  15.4363024  84.6454239  53.6802053  15.4576671
  77.5860786  16.5890777  28.4713268  77.3620653  15.9685612  27.7777767
  77.4261379  16.1084843  29.2835331  78.5361242  48.8038874  18.6826396
  79.2470074  48.5621786  19.2763162  77.8857994  48.1102133  18.7927675
  16.6178823  68.1712448  28.9590931  16.5885854  67.3903631  28.4062839
  15.9969545  68.7758302  28.5526991  75.3368521  34.5061731  43.5796022
  75.2113867  35.0423956  42.7966881  76.2776995  34.5484924  43.7506437
  60.5367947  37.5276256  52.1337795  60.9631491  36.7610741  51.7505693
  61.2575817  38.1182742  52.3524809  50.9703922  71.1658012  67.8171062
  51.5302944  70.5881571  68.3358288  51.3176632  72.0432602  67.9774284
  55.0320196  26.3127851   5.9040350  54.5448303  26.9514847   6.4245570
  54.4894648  26.1723900   5.1280493  76.6223812  44.9505138  25.3113842
  76.4988518  45.8991480  25.3439498  76.7749500  44.7604799  24.3857265
  80.4825497  52.2932911  21.7726183  81.0369968  52.9522943  22.1903968
  80.5785751  51.5158653  22.3227286  82.2147274  45.1452780  69.3934774
  82.7125931  44.8027468  70.1357937  82.8210831  45.0945711  68.6545610
   7.7138257  35.1057506  22.4181175   8.0512929  35.1060128  21.5223813
   6.8209005  35.4411077  22.3377538  58.8605690  41.7818975  54.8776150
  58.2867002  42.5343323  54.7335863  59.7458601  42.1377420  54.8010349
  19.0010953  76.0059977  21.4812088  19.1829038  76.9456577  21.4665627
  18.6509920  75.8161926  20.6107879  62.7763796  43.1151056  17.8627586
  62.5781822  44.0027952  17.5645030  62.4991703  43.1027460  18.7788558
  70.4157257  51.5438223  22.1564484  71.1219597  51.4768362  21.5138149
  70.4708433  50.7307339  22.6585221  80.0751972  31.0289741  37.8433204
  80.6165981  30.2648616  37.6451921  80.0344467  31.5138674  37.0190334
  61.8126059  52.1817541   6.8483675  61.1118174  51.7284298   6.3797212
  62.6158524  51.8948793   6.4139324  22.6352430   6.5667367  40.1142836
  23.3701253   7.1798474  40.0975609  21.8579030   7.1232373  40.0665903
  62.8463602   7.8154045  26.9094396  63.4763145   8.4257823  27.2926259
  62.1398497   8.3732480  26.5840364  10.4465414  37.0082068  70.5279350
   9.9405504  36.2034631  70.6401396  10.1552225  37.3589134  69.6862888
  67.0768404  13.8171935  23.6917186  67.0166159  12.8636551  23.6336613
  66.4149475  14.1367650  23.0785251  63.7151623  33.5131574  44.0104246
  62.8250265  33.5948443  43.6680460  63.7342739  32.6503682  44.4245005
  80.2776241   3.6228320  51.3123035  80.1398754   2.8721052  50.7346630
  80.1249504   3.2789916  52.1924686  72.3600531  48.9852142  21.6874623
  71.6931152  48.6671782  21.0789609  72.2208738  48.4734011  22.4842739
  66.0026979  60.6007385  11.4613700  65.5075502  60.1801825  10.7583797
  65.3571558  60.7518291  12.1517885   0.8380628   9.6285111  39.8556352
   0.1570344   9.6927494  39.1860747   1.6520238   9.5334238  39.3610168
  21.6031862  28.8044548  54.7048283  21.7461133  28.6912107  55.6444979
  22.0077730  28.0338550  54.3064404  54.9717712  44.9730253   6.9860739
  54.2811918  45.6238127   7.1118015  55.2545786  45.0959063   6.0798997
  38.4068037  12.3845577  37.4593663  38.6730314  13.2740223  37.6921916
  38.0664564  12.0153642  38.2742882  74.8762131  16.2527585  22.3951960
  75.2597237  16.3450754  21.5230560  74.5548201  15.3515065  22.4213409
  82.1432209  74.5417023  50.4524612  82.0446491  73.5988617  50.3199244
  83.0590725  74.7192383  50.2381420  65.9436750  79.3193340  44.5408154
  66.7706347  79.5653105  44.9553823  65.3410339  79.1816187  45.2716303
  15.5585885  65.6290054  43.4494829  15.8399702  64.8263788  43.0103350
  15.8302236  66.3324547  42.8599072  70.8228064  60.1347208  36.9474697
  71.3373899  59.5879507  36.3537741  71.4385843  60.3860998  37.6358438
   7.3579908   9.5297867  16.5701306   6.5312505   9.7218525  16.1275959
   7.1670557   8.7648153  17.1128953  36.6246725  26.8126988  20.8235312
  36.9715238  26.6495776  21.7006397  35.7572008  27.1879172  20.9749675
  84.4797802  14.1655910  18.5472524  83.9118385  13.3960330  18.5854042
  85.3491497  13.8329625  18.7703872  67.5714207  40.9183121  62.8913116
  66.7603970  41.4248276  62.9349947  68.2558632  41.5403271  63.1380272
  81.2622643   8.7551576  51.5996075  80.4157925   8.5586751  52.0010138
  81.7012501   7.9067266  51.5388823   4.5599485   6.9407214  30.9610677
   4.5232750   6.3029707  30.2482176   3.6928058   6.8993700  31.3642883
  19.6919059  53.1054099  69.5003925  20.0218725  53.9671166  69.2458051
  18.7408542  53.1804509  69.4222571   5.1980043   0.2654826  16.9120121
   5.4065347  -0.6658259  16.9855773   5.4487062   0.4971467  16.0177433
  41.6805076   5.8876535  55.7233326  41.0313701   6.0090753  56.4162306
  42.1518564   6.7200156  55.6881837  72.6224041  20.1636600  25.1800609
  72.8587246  19.5635641  24.4727635  73.3589506  20.7726455  25.2336049
  27.2991180  78.8465013  40.9135914  27.7787399  78.2580145  40.3306007
  27.6422786  78.6517929  41.7856932  75.0925303  58.9091444  43.1831121
  75.1981306  59.7271729  42.6974058  74.8842049  58.2579947  42.5131607
  33.6123848   8.1206390  69.4640030  34.0940714   8.7335893  70.0194308
  32.9910040   8.6689731  68.9849941  70.8283138  50.8314705   3.8562030
  69.8868179  50.7218266   3.9896095  70.9923029  51.7537451   4.0530455
   2.7645994  42.9258776  64.8043633   3.0242181  42.4791908  63.9985704
   2.6466108  42.2212982  65.4414463  67.4027824  67.9032707  34.6925545
  67.1313286  68.6433697  35.2355075  67.8329992  67.3039007  35.3023911
  69.0417074  60.8499201  55.4071884  68.9579033  60.7481165  54.4591145
  68.1841348  60.6005521  55.7515900  16.8793868  36.1140405  53.4696834
  16.4380216  36.9604339  53.5407309  17.7173423  36.2428339  53.9140646
  53.9824676  75.6261550   9.0279472  53.7123680  75.5288153   9.9410754
  53.8928318  74.7484069   8.6567926  65.4091692  48.2446289  26.2928462
  66.0232687  48.3107042  27.0241141  65.5211401  49.0642357  25.8112478
  19.1100526  32.9432964   8.1983930  18.7912107  32.3046637   8.8361388
  18.4816766  33.6637735   8.2462251  79.2131637  57.5377543  65.9736050
  78.5609506  57.5286443  65.2730547  79.5899795  58.4169681  65.9386126
  24.9049402  10.3708351  37.3072672  25.5282808   9.6446776  37.2880507
  25.3292966  11.0365009  37.8486013  26.3266827   3.3148925   5.6090768
  26.3689066   3.6716382   4.7218450  26.6684700   4.0149705   6.1652310
  62.8907347  57.5355959  29.9991393  63.0236816  57.5938606  29.0530086
  61.9450521  57.4291563  30.1020169  82.2231579  66.2974024   8.8009280
  82.3952675  66.7534637   9.6247113  81.3077545  66.0249949   8.8646907
  65.0541496  41.1088753   9.6602410  65.4311609  40.2585793   9.8862767
  64.1355419  40.9202099   9.4684130  19.0417934  58.9103428  24.1427262
  19.6213985  58.2752732  24.5634111  18.2565952  58.9173333  24.6901258
  69.8097181  42.3603106  27.5817370  70.6144094  42.1463823  27.1095777
  70.1100302  42.7593946  28.3982992  50.8439732  71.4895725  37.3563981
  51.6728735  71.9651270  37.3015761  50.4749060  71.7481279  38.2008934
  74.4423866  38.8393164  32.1258044  75.3158426  38.4588647  32.0332861
  74.3787432  39.0704560  33.0524945  55.7602691  11.0132619  69.1975373
  56.5986347  11.4349338  69.3861337  55.2515506  11.1216041  70.0010914
  62.8226662  31.6011000  40.0887346  61.9593048  31.5238547  39.6826911
  62.7228546  31.1846709  40.9448051   4.6638036  80.8524036  50.5677271
   4.2123533  81.4732647  49.9959326   5.5526948  80.8053207  50.2157450
  57.8360653   7.3971277  52.7965307  57.6411819   8.0915773  52.1672535
  58.7449265   7.1577179  52.6151896  78.4269238  61.2111235   7.1195102
  77.7495813  61.0994625   6.4524484  78.5847139  62.1548843   7.1449918
  84.7120546  72.0761402  70.1405070  84.0929292  71.7381246  70.7875493
  84.7951578  71.3717516  69.4977309  83.6867332  42.7443218  10.0091469
  84.5896912  42.4440956   9.9053794  83.6695004  43.6025143   9.5855451
  60.6960535  76.8833971  24.0994930  60.2741289  76.4434624  24.8375082
  59.9715996  77.1494389  23.5332632   7.5245119  69.4776630  34.4426680
   7.8310609  69.9637938  33.6772037   7.9925752  68.6437893  34.4000411
  81.8340015  29.0071464  37.2520137  81.9843388  28.1520224  36.8490314
  82.2290611  28.9352298  38.1209135  51.5241241  12.0275021  46.0195971
  51.3366032  12.1527386  46.9498587  51.1106539  11.1920106  45.8022785
  73.7197876  67.9721260  35.5435920  74.2004824  67.3485041  36.0878897
  72.8397036  67.6019335  35.4754901  67.8882408  52.7626705   8.0459338
  68.3310986  52.9514503   8.8732612  68.5201073  53.0155993   7.3728788
  56.0694694  79.1068368  31.0539174  55.1248645  78.9580970  31.0111690
  56.3332176  79.2350595  30.1427484  74.1404533  80.4832363  13.8747656
  74.7941351  80.3636265  13.1858361  74.6229076  80.3434563  14.6895850
  85.5157185  56.9410324  32.4540901  85.3438473  56.2261105  33.0669379
  86.3266373  57.3386097  32.7712154  67.4211216  24.0804124  14.9082458
  68.1807709  23.5371661  15.1181245  67.5799370  24.3784928  14.0126133
  70.8609867  24.3196535  14.6552920  69.9844503  24.6853971  14.5363307
  71.4520836  25.0176048  14.3729794  26.9669081  65.6222013  19.5347627
  27.5911547  65.8612899  20.2198728  27.4529291  65.7350854  18.7178929
  69.3686008  48.0514622  17.3627210  69.2990732  48.3836842  16.4677203
  70.2941799  48.1529093  17.5846326  72.3342514  41.3115883  43.2304764
  72.6094198  40.4489565  43.5409307  72.9610968  41.5290070  42.5405312
  26.6162038  27.1075487  13.7612522  26.0210443  26.3995194  13.5148716
  26.8501306  26.9184995  14.6699715  61.9632673  77.1644306  16.2097502
  61.1086130  77.0222187  15.8028436  62.5903416  77.0521927  15.4953170
  65.3983259  29.0138960   1.0118989  66.0302019  28.9442611   1.7275211
  64.5590544  29.1635919   1.4471547  28.6507535  54.6665107  11.7697775
  28.9217496  55.0808107  12.5890148  28.7099576  55.3644477  11.1173892
  85.6135916  71.6913425  25.7625127  86.3377785  71.6569137  25.1375318
  85.4906534  72.6247256  25.9354687  55.1381493  60.2059793  26.8983412
  55.6210232  59.4003296  26.7139745  55.7038403  60.6923532  27.4980617
  70.2494049  62.1862984  26.3342834  70.4323387  61.2517023  26.4307332
  70.2606344  62.5261402  27.2290540   4.0837980  68.5092592  17.3049378
   4.1241289  69.0245819  18.1105757   3.1745744  68.2143116  17.2545397
  10.7370687  50.1988125  15.9882712  10.1167512  49.7989130  16.5977919
  11.1887956  49.4572973  15.5853701  76.5131807  17.6444876  45.0905275
  76.2950516  17.7259529  46.0189724  76.0073757  18.3362436  44.6640682
   4.3199373  50.3113031  12.7126479   4.0489603  51.1260462  12.2895682
   3.6032033  49.7011757  12.5386477  69.0506554  49.5781040  35.2485394
  69.7557783  49.9825573  35.7539678  69.4193125  49.4630432  34.3727064
   9.9076677  39.0772438  58.6294842  10.0244546  39.6450448  57.8677750
   9.1618848  38.5219336  58.4021759  62.3086739  16.4584732  66.3260889
  61.8559599  15.9525597  65.6513023  63.1335163  16.7196548  65.9166336
   3.7066770  43.7835217  42.9626179   4.1353918  43.3044243  43.6717749
   4.3697191  44.4023323  42.6565552  27.1607970  70.1805337  70.6017470
  27.4246787  69.8747499  71.4695571  27.3176765  69.4320233  70.0261131
  60.5998421  68.7126064  43.9269876  60.8739805  69.0067482  44.7956419
  60.4201841  67.7787542  44.0359735  56.8099070  24.9036503  13.6640346
  56.7062521  25.6150007  13.0319989  55.9811401  24.4262743  13.6254048
   2.8827596  35.7829165   5.8212692   2.0737100  35.2981210   5.6580162
   3.2941461  35.8591914   4.9603534  51.0343361  30.6586218  17.5501192
  50.7514143  31.5059662  17.8939116  51.9262075  30.5516720  17.8808129
  81.8849182  61.1175823  13.3842087  82.0066261  60.5819845  14.1681433
  82.1920586  61.9877481  13.6385846   1.9917798  30.8929396  15.3227425
   1.1003709  30.5624461  15.2114260   1.9862771  31.3115454  16.1835384
  76.0452271  44.0908384  36.0406423  76.4313984  44.6909857  35.4027343
  75.1222563  44.0388155  35.7923532  60.8504295  11.7685580  15.7143176
  61.1701393  11.6376722  16.6070032  60.8908033  10.8992982  15.3155851
  74.6149206  39.5844555  24.1570473  74.5937872  40.4415989  24.5825982
  74.4655657  39.7732568  23.2306147  63.3596659   2.1805966  35.4589891
  62.5640059   2.6738954  35.6585360  63.3867121   2.1462740  34.5027876
  71.8583082  57.0988805  68.4319106  72.4151872  57.8366096  68.6806626
  71.0290121  57.2626944  68.8809745  80.9618473  51.6982317  35.4613662
  80.3263760  51.0458803  35.7560563  80.5133915  52.1692562  34.7590446
   1.9375657  55.3294165  55.0063400   2.6263809  54.6795340  55.1456897
   2.3678970  56.0346432  54.5229141  86.0096741  30.9828186  46.4578772
  86.7848682  30.7150793  46.9514561  85.8833599  31.9026375  46.6907167
  74.1639090  47.2720194   4.1224173  73.9172459  48.1662178   3.8862062
  74.8265553  47.0277452   3.4763047  11.1772276   2.6128710  64.0905428
  11.3782001   3.1496371  63.3239126  11.9775415   2.6353777  64.6151590
  25.5808664  57.5084829   1.3941805  25.0355459  57.1116209   0.7149488
  24.9561334  57.8460932   2.0360206  85.8652973  30.8506250  25.9431553
  85.2935219  31.2873411  26.5744877  86.3938618  30.2530599  26.4720821
  28.3061719  54.1320086  29.0852189  29.1620374  53.7262630  29.2234302
  28.3511949  54.9567747  29.5689201  18.9160371  67.0279121  17.8915679
  19.3820978  66.7616940  18.6841273  18.4088445  66.2557173  17.6411724
  65.1812983  41.2137508  18.4216022  65.0515079  40.5300713  19.0788460
  64.4473028  41.8140793  18.5523117  34.4533611  30.7993190   0.3552373
  34.8151089  31.6664760   0.1724561  34.1148211  30.4984205  -0.4880158
  67.8342581  14.4619524  56.2347794  67.7354717  15.4122651  56.1766434
  67.7953959  14.1611290  55.3269100  84.1037560  42.8823471  58.5543871
  83.7978172  43.3253956  59.3458033  84.9778938  42.5645638  58.7805223
  16.9481874  24.0870476  68.1629133  17.5576997  23.5705900  67.6356649
  17.4016023  24.9173665  68.3085775  56.7866850  64.4846535   7.8794909
  56.7384052  63.8389683   7.1745169  56.3758755  64.0527296   8.6284304
  61.0207129  57.2720432  36.7655325  60.7778597  56.4681911  36.3061070
  60.6036043  57.9710770  36.2619352  80.4430389   6.2810552  43.5410166
  81.1135387   5.6734890  43.8533163  80.8705616   6.7681009  42.8365707
  84.1635609  63.0865335  34.0359855  84.2347717  62.8833151  34.9686503
  84.9515724  62.7068424  33.6472702  59.7697973  14.4360077  57.5093031
  59.8591375  13.5149276  57.2646332  59.9011946  14.9150074  56.6910553
  60.2043152  17.6610875  52.3817015  61.0936546  17.4045384  52.6256037
  59.8540545  18.0852556  53.1650496  39.8457241  14.2895576  67.4063848
  39.2656517  13.7367269  66.8828143  39.4635439  14.2742606  68.2838441
  15.9482789  34.2461777  18.8174367  16.8959356  34.2168069  18.9490199
  15.7588411  35.1685238  18.6453331   8.8226629  50.2183867  27.4855685
   8.4706331  49.3813324  27.7883029   8.0495286  50.7597923  27.3262310
  70.3169155  47.5740671  20.5122995  70.5633640  47.0035267  19.7843039
  69.4799185  47.9543924  20.2458024  50.0216961  65.8043098  39.8393869
  49.5324373  65.7971478  40.6620693  49.3493986  65.8729219  39.1614914
  53.4447193  72.2294926  26.8129802  53.9872741  72.9359709  26.4626193
  52.8401279  72.0167177  26.1020470  58.4089279  16.1537802  47.4231005
  58.1779146  16.4137709  48.3148813  59.3525600  15.9966576  47.4562788
  60.0433874  11.5635943  38.6203861  60.0434971  11.3542652  39.5544171
  60.6071472  10.8982575  38.2257533   8.3037401  70.2564096  22.8828955
   9.1252351  69.7795439  23.0010915   8.1959844  70.3162622  21.9336653
   5.9449697  39.3914914  12.5599027   5.9009386  39.8003554  13.4242654
   6.8140722  39.6205306  12.2305965  83.7395668  18.5980773  53.4839344
  83.6193562  17.7119529  53.1425142  82.8562450  18.8896549  53.7096691
   9.7280813  34.9207878  38.7763977   9.2182374  35.3692126  38.1017065
  10.0623918  35.6251335  39.3317056  84.4094181  42.0161343  27.3306298
  84.1712284  42.6942062  27.9628539  84.3927002  41.2024164  27.8344345
  77.0662022  30.6511307  23.4340143  78.0221653  30.6247211  23.4748459
  76.7800522  30.0986743  24.1614342   2.7636743  44.6678495   0.4543669
   1.8661428  44.4246912   0.2273634   3.0547929  43.9786911   1.0514776
  74.1197348  19.3876696  44.6779728  73.3422899  19.4911194  44.1292381
  73.8172150  19.5918071  45.5628681  76.0531998  75.2309704  14.8643529
  75.5164433  74.8809385  15.5754077  76.9499731  75.1839828  15.1957488
  63.6979342  44.7092438  31.0930729  63.1990004  45.4446650  30.7374763
  63.0993557  43.9643860  31.0371876  67.1292448  34.8256660  29.1384530
  67.4232006  33.9326382  28.9586687  66.5138054  35.0220108  28.4321117
  66.2500715  24.7909164  18.0036426  65.7467270  24.0851831  17.5976646
  66.4470816  25.3896570  17.2832751  52.5236607  26.7753148  22.4184465
  52.2900534  26.9506335  23.3299971  52.7100515  25.8367252  22.3952246
  71.4768696  45.9084082  18.3948731  71.4460087  45.7513094  17.4511564
  72.0088720  45.1912975  18.7397838  62.8475904  59.8533297  41.6044855
  63.0687046  58.9767265  41.9189739  62.2363472  59.7020531  40.8835649
  60.5986738  56.3736868  22.0927906  59.7922230  55.9136868  21.8598366
  61.2878513  55.8993673  21.6277266  57.1335411  47.5402117  10.2901685
  56.3525867  48.0612803  10.4767966  57.7393150  48.1558990   9.8776186
   4.8171354  51.4476299  49.6567345   4.4127298  51.6971397  48.8258123
   4.8769498  50.4931355  49.6169186  69.7824955  47.3120642  28.6296868
  69.6463013  46.6484976  29.3059731  70.6871700  47.1820307  28.3452845
  79.8438835  38.4143472   4.7855192  80.4955769  38.4269500   4.0845409
  79.3256712  37.6274729   4.6166536  57.8979635  61.6129637  52.4615479
  58.2276678  61.3789558  51.5939283  57.3748779  60.8578587  52.7306700
  22.5136590  19.1189730  36.3830543  22.5656343  19.8458958  35.7624793
  22.6760126  19.5206451  37.2365928  63.2198143  43.0462837  20.7792115
  62.2927332  42.9121494  20.9761024  63.6692047  42.3477268  21.2549162
  72.9581118  49.6532583  53.6260700  73.8409996  49.7882843  53.2818270
  73.0140638  48.8311243  54.1130924  86.3089203  64.7603606  24.6418142
  86.5266251  65.6832181  24.7728467  85.3727411  64.7611093  24.4423151
  71.5194035  50.2145958  36.3920450  71.9038773  49.5513248  36.9651794
  72.2351742  50.4736996  35.8117247  41.1495494  21.3414212  62.6404999
  40.2420997  21.3606187  62.9444776  41.2630844  20.4616805  62.2807859
  18.8072896  41.2966585  16.6196692  19.2437959  41.5403986  15.8034110
  19.1424013  41.9186401  17.2654772  11.8709468  68.7969501  66.4371778
  12.0252418  68.6132128  65.5105363  11.2959098  68.0895956  66.7290936
  79.8532057  57.7052164  51.5395117  80.5624008  57.3590660  50.9978008
  79.3271303  56.9378042  51.7643690  64.5745182  69.4634724  46.1334801
  64.0158987  69.2035484  45.4009342  64.1595936  70.2520657  46.4830399
  27.6765752  37.7096796  32.4513912  26.8030191  37.4893713  32.7748036
  27.6709486  38.6639977  32.3773837  54.5596218  22.8184414   3.1349865
  55.4301786  22.6622581   2.7689716  54.6475887  22.6015520   4.0631312
  62.3960686  49.2435884  29.0313959  62.8463459  48.8136244  29.7584558
  62.6745033  50.1578665  29.0843129  26.2177562  65.9871490  56.1428039
  26.2627219  65.1435597  56.5928750  25.4318427  65.9272630  55.5996804
  74.2057371  37.3589301  10.5570590  74.8400450  36.7434168  10.9245193
  74.3706942  38.1790876  11.0222077  79.8559999  51.3445568  31.8136239
  79.9126196  50.4352951  31.5199089  79.1989899  51.3309622  32.5096035
  64.2484236  57.5074339  10.6132865  63.3277273  57.3999548  10.3745472
  64.6622658  56.6863394  10.3472626  57.6046896  39.8873305  10.9452319
  58.2704401  40.4634094  11.3209188  57.1260881  40.4433966  10.3304458
  49.0224600  29.8696971   3.5134441  49.5913887  29.6034431   2.7911818
  48.8480616  30.7968712   3.3516967  76.6870308  41.1039114  57.2529268
  76.8017483  40.4518938  57.9442644  77.0636511  41.9058847  57.6151705
  77.8683662  27.9311895  38.3254385  78.0591011  28.7900758  38.7024927
  78.6479664  27.4085975  38.5134506   1.7116476  32.3210430  25.1259208
   1.9384504  31.4334249  25.4032779   0.7631326  32.2974539  24.9994612
   2.7827144   4.6084822  18.0119145   3.2645727   5.3265322  18.4223509
   3.4434391   3.9328516  17.8596330  75.0802422  32.8129315   5.9806669
  75.2105427  32.6146531   6.9079959  75.1248360  31.9617057   5.5451679
  12.9022527  36.7708492  50.3896713  13.7718606  36.4407921  50.6156874
  12.6347852  36.2447262  49.6360874  26.0247421   6.0635110  67.5834434
  25.4420375   5.4705068  67.1090697  25.4875993   6.4066812  68.2975484
  51.3650751  72.7274084  32.4653935  52.0142841  73.3403635  32.1203613
  51.8327332  71.8947840  32.5306368  53.3395624  52.9749775  13.0083048
  54.1097260  52.9660988  12.4399745  53.6932993  52.8790951  13.8925600
  15.4673124  49.7451878  41.4157724  16.4157796  49.6176386  41.3964653
  15.3548837  50.6865644  41.5477037  10.8314062  60.0426197  49.1480446
  11.3128591  60.7332850  48.6926126  10.9575487  60.2353716  50.0771093
   6.1961389  64.9161243  35.3026080   6.4622236  64.1962814  34.7305417
   5.2922082  64.7107697  35.5413175  43.1249643  43.6888123  13.3817923
  43.3245874  44.4564247  13.9176583  42.2138048  43.8126993  13.1159246
  63.0609131  30.2040148  50.6363535  62.6849461  30.7713389  49.9632835
  62.4118471  29.5105791  50.7550430  73.9259815  20.1062461  68.3373911
  73.0690193  19.8876735  67.9712324  73.8062095  20.0379535  69.2846088
  19.7727085   7.0571173  49.6458054  20.0147987   7.6431883  50.3628445
  20.5599094   6.5366209  49.4857264   7.8385854  50.1804495  24.2799568
   8.5042692  50.8611393  24.1811609   8.2406831  49.5347548  24.8610210
  76.6506577  75.3480721  46.8037033  75.9202766  75.5858278  47.3748875
  77.0614052  76.1832047  46.5799379   7.1647191  46.3201189  19.1645718
   8.0075384  46.3837337  19.6138418   7.3810792  46.4065981  18.2361615
   5.3900838  75.1759720  59.3272495   4.9072767  75.9745693  59.1142368
   4.7108007  74.5202971  59.4850206  56.2794209  62.6367044  49.1081285
  56.7739677  62.8165865  48.3085680  55.6928730  63.3874226  49.2009592
  78.3618736  69.1498232  33.0413079  77.7153921  69.6508408  33.5385799
  78.6484194  69.7474432  32.3506784  85.7490348   3.8627692  65.2917002
  85.4751443   4.4453880  66.0000597  86.5706586   3.4805795  65.6000791
  72.9981709  58.7681484  31.5920830  72.8417778  58.8769197  30.6540298
  73.7632990  58.1952000  31.6424870  59.6769619  46.8859053  32.9359651
  58.8686943  47.3353100  32.6890349  60.3569651  47.5547981  32.8559208
   9.4666028  41.5250349  38.3900857   9.8488451  42.4025917  38.3943582
   8.5507799  41.6615200  38.6327195  66.0475349  16.9530725  25.1113009
  66.9058847  16.5389919  25.2007890  66.2106419  17.7289164  24.5749283
  55.9845829  31.8861505  70.3935852  55.9859180  31.1913797  69.7351587
  56.6276264  32.5194713  70.0748086  18.4241033  78.4500837  60.1501656
  19.1539884  78.7255192  59.5955181  18.7764287  77.7259111  60.6675339
  34.3446279  59.5629692  28.7466002  35.1947523  59.9868536  28.6290073
  34.5217824  58.8305569  29.3368721  67.3444105  16.0017745   6.0286410
  68.0297114  16.5412824   6.4230044  67.8183771  15.3704851   5.4872926
  15.6704450  55.4146004  14.2612040  14.9097562  55.8851576  14.6020317
  15.4402757  55.2120829  13.3544302  62.6199484  67.1853876  49.2062855
  63.2920599  66.5385008  49.4208288  62.5962782  67.1978617  48.2494593
  15.0624967  53.5109043  37.6372218  15.1652837  52.6380873  38.0165005
  14.6024919  54.0120316  38.3106470  62.6880407  57.0416880  41.7711735
  62.3924208  56.8090820  40.8909845  63.5909033  56.7263651  41.8117332
  31.4547538   2.2306272  58.5905914  31.0981559   1.5533563  59.1653757
  31.5699768   2.9915305  59.1597859  74.9035740  56.6907549  31.7133069
  75.4584646  56.4011192  30.9891248  75.2029085  56.1781883  32.4642444
  15.4724050  40.1788425  50.7785988  15.3664613  41.1224651  50.6578255
  16.0044027  39.9002171  50.0332260   4.7505022  26.0330725  13.9683902
   4.6255231  25.0907779  13.8557315   5.6784940  26.1755800  13.7819552
   3.6117959  23.5293674  52.4326611   3.9609838  24.3307257  52.8226948
   4.0711046  22.8224659  52.8860426  58.1083632  50.2009201   8.6032599
  57.4719667  50.5672216   9.2173070  58.0382109  50.7555914   7.8263110
  63.2905674  60.4202271  29.5324421  62.4283838  60.8118248  29.6721768
  63.1158733  59.4838572  29.4379830  52.5472784  74.9754620  16.7483056
  52.6566458  75.3868914  17.6056254  53.3894777  75.1037741  16.3118744
  82.1116257  50.0040674  17.3197281  82.6667786  50.4594707  16.6867650
  82.6206207  50.0068712  18.1303751  79.2254686  10.4495621  23.8228297
  78.4510326   9.8967868  23.7183428  79.8695183  10.0756657  23.2214713
   7.0191503  11.5837717  35.8558369   6.6083265  11.9220197  36.6514802
   6.4275289  10.8938169  35.5555367   2.8802801  34.3660784  11.8937099
   2.4979616  34.5593143  12.7497017   3.2932401  33.5095692  12.0036745
  69.6483755  30.1118493  32.3674321  69.4870758  29.9900246  31.4318180
  69.8168278  31.0494184  32.4613476  82.9875851  48.4723425  13.6643589
  82.3509026  48.9999533  13.1821883  82.8890800  47.5906134  13.3050728
   7.4765134  66.7011070  39.9874401   7.6575685  67.5035858  39.4980788
   7.4471689  66.0152531  39.3203735  11.5591455  42.5857878  53.8789368
  11.3781095  42.9942989  54.7254467  12.3954988  42.1371889  54.0034485
   9.7730852  81.5430260  68.7206936  10.5611635  81.6734123  69.2481089
  10.0529123  81.7235088  67.8232765  23.3331418  54.6968365  25.1794028
  24.1093851  55.2072334  25.4099870  22.7968145  54.7051811  25.9721875
  12.1369482  53.3688498  52.7052021  12.6124883  53.3404016  51.8749714
  11.9042516  52.4568367  52.8793192  81.4114285  72.0683002  21.9134998
  81.0544586  71.6542482  22.6992249  82.2201157  72.4862719  22.2093821
  82.8951931  59.2371988  29.2162180  82.8371048  58.6976385  30.0047207
  83.6563396  59.7981215  29.3653703  74.4784737  34.4240165  25.5977631
  74.5950413  34.9745440  26.3720798  74.4185925  35.0433302  24.8703742
  70.3608656  49.6454430  14.6512568  70.5867910  49.9446344  13.7705338
  71.1193037  49.8802900  15.1859045  52.3215675  57.9596376  11.1598277
  53.1142187  58.4898901  11.2421286  52.6345825  57.0554209  11.1852741
  46.3649368  62.6870108   4.5225197  46.0272598  63.2429409   3.8202748
  47.2836971  62.5448799   4.2946866   6.4496708  43.1728601  37.3592162
   6.7230141  42.7580929  36.5409970   6.3531399  42.4466562  37.9752874
  10.0459409  48.9745760  39.2320776   9.9578882  48.4027004  38.4695554
  10.1096178  49.8560143  38.8643289  25.7520605  11.7779016  42.7947855
  25.6637121  10.8733809  43.0952311  26.4022470  12.1630061  43.3823061
  24.9927354  29.2587829  17.2246385  24.9642683  30.1621366  16.9094062
  24.6632219  29.3077493  18.1219983  77.6043320  47.6650286   5.9907144
  77.8892994  48.5321617   6.2789941  78.4143591  47.2128344   5.7548982
  62.3629785  20.3630103  39.7435403  62.1330286  19.6260775  40.3094721
  62.2565008  20.0245989  38.8545108  67.4137354  60.4141045  14.9958515
  68.0640221  60.1537037  14.3435085  67.3638248  61.3667679  14.9172509
  62.2352409  50.9007597  41.8118906  62.8079844  50.3419638  42.3372030
  62.3993921  51.7856693  42.1378040  12.2700811  41.6578150  45.4596376
  12.2439218  41.3134384  46.3523626  11.4644647  42.1679306  45.3760052
  42.4226856  64.8276384  58.3122484  41.6283798  64.6135719  57.8228776
  42.4961471  65.7796486  58.2450573  33.2942319  41.5631437  31.9501495
  33.8743901  41.7542458  31.2131763  33.8471317  41.6699505  32.7241802
   6.1734033  53.3086634  45.6673622   6.2323213  54.2082405  45.3456020
   6.1584402  53.3957005  46.6204786  69.1486263  32.3294755  68.9265337
  68.6275482  32.5889321  69.6863942  69.1034794  31.3733598  68.9203243
  72.9846954  44.7564479  61.9706808  73.0922222  43.9405605  61.4818035
  73.3286953  45.4325648  61.3869326  11.8972898  46.0995436  16.9422269
  12.5918127  45.4415512  16.9120443  11.1030221  45.6204367  16.7059505
  67.6097155  41.8810511  44.5284653  68.4329987  41.5356684  44.8736429
  67.8648138  42.6619911  44.0372515  46.3726139   9.3901750  69.6900382
  46.8401146   9.1476127  68.8907672  47.0642948   9.5744344  70.3255331
  71.4756203  46.6968489  40.5296946  71.2559986  46.5943384  39.6036887
  71.9591236  45.9008598  40.7507229  16.1884332  49.9406862  24.5719266
  16.8106771  49.2405844  24.7691631  16.5393472  50.7075834  25.0246501
  49.1260052  39.7780347  62.5567627  48.2322598  39.5732617  62.2819519
  49.6758413  39.4570136  61.8420267  79.8962212  57.6680756  11.1566079
  79.7421217  58.4550428  10.6339478  79.8047876  56.9459820  10.5349576
  86.0825729  37.0906878   2.2240745  86.4941692  37.1746087   3.0841777
  85.5512428  36.2971687   2.2892137  70.5217266  60.1163054  41.3699818
  70.7899046  59.5167446  40.6736803  70.7507801  59.6605015  42.1799278
  60.6017971  45.1288843   2.1453620  59.6796560  44.9019146   2.0254980
  60.8747816  44.6249962   2.9120472  70.4054546  36.5310025  60.6186247
  69.4640112  36.3584900  60.6062603  70.5270720  37.1443319  61.3433790
  31.0455728   2.8770388   1.8427581  30.7347990   3.1420363   2.7084550
  31.9758535   2.6903380   1.9690327  63.3230901  68.7693167   7.8904158
  64.2671228  68.9155197   7.9509521  63.2275510  67.8169012   7.8934366
  64.1909218   7.6857281  19.1138816  64.3628407   7.0965642  19.8484302
  64.9431896   8.2774538  19.1003144  62.5420523  31.5060544  53.7511730
  62.7809954  31.0253882  54.5436954  63.3044100  31.4185786  53.1789923
  27.3656393  46.2977505  27.7408600  28.1202341  46.3717079  27.1566129
  27.0243383  47.1897078  27.8053474   0.3108049  34.2928720  37.2532940
   0.8696104  33.7008286  36.7498517  -0.2613234  34.6955776  36.6000509
   3.9050318  25.4900492  58.6092234   4.4694115  25.9900797  58.0195808
   3.1612421  26.0687483  58.7768698  82.9867935  41.4495230  16.3704860
  82.9528809  41.5899038  17.3167288  83.8893032  41.6584587  16.1295438
  69.7210073  17.7068400  19.7849512  69.3247509  17.6357460  20.6533742
  68.9924049  17.9335737  19.2070568  85.1150036  51.8851185  36.0236740
  84.6651268  52.5918722  36.4866447  85.9726048  52.2497940  35.8051181
  82.8189278  16.2910163  19.9970627  83.1327248  15.4232228  19.7427022
  83.5940170  16.8503821  19.9462056  60.8249760  56.8590975   3.4975004
  61.2277126  56.1206007   3.9542934  59.8836136  56.7034817   3.5739860
  79.8670578   0.4201496  36.1923718  79.6164370   1.2767406  35.8464360
  79.2575932   0.2656648  36.9141173  39.1735148  32.0899248   1.6639049
  39.0025449  32.2307611   2.5951228  39.0889263  32.9585743   1.2708074
  59.3960190  67.9280567  27.2275281  58.9563990  68.7773705  27.2678924
  60.3287172  68.1419992  27.2044182  59.2707014  60.3934526  43.5334158
  59.0193796  60.4266119  44.4564390  59.8785067  59.6561480  43.4770107
   3.6926389  48.0069160  18.4967601   4.0032411  47.3651171  19.1353965
   2.7718664  48.1416082  18.7209558  26.0866190   9.2799796  44.1761827
  26.4033628   8.4587325  43.8000631  26.6048265   9.3941439  44.9728394
  20.8228517  29.9521446  52.0150614  21.3105226  29.2975855  51.5151024
  20.3647733  29.4476557  52.6872873  77.8294802  27.3595858  18.4795880
  78.5607862  27.1385360  19.0562665  77.8729439  26.7099738  17.7779126
  79.9502850  71.0780859  31.3525629  80.8301163  71.3147402  31.0590887
  79.4191313  71.0968208  30.5564761   5.5670572  46.2877607  48.2766294
   5.9252382  45.7283115  48.9657974   6.0672117  46.0543966  47.4945736
   7.8559137   0.4920329   7.1447283   7.8665329   1.4475668   7.2001946
   8.6831737   0.2676428   6.7186695  81.2367725  34.5749211  48.5683966
  80.8544159  35.4121685  48.8311720  80.7717896  33.9238262  49.0938568
  13.0483079  23.7743640  25.6798029  13.8263250  24.2447281  25.9792829
  13.3626199  22.8916693  25.4841089  81.6331577  45.5869722  35.3481698
  82.3593998  46.0101700  34.8902369  80.9105587  46.2109661  35.2794957
  75.5179119  38.8375330  43.1152534  75.4347372  39.7126412  42.7364397
  74.6596956  38.6607718  43.5005522  67.9999542  71.3054657  10.1181710
  67.6770592  70.4351711  10.3517580  67.5761557  71.5018845   9.2826790
  27.9554296  75.5760908  14.5671189  27.1342874  75.8888865  14.1874933
  28.1885839  76.2412405  15.2147663   5.6941057  32.0685124  10.5414772
   4.7999979  31.8677425  10.2648997   5.6789422  31.9669342  11.4931512
  74.2861271  66.1270475  42.7035189  73.6827946  66.5598917  42.0994711
  74.3489933  66.7247200  43.4485483   2.6185060  25.6663871   7.6432049
   2.7911115  25.5010581   8.5700840   3.3729387  26.1751056   7.3461074
  81.8770409  50.3712797   4.0377843  82.1987247  49.8917007   3.2743999
  81.6923141  51.2506247   3.7078393   0.3448320  53.6220264  42.7155781
   1.1512971  53.5019875  43.2170153  -0.2951979  53.9240837  43.3600521
  55.1171541  56.1447430  44.3081522  55.2898026  57.0834541  44.3805695
  55.3324556  55.9309530  43.4003115  22.6130509  11.6706630  69.9856487
  21.8197179  11.2481614  70.3148074  22.9693723  12.1345206  70.7433449
   8.9914537  45.2077723  37.6244593   8.3277345  44.5592070  37.3897982
   8.5747934  45.7434082  38.2995319  76.4849854  26.1126089   8.0759323
  77.3993206  25.8563876   8.1966615  76.2460661  25.7523704   7.2218955
  81.2653828  27.4677634  28.8826942  81.8351555  28.2283425  28.9972115
  80.6241322  27.7452183  28.2284427  78.7680149  42.1446466  54.1591930
  78.8641071  42.2164202  55.1088476  78.6619711  41.2068605  53.9993811
  74.5518541  50.1846552   9.1702533  73.8818979  50.1807308   9.8539025
  75.3810263  50.1506376   9.6472740  61.8648386  62.4370813  21.7532086
  62.6029968  62.8486633  22.2026014  61.7858267  62.9200029  20.9305453
  19.5061994  22.2369517  17.9963624  19.8199678  21.3703478  18.2547748
  18.6009193  22.2660483  18.3059561  78.5484695  71.1781931  41.5881109
  77.6436377  71.4826918  41.5188885  78.8539886  71.1272621  40.6824064
  19.6357275  58.3402395  47.7181196  19.6590257  59.1558218  47.2176027
  19.4106698  57.6697397  47.0731306  52.1656799  54.0725279  21.5264583
  52.7716732  54.3576431  20.8425617  52.6884651  53.4973717  22.0851398
  81.2818241  67.0894957  12.2190607  82.2140121  66.9693327  12.0378959
  81.1954689  66.9146109  13.1561780   8.8882089  80.3652573  39.6841550
   9.6046567  79.7380304  39.5866108   8.0984617  79.8249388  39.7082424
  82.8482628  34.2669702  66.5131855  82.8317070  35.1419425  66.1253977
  82.9915237  34.4214892  67.4469090  79.7150707  68.9001465  42.6695013
  79.2835712  69.7545719  42.6695585  80.6472778  69.1026068  42.5905228
  21.0769487  11.4652956  37.7788591  20.3377319  10.8575667  37.7573490
  20.6799532  12.3293150  37.6688743  82.8839874  48.8100386  43.2190609
  82.0660019  49.2581177  43.0037737  82.9121208  48.8094473  44.1758442
  82.8449345  63.2751513  31.4539146  83.1948757  63.0582619  32.3180509
  83.1922340  64.1472816  31.2668538   2.2805810   8.6332142  36.1058545
   2.8642107   7.9332596  35.8131695   2.4238992   8.6851084  37.0508409
  58.6894846  51.0279512  36.9873357  58.6320400  50.7899094  36.0619879
  59.6225786  51.1788321  37.1383500   9.0144372  13.3466005  41.7426348
   9.2788911  13.1443584  42.6400757   9.8116613  13.6738348  41.3259983
  67.6064157  76.1971235  23.6142564  68.2052231  76.5404081  24.2774487
  67.1632481  76.9716024  23.2678223   0.8669401  41.0893202  23.7571692
   0.6724859  41.6163921  22.9821730   0.5894590  41.6344976  24.4933867
  24.4373537  78.4167624  12.0930195  23.7572217  78.1532335  12.7128625
  25.2116132  77.9227734  12.3627007  70.7771301  53.5388851  36.8440366
  71.3330126  54.2910624  37.0476460  71.3333607  52.7779150  37.0106435
  35.6345869   7.0389784   8.6031497  35.3528143   7.5221671   9.3799114
  34.8199964   6.8026961   8.1594807  74.9742270   0.7756124  24.0517735
  75.5331707   1.1856747  23.3917236  74.6890831  -0.0442306  23.6483097
   2.3933626  35.1053452  25.2868319   2.6279283  35.2696657  26.2001848
   1.9277215  34.2692542  25.3058243  28.1981944  78.7585552  64.9042021
  27.6620387  78.5081847  65.6565891  27.6213931  79.3048437  64.3702505
  68.3397579  14.8634549  70.7127520  67.9383468  15.5226775  70.1466049
  68.5322094  14.1305705  70.1278777  71.0174561  18.4246862  62.5933599
  71.1498594  17.4906456  62.7554369  70.5164909  18.4577096  61.7783928
  52.3403740  20.9919524   6.2409115  52.0973873  21.7735744   5.7446694
  52.7633476  20.4222417   5.5984527  70.8240128  52.3808098  15.3199136
  70.5495787  53.2886839  15.4490852  70.9125566  52.2900391  14.3711495
  10.2191568  43.4293509  44.8995590  10.1309419  43.7850332  45.7838297
  10.3003812  44.2004251  44.3382454   1.8050886  32.9444551   6.8691313
   1.3098169  33.2391882   7.6333767   1.1413503  32.5987387   6.2723368
  52.6360989  69.1683769  29.8286748  52.4242783  69.5931625  30.6598902
  52.1150303  69.6401739  29.1789651   4.5096326  32.2143674  65.8072376
   3.7866617  31.8615055  65.2885532   5.2896142  32.0405579  65.2803087
   4.0462614  46.1527634  54.1711617   4.5349145  46.9730139  54.2392683
   3.1437994  46.3935137  54.3804884  84.1128159  42.7061510  40.4011774
  84.9422646  42.5262785  39.9585867  83.7892246  41.8442059  40.6630373
  26.6840673  28.7524700  35.2376938  25.7895685  28.8623881  35.5602026
  26.6811681  29.1701293  34.3764257  22.1043491  13.0071517  67.3757885
  22.8726720  13.5666820  67.4890961  22.1740532  12.3596402  68.0772911
  52.5326277   8.0169905  23.1171989  51.8506456   7.5159014  23.5644674
  52.7010275   8.7611998  23.6951494  58.0009604  53.9696169  41.7971802
  57.3043251  53.4271193  41.4275503  57.6370001  54.8548937  41.8040705
  15.0322843  57.5067616  19.7858858  14.3571020  57.9845715  19.3041611
  14.5551992  57.0537806  20.4811788  64.9542522  65.5349255  11.1090791
  65.1164436  65.3500748  10.1840079  64.7584581  64.6803808  11.4933383
  68.9695024  76.6451550  34.7307920  68.8668728  76.2355995  33.8717437
  69.3054104  77.5209379  34.5400023  62.6891470  59.1854954  66.1815405
  63.1325674  58.7825632  65.4350471  61.8164206  58.7923336  66.1824703
  74.2185045   7.0714204  10.9047826  74.8658968   6.3740365  10.8010324
  74.4172884   7.6893632  10.2013238  64.9036360  68.1129503  32.4599266
  64.8658657  68.4686518  33.3477783  65.7262278  67.6242542  32.4324894
  56.3946438  50.0515509  13.8305187  55.7678509  49.4084454  13.4991884
  57.2411299  49.6071386  13.7837231  39.9019694  78.4446907  19.6851099
  38.9942884  78.1644726  19.5675254  39.8362541  79.2866135  20.1357484
  12.6684785   1.5150730  25.8841014  13.1281305   0.8517781  25.3693247
  12.5074411   1.0938516  26.7284179  68.9872646  22.5707173  51.0450840
  68.4380293  22.2367644  51.7543459  68.4720755  23.2771492  50.6555176
  62.4487590  39.6928378  61.6365181  63.3734321  39.7303840  61.3919823
  62.3394298  38.8260289  62.0275645  70.3496577  45.0993411   1.5090259
  69.7539736  44.9965064   0.7668574  70.9979655  45.7365863   1.2092813
  44.4631029  58.3779192  10.5791080  44.1271139  57.5940943  11.0138154
  45.0046087  58.8060474  11.2422109  64.5855904  35.5703735  57.2738123
  64.8127174  35.5276418  58.2026911  63.9178753  34.8941755  57.1591568
  83.4243011  66.8074226  53.6096907  83.4085083  65.9205914  53.2498121
  84.0487766  66.7610312  54.3336487   4.5540643  80.3980064  34.5004320
   4.8093534  79.8776722  35.2622128   3.8545251  80.9665871  34.8222828
  69.5967102  57.2528907  70.3197443  70.4624557  57.0413943  70.6690158
  69.0004253  56.6678783  70.7871032  75.7067394  17.6803899  54.0129900
  75.6302881  16.7281008  54.0724325  74.9820614  18.0123985  54.5429277
  18.1458307  63.7898254  21.4610267  17.8469873  63.8059568  20.5518150
  19.1010309  63.7927628  21.3992763   3.0468679  71.5515041  30.2047038
   2.7291894  71.7723656  29.3291855   3.9855981  71.7358351  30.1724482
  84.2506504  63.0773640  51.1323929  84.9577808  63.4190178  50.5851603
  84.1533661  62.1659327  50.8565998  60.7788086  28.7811490  53.4850280
  61.0981750  28.8738557  52.5874512  61.5281009  28.4375211  53.9715592
  85.7940197  41.1558008  15.6915975  86.5524864  40.9313011  15.1525688
  85.9652138  40.7338476  16.5335476  40.8828950  75.7380915  31.2959504
  41.6374994  76.1171436  30.8452535  41.2642503  75.1761246  31.9704866
  65.4050064  72.1641350  23.5536623  66.0951519  72.4207640  22.9420471
  65.4120779  71.2071419  23.5349393  10.0078296  30.6033870  68.6617437
  10.9640526  30.5657407  68.6404811   9.7267198  29.7936746  68.2356240
  84.3626308  54.7348976  33.8548493  84.4592476  54.4757366  34.7712183
  83.5300922  54.3485022  33.5831642  47.6192188  60.3533602  57.4308586
  47.1794176  59.6699333  56.9251537  48.5492325  60.1350880  57.3703766
  71.2323475  61.8853378  22.1400547  70.6333208  61.5469027  21.4745760
  71.7397070  62.5579834  21.6857815   3.3298755   0.3651083  19.1282904
   3.7629057  -0.3580820  19.5818436   4.0071846   0.7308615  18.5593390
  29.2134214   7.3543299  11.4708328  28.5431505   8.0249346  11.3394463
  29.9554468   7.8278006  11.8469310  82.0673561  78.3502865   1.4339983
  81.6958904  79.2315388   1.3935070  82.3867035  78.1839943   0.5470962
  66.4161444  62.7037430  42.6271105  66.2937832  62.5460196  41.6909552
  67.3285055  62.4662685  42.7927589  73.0106163  69.6639585  51.3108683
  72.0806885  69.5675611  51.1055040  73.0319166  70.2840900  52.0397091
   0.0518918  44.2762089  30.1420188   0.5447317  44.2201614  30.9606719
   0.4798055  43.6470270  29.5612836  84.4336033  64.9718809  40.1038361
  85.2368546  64.4610929  40.2043629  83.8131046  64.3653965  39.6996117
   4.0198446  53.3809614  28.1799674   3.9788175  53.6197710  29.1059899
   3.3026815  53.8685989  27.7748609  16.3766695  44.5630169  16.7259586
  16.8462491  44.1970921  15.9764099  16.3856721  45.5083466  16.5759587
  42.2565079  71.5776634   3.4328458  42.0684814  72.3395300   2.8847218
  41.5110397  71.5229416   4.0307721  12.5108743  51.7510509   7.1884191
  12.7737070  50.8688498   7.4508524  11.6026521  51.8273449   7.4809015
  73.3133793  19.8298049  36.0544348  73.9767933  20.5025220  35.9009099
  73.7529421  19.1809368  36.6039681   3.1449152   3.2801283  31.9744015
   2.7649427   2.4878825  32.3541331   3.7219644   3.6204470  32.6580906
   1.7194343  18.6201895  23.0254555   2.2200991  17.9084815  22.6266599
   1.2140728  18.1976641  23.7199473  79.5398569  39.2143440  39.0501523
  79.7896481  38.4667897  39.5932937  78.6332941  39.3973732  39.2968893
  43.4798956  26.1141750  66.2985994  43.3855629  25.2323409  66.6587408
  44.1946458  26.5034553  66.8024139  17.5312734   1.1231936  17.5840831
  17.3445154   1.6482485  16.8058324  16.7825867   0.5315341  17.6591623
  85.3904438  63.9760208   3.7221396  85.7020855  63.6188555   2.8905499
  85.3070736  64.9161768   3.5627925   9.9451566  72.1600771  47.0203066
  10.6946016  72.3564100  47.5824594  10.3047204  72.1598053  46.1332083
  28.5217214   7.5702704  57.8314686  29.2092634   7.5417651  57.1661043
  28.9804388   7.7974452  58.6403036  73.5987425  69.0232325   7.3542631
  74.5315742  68.9243746   7.1637726  73.1882238  68.2631969   6.9418907
  76.3711309  64.6864939  11.9836509  76.6385078  65.6055117  11.9715321
  77.1764946  64.2052221  12.1733785  81.5517139  70.2992821  45.5950832
  81.3150692  70.8852100  44.8761177  82.2733212  69.7743845  45.2486706
  67.8994036  26.2143397  53.8866138  68.7650347  25.8404994  54.0514183
  68.0013227  27.1470714  54.0759754  18.3812738  48.0267143   7.6973277
  18.7514329  48.9090729   7.6717550  19.0620256  47.4931908   8.1074089
  80.2237511  20.5714869  30.1687145  80.4914284  21.4486027  30.4430294
  80.8944798  20.3015971  29.5414138  69.0328907  21.0741909  65.5319194
  68.7761592  20.1876218  65.2783112  68.9696811  21.0778756  66.4870231
  42.3858929   8.4701771   6.5003788  41.7807961   8.9583981   5.9420478
  42.1390915   8.7147176   7.3922992  23.0954408  70.1189446  18.5770822
  22.8701877  69.3620979  19.1180766  22.9819011  69.8125469  17.6773822
  42.8475904  33.0051208  15.4973054  42.2357130  32.3459840  15.8249867
  43.5391426  32.4989915  15.0709021  83.9440059  67.6149594  23.4869456
  84.7614097  68.0707537  23.2861090  83.2657003  68.2821094  23.3818579
   5.8469534  78.9801486  19.8289049   6.6070652  78.7393712  20.3585148
   5.8143472  79.9355744  19.8771799  46.6175890  18.3857203  19.1190588
  47.0853281  19.1246188  19.5082629  47.2664642  17.9597211  18.5589528
  29.5270372  51.2078325  15.5717977  29.6635176  50.2604357  15.5653890
  28.6219240  51.3174573  15.8633454  50.2208519  66.9194352  12.8673553
  50.5143404  67.1609007  13.7458730  50.9047365  66.3361477  12.5382471
  74.5692015  10.1180625  32.7087879  75.3543282   9.5744842  32.6429820
  74.3873549  10.1635337  33.6474562  17.9295719  43.3090162   7.7070302
  18.1208277  42.8511858   6.8884671  17.9899645  42.6312828   8.3802789
  48.3082485   2.4628612  64.7317938  47.9106569   2.5723382  63.8679842
  48.8746929   1.6968127  64.6393941  17.5034141  74.9757450   3.1263709
  18.0624294  74.8564666   3.8941646  16.8374157  74.2929249   3.2065961
  56.8952895  58.8916646  21.1954045  57.6494081  58.4101426  20.8552957
  56.1460998  58.3255207  21.0098553  48.4659147  19.1270828  43.6881685
  49.0533018  19.8603070  43.8714552  48.9978886  18.5155153  43.1790304
   3.3108758  31.7209144  51.6652159   4.0203714  31.3307543  52.1757297
   3.6532878  31.7628880  50.7723419  13.4552407  22.5375080   4.4465587
  13.8774037  22.4176431   5.2972299  12.6315010  22.0552254   4.5178953
  70.7667255  25.9234905  27.6322865  71.6936731  25.7620692  27.8081965
  70.4242754  25.0740552  27.3540449  60.5062294  24.5126677   1.6284862
  59.6980286  24.6367502   2.1261278  60.5901051  23.5631943   1.5407600
  56.6712379  27.2876525   2.2276603  57.3305511  27.3745894   1.5391976
  55.9901237  26.7387271   1.8390755  26.4525604  74.4802623   1.6163878
  27.0778274  73.8635456   1.9970900  26.7911863  75.3430085   1.8556266
  54.3406868  18.7788618  61.2639093  54.0776730  19.4528508  61.8906450
  53.5259199  18.5225356  60.8318377  27.3034930  40.7500172   8.0950212
  27.9926395  41.2952328   7.7154768  26.8312430  40.4004145   7.3393846
  78.7140297  34.4659193  40.1157371  79.1009592  35.3050847  40.3653709
  79.4517444  33.9487429  39.7924201  62.6201868  22.0603132  12.0893788
  62.6702595  22.9918075  11.8748093  62.7897644  21.6139746  11.2597656
  21.7608095  56.1228052   0.8229907  21.3067604  55.5137495   0.2406533
  21.1061502  56.3589207   1.4801820  20.6842803  21.1454745  49.2069380
  20.2230310  20.4855092  48.6893241  20.7846307  21.8889625  48.6124746
  70.5813074  22.3337436  48.8125086  70.5112267  23.1866598  48.3837318
  69.9509048  22.3746705  49.5316410  71.8263483   4.5996225   4.8517650
  72.1427774   4.6523023   5.7536119  72.5630856   4.2364743   4.3602654
  66.7342138  13.3032262   2.0741579  66.0190248  12.7334821   2.3572318
  66.3033009  14.1175997   1.8146545   3.1940817  78.1272309  39.1469312
   3.6867904  77.3267760  38.9659786   2.3258400  77.8202080  39.4079399
  37.3808122  36.4566779  10.2610314  37.0539999  35.5830812  10.4761052
  36.9230080  37.0395112  10.8667970  15.4619980   9.7715193  37.9319835
  15.2598608   9.9355412  38.8531065  15.5381525   8.8194120  37.8693414
  50.1791430  20.2210832  13.9637041  49.7469330  19.9949527  13.1401205
  49.5732927  19.9225700  14.6419835  59.4906330  20.9699082  23.5731912
  58.8731241  20.6297088  24.2206311  58.9464140  21.1963725  22.8190231
  83.3897375  66.1522900  18.0104935  83.2006358  65.2145313  18.0433536
  83.5586166  66.3946163  18.9209831  60.3393436  21.5658537   1.7390950
  61.1875558  21.3945810   2.1482785  59.9235344  20.7056645   1.6807015
  66.2315607  26.8487000  16.0516012  66.6095829  27.7278018  16.0288846
  66.7799950  26.3367200  15.4571855  84.2498897  54.4770737  67.7577774
  84.2314743  54.5901592  66.8074594  83.9235376  55.3075774  68.1041755
   3.3220888   3.5375118  23.6622643   3.0687833   2.6950303  23.2850432
   4.2772413   3.5000408  23.7123370  58.3025885  25.9912133   9.9291903
  57.7803040  25.8383584   9.1417360  58.5765171  25.1175261  10.2082407
  26.1019325  76.3364117  36.5174866  25.3915119  76.0847937  35.9273815
  25.7514238  76.1804973  37.3944497  17.1616769   7.8939402  20.9774184
  16.4129758   7.5298393  20.5050755  17.2251344   7.3630935  21.7714000
  60.2171516  36.5278888   8.2426077  60.8925819  36.4496684   7.5688827
  59.9752522  37.4539661   8.2328677  15.4256200  69.8706745  27.4231601
  15.6724786  70.5778610  28.0191278  15.0154352  70.3149830  26.6811538
   8.4700369  79.4125031  36.3848257   7.9889750  79.6384791  35.5887437
   8.7881755  78.5234111  36.2281871  60.3871250  63.6384605  38.2214785
  60.8514881  64.3148600  38.7145138  60.4312420  62.8622364  38.7798357
  11.2643671  68.8760637   3.0179507  11.5808057  68.8219439   3.9197111
  11.9082498  68.3842753   2.5082546  22.3728609  62.7888965   9.5227563
  22.6607179  62.4082278  10.3524923  23.1672668  63.1644653   9.1431534
  52.1742296  13.5818231  29.2397308  51.7623138  12.8363633  28.8028717
  52.1874905  13.3394325  30.1656365   6.1458326  25.7679367  37.0416427
   6.9107557  25.1973915  37.1165133   6.0671354  26.1773348  37.9032898
  68.4698105  29.3822622  -0.1462105  68.7620974  28.6119962   0.3411181
  67.5142002  29.3384743  -0.1127175  67.4568987  24.3672180  38.9908266
  67.8079224  24.2926669  39.8782134  66.5764189  24.7230673  39.1106629
  73.0053711  12.9697978  28.5289812  73.7983656  13.4830487  28.6837935
  72.5487852  12.9748070  29.3702507  69.8259544  23.4475279  26.3884473
  69.8567724  23.3525920  25.4364657  69.1021776  22.8840351  26.6620374
  74.4786024   3.6944461  12.7497327  75.4124546   3.9016575  12.7845109
  74.1647959   3.8528594  13.6400485   4.5610999  60.7299419  57.7803199
   4.5084285  60.2631171  56.9463353   3.9770793  60.2451070  58.3634905
  34.5911789  59.5687257   3.4548682  34.7125148  59.2084276   2.5764063
  35.4664230  59.8501026   3.7213334  56.0791206  78.3489328  23.8625979
  56.9000816  78.0956762  23.4405518  56.0234546  79.2952242  23.7296867
  64.0816021  80.7204789  39.6508360  64.1940975  80.6447118  40.5983782
  64.2759418  81.6379364  39.4591737  29.4330454  76.1912923  51.4016676
  30.1509666  76.6025501  50.9203243  29.7352028  75.2979015  51.5653229
  62.0129967  38.2072163  21.4253736  62.3768473  37.3298287  21.5438509
  61.4725447  38.1381178  20.6383753   7.6989888  75.4254754  53.9686970
   7.6719713  74.8056085  54.6975772   6.8230533  75.3824790  53.5851268
  14.5220231  36.0941402  60.3731362  14.7498988  35.3261299  59.8492436
  15.2285384  36.1643670  61.0151110  52.6414299  46.4051485   7.4881279
  52.8562307  46.7877150   6.6374028  51.6845798  46.3900375   7.5092226
  24.3261813  54.1654058  45.8017914  24.7778510  54.0927501  44.9609892
  23.8052272  54.9647935  45.7255332  15.4670333  72.5460012  68.3437599
  14.9345350  72.0329530  67.7359281  15.8094501  71.9024785  68.9641328
  62.7188444   5.2679878  31.8897247  62.7449656   5.9149504  32.5946975
  62.9942608   5.7513094  31.1107635  58.9842033  23.2260132  18.8427532
  59.2849922  24.1139078  19.0361476  58.4812260  23.3145308  18.0331790
  28.5836649  18.4408462  17.6666129  28.7180996  18.8528442  16.8131399
  28.5658026  19.1712546  18.2850111  37.3596573  81.0227259  38.7989521
  37.4291944  81.1872673  37.8585672  38.2530784  80.8147963  39.0724325
  23.5747957  67.3696827  31.8724227  22.8570556  68.0027699  31.8555975
  23.5615587  66.9694423  31.0030198  53.2333278   0.8762904  64.5739840
  52.7785968   1.3470384  63.8755236  53.3616542  -0.0054911  64.2243759
  79.8420477   2.0702562   9.3483865  80.1338959   2.1648271   8.4416819
  80.4292965   1.4129817   9.7217023  72.0993471  31.3308430   8.6256039
  72.3310518  31.2804389   9.5529675  71.2565136  31.7844105   8.6136234
  72.7609873  29.2827201  47.3960781  72.8016472  28.9066792  46.5167761
  73.6152411  29.0859294  47.7804756  54.6077871   7.2154713  32.9687977
  54.0128040   7.0223945  33.6933303  54.3846416   6.5708172  32.2973371
  30.0526881  17.7130294  29.0445113  29.9322629  16.9670033  28.4569955
  31.0000181  17.7687633  29.1697836  25.1593398  36.1547188  70.2621846
  25.1075362  35.2194477  70.0651657  25.9847354  36.2542008  70.7365860
  54.7176886  -0.1405462  15.0943124  55.1163816  -0.0176153  15.9558010
  54.5636606   0.7477576  14.7727180  12.2601438  24.4361353   0.6535805
  12.4174047  24.6899581  -0.2558549  12.2314477  25.2647209   1.1319666
  54.4808006   4.6049482  28.0141139  53.6943579   4.4136205  28.5251260
  55.0718594   5.0312513  28.6347175  76.4131212  46.9326401  19.5494270
  76.2692165  46.3678122  18.7901556  75.5886173  47.4073935  19.6544659
  40.3011847  45.6897831   1.4116506  39.9756098  45.2306795   0.6374024
  39.6575236  45.4962444   2.0931779  45.6713057  39.5147443  16.6342771
  44.7179079  39.4419074  16.6785610  45.8321142  40.4374743  16.4369464
  16.4827012  60.0410338  69.3673518  15.8866023  60.6194551  69.8430919
  16.0778140  59.9354978  68.5064451  41.2688922  61.8281253  59.8793106
  40.7361888  62.6207979  59.8150711  40.6444740  61.1105855  59.7722272
  29.6047639  76.1796825  18.9704525  30.3558302  75.9081708  18.4428036
  28.8658380  76.1619942  18.3622503  30.5019760  48.8935410  34.3701768
  30.2402305  48.6840831  33.4736013  31.4565611  48.9537727  34.3331337
  40.2674103  19.6525443   5.2583402  40.3900051  20.4472733   4.7391018
  41.0297060  19.1116571   5.0519854   5.3570985  63.2125933  70.1065510
   5.5433082  64.1497595  70.1637827   4.5501279  63.1595738  69.5944786
  21.0056043  24.4020391  35.6459022  20.7003713  23.5220194  35.8664274
  21.5019346  24.6830392  36.4146209  48.0562067  75.3556608   9.7850627
  47.5313854  74.6428894   9.4207138  48.6262416  75.6256341   9.0650558
  70.7257080   0.5518202  33.4683108  71.6000652   0.9343389  33.3947682
  70.1428175   1.3043013  33.5695100   4.0091825  11.5674317  13.1655085
   3.7942720  11.0490060  12.3900890   4.8590398  11.9589818  12.9638433
  64.4389439  25.1450086  30.5134368  64.5642138  25.5121756  29.6383786
  63.5970831  24.6920824  30.4648709  65.9356402  60.2909775  46.5415828
  65.9479879  59.7294529  47.3166768  66.0201954  59.6850116  45.8054511
  19.3701410  70.1594638  43.3183765  18.9550638  70.1260494  42.4565029
  18.7648105  69.6920847  43.8940191  17.6393508  51.7250223  66.4655538
  17.0565652  52.4785919  66.5589694  17.1294307  51.0885544  65.9644328
   9.1454744  80.9372555  20.8194852   8.4237098  81.0074410  21.4442754
   9.8221540  81.5169833  21.1691284  35.1444960   1.5845309  23.7505102
  34.5003366   1.1806618  24.3320417  35.0891423   2.5201783  23.9447570
  69.8671436  11.2054491  30.7414961  69.4820309  11.9898248  31.1322308
  69.5477438  11.2058473  29.8391557  14.9793720  73.0768221  57.0646381
  15.6641149  72.4113732  57.1319628  15.3365373  73.7277453  56.4605141
  83.1070042  34.2802835  12.5130141  82.5404549  34.9365044  12.9187536
  82.5072670  33.7118697  12.0298457  70.9890413   5.9236193  47.9020452
  70.2705145   6.2175906  47.3421049  70.6089258   5.2222586  48.4310389
  66.1247206  30.0147390  30.9669685  66.9049263  29.8275518  30.4449844
  65.5571270  30.5131698  30.3790593  61.8691851  80.9053949   6.9574388
  62.1607996  81.7174081   6.5429242  62.6058603  80.3037123   6.8501123
  55.8098173  15.0768960   6.5717202  55.1600027  15.6116748   7.0277721
  55.3024721  14.5771646   5.9321094  61.2118435  66.8377172  36.6415286
  61.0066700  67.5699889  36.0602260  62.0037460  67.1131336  37.1033502
  42.8582191   8.7608343  23.3958697  42.8706884   8.5880953  22.4544668
  43.3439922   9.5795596  23.4956074   6.1851335  31.7860270  34.3517256
   7.1279073  31.7807913  34.5171785   5.8998514  32.6596713  34.6192956
   3.6639905  10.6006420  10.4124963   3.2202173  11.1676121   9.7817451
   3.2612920   9.7413963  10.2869225  79.2287540  33.8290668   2.4193160
  78.4039116  33.3624291   2.5539038  79.7901392  33.1981111   1.9687912
  12.1348285  73.7046789  17.5223267  11.3373708  73.8778960  18.0226171
  12.4825906  72.8960489  17.8983736  66.2861561  73.3201082  69.4775830
  66.2681030  72.3755677  69.3234801  67.2086786  73.5191019  69.6375362
  76.3332081  51.5069628  20.6181288  75.5596066  51.4582491  21.1797333
  76.3601971  50.6596851  20.1735878  76.1317682  43.6440468  16.9401121
  76.3873291  43.6245346  16.0178649  75.4726887  44.3362999  16.9914198
  61.4038754  13.4620559  49.3786192  60.8326960  12.8738427  48.8846636
  61.8601370  13.9712954  48.7087440  43.8379431  16.8956578  38.1894588
  43.8354206  17.2074842  39.0944409  44.5144367  17.4177074  37.7581286
  66.6476297   4.1596392  23.3268833  65.7236385   3.9266717  23.4174466
  67.0400095   3.9130652  24.1644216   9.2224145  12.8857589  21.0353613
   9.1045213  13.7078941  21.5112042  10.1684881  12.8166580  20.9073377
  26.4395523  15.0255632  24.3902349  27.3472691  15.2691996  24.5716834
  26.3394260  15.1595080  23.4477568  57.8644466  16.0820198  42.3203564
  57.8573513  16.8223059  42.9271173  58.3300924  16.4080262  41.5502119
   0.8631731   1.0873161  42.0319271   0.6021524   0.1771550  42.1723127
   0.2366376   1.4197353  41.3891268   9.7700547  79.1108663  59.5873968
   9.7926521  78.2111962  59.2613344  10.6855869  79.3226845  59.7695200
  71.3715315  32.8192401  13.6262953  71.0998011  33.6727762  13.2888496
  71.1223793  32.8366375  14.5503366  66.4426088  32.4741316  42.6789474
  65.9757090  32.3492265  43.5051632  67.3390579  32.6850557  42.9399395
  72.6093817  35.1921964   7.9351079  72.5194407  34.3246722   7.5407147
  73.1744576  35.6728697   7.3302329  79.6702766  43.7285566  14.0913951
  80.3662109  43.3637953  13.5447145  79.8143911  43.3393335  14.9539292
  71.4846777  60.1948948  70.2076589  71.8903564  60.5959184  69.4389988
  72.2182726  59.9968918  70.7897853  43.9054346  80.7169360  25.1309037
  43.3093643  80.2440690  24.5501041  43.3481502  81.0281003  25.8442354
  42.6306343  68.4608482  21.6118407  42.2567463  67.7396869  21.1055136
  43.4102296  68.7196063  21.1204052  71.3505173  50.3100061  17.5401270
  72.2472954  50.5927896  17.7191591  70.8986092  51.1073017  17.2638583
  72.2436857   2.2861101  27.9208207  73.0545950   2.1711504  28.4162426
  71.6868496   2.8149575  28.4922123  51.4502811  68.1319021  39.7244406
  50.9344434  68.3321249  40.5054998  51.0001564  67.3878871  39.3243623
  21.4914417  76.0613745  51.0370684  21.0631084  75.2937954  50.6581402
  21.7703819  75.7750409  51.9068003  12.8134752  47.0040035  26.5953755
  13.2902360  46.2870979  27.0136809  13.2839799  47.1587753  25.7762933
  36.7349172   8.4298652  43.3768988  36.6712499   7.9852974  42.5315952
  37.6335931   8.2694632  43.6647892  85.4499340  51.7656755   3.7973315
  85.4706669  51.6311407   4.7448030  85.9766865  51.0496950   3.4421712
  44.2863845  72.3790585  16.7124176  44.6125126  72.6591133  17.5676620
  43.8860607  73.1646191  16.3397706  63.2058144   2.8036866  32.9220986
  62.9428005   3.6073479  32.4735618  64.0024614   2.5265661  32.4695587
  40.4369306  69.1879391  26.1630869  41.3910102  69.1119813  26.1490393
  40.2144384  69.2396449  27.0926332  13.2566928  31.1734606  70.6881064
  12.5682449  30.6969364  71.1519959  14.0192222  30.5965955  70.7329668
   2.5244521  66.2122853  69.3956265   3.1511831  66.1540969  70.1167757
   2.7900504  66.9931562  68.9099002   4.2268562  26.1566742  53.6121349
   4.8460721  26.8786092  53.7199072   3.5255193  26.3476868  54.2349271
  29.6620941  81.9747013  30.4339194  29.3780040  82.2914949  29.5765018
  29.3465900  81.0718063  30.4722476  41.9303703  72.4071019  48.9263439
  42.2475004  71.5125691  48.8019657  41.3436985  72.3505353  49.6805668
  69.2992496  32.7714705  38.5439348  69.8036814  32.3382926  37.8553557
  68.4269619  32.3821044  38.4828186  47.2177362   8.7992567  19.0945745
  46.7196369   8.6880010  19.9043608  47.3538303   9.7441739  19.0249956
  26.4291095  67.3428666   2.9038355  26.4234399  66.5702616   2.3387852
  26.8073082  67.0345580   3.7273300  61.7998027  16.1509439  61.7090390
  61.2854862  16.1070605  62.5151323  61.4110565  16.8733998  61.2159244
  82.1735287   6.6405708  24.4863439  82.6471043   7.2653770  23.9371872
  82.5393391   6.7659605  25.3619528  84.1186047  29.9969530   9.7306240
  84.5890331  29.8562813   8.9089525  84.5863819  29.4591570  10.3695250
  66.4114571  23.7730861  56.4310694  65.7543898  24.3333745  56.8440723
  66.5350533  24.1507483  55.5602503   8.3540988  46.9394528  40.2075768
   9.2636943  47.2303902  40.1426029   7.8384208  47.7369272  40.0878143
  38.9926410  15.1122820  37.1184635  39.7171092  15.7295561  37.0167279
  38.6017227  15.0559723  36.2465429  52.9488682   7.4836023  52.8464810
  53.7845968   7.5700171  53.3050887  52.2895502   7.6886184  53.5094289
   5.6528318   4.2984390  45.2861357   5.0162923   3.7062436  45.6865740
   5.5819243   4.1268298  44.3471146  16.5399265  50.1394831  48.4964418
  16.3094806  50.7287394  49.2147064  17.4364280  50.3826581  48.2653856
  47.3384618  71.3410734  44.9186134  47.6499033  70.7647370  45.6165218
  47.9498672  71.1951076  44.1967344  56.1423492  53.1666405  66.1464850
  56.0332107  53.9275236  65.5760656  55.3093719  52.6991935  66.0842497
  65.3675556  64.9486017   8.5040063  65.5326891  64.2159939   7.9105020
  64.4351625  65.1373291   8.3979034  82.4249147  72.5161655  67.6357431
  81.7888092  72.1125562  67.0452361  83.0070280  71.7990740  67.8870506
  65.7491207  13.2696998  26.8804455  65.6022644  13.2711804  27.8263116
  66.2892008  14.0436661  26.7207050  26.7196464  79.3620727   7.2023344
  26.6079282  78.7443404   6.4797288  27.0425796  80.1613944   6.7863643
  61.0582542  76.5793275  35.3822708  61.9958782  76.3997089  35.4517531
  60.9734630  77.5036003  35.6162810  13.0343055  72.2165330  61.5344827
  12.9485130  71.8062694  60.6739263  13.0922317  71.4818819  62.1453558
   2.1449470  61.4229019  69.5024320   2.6254129  62.2308023  69.3216517
   2.4633645  60.8029432  68.8463112  45.8940219  70.9925325  68.3464412
  45.4460143  70.1703985  68.1474130  46.8126582  70.8209307  68.1393413
  36.3917112  69.6177553   7.0128983  35.8719301  68.8376032   6.8194491
  36.1435985  69.8553931   7.9063189  60.5045604  69.1886961  11.3502097
  60.0379276  69.3087076  10.5231178  61.0438537  68.4103714  11.2101972
  83.4753323  15.8866310  38.7986875  82.7013493  16.1481047  39.2974949
  84.2081833  16.0429823  39.3942618  21.5244722  76.0430987  64.1007148
  20.8035039  76.2019522  63.4914504  21.1517286  75.4666312  64.7677825
  61.2749958  70.1199675  50.7187080  61.6632128  69.8160362  51.5391636
  60.3622580  70.3051186  50.9397459  73.1175232   7.9462665  22.2807908
  73.6046457   8.1655025  21.4865112  73.1225777   8.7534052  22.7953148
  19.4034792  36.5789107  16.3195546  19.4279314  37.4166957  16.7818864
  20.1518608  36.6122425  15.7236989  52.3517799  33.9872122  16.1698031
  51.6795444  34.4118643  16.7027175  52.1824074  34.2961264  15.2797925
  15.6838155  14.2236722   2.8210494  15.9607053  14.3683231   1.9162622
  16.3982511  13.7212932   3.2127547  65.7175541  40.5917549   4.9298379
  66.0694027  39.7669530   5.2647024  64.9944782  40.3298759   4.3599167
  22.1466493  38.6808692  28.8971424  22.8512287  39.0584575  29.4236636
  22.5919342  38.2939874  28.1433010  60.5361080  12.2637212  35.9954476
  61.4848137  12.1820033  35.8978844  60.3787518  12.1270108  36.9296741
  76.2713575   5.4347765  61.1514711  75.6258392   5.9313548  60.6485319
  76.7098475   6.0912859  61.6927242  43.5315609  25.7550979  28.3261657
  44.4025278  25.4062414  28.1365728  43.0628729  25.6945109  27.4937654
  57.8101635  16.8764162  49.9927568  57.6775742  17.7304888  50.4041147
  58.7609720  16.7703080  49.9622011  43.8467312  29.6167016  32.8774691
  44.0284443  29.7133994  33.8122749  43.5072327  30.4707289  32.6098704
  42.5348663  17.8636169  53.0688667  42.7745676  18.7665522  53.2773972
  42.5512934  17.4106443  53.9119434  51.4945936   4.3859887  39.4532657
  51.7772436   3.6800665  40.0346565  51.2173605   5.0862771  40.0440025
  84.7186184  79.9056262   3.6049312  84.3441581  79.5587540   2.7951851
  85.0497055  80.7709025   3.3642876  45.2708769   3.7365139  12.3679030
  44.5902586   4.0626359  11.7791402  45.4084921   2.8292257  12.0956504
   4.5458841  28.0339479  39.5832753   4.8042861  27.3298788  40.1780415
   5.3419828  28.5521817  39.4654131  59.4864177  59.6893178  35.6169701
  59.7993755  60.5770885  35.7906222  58.6934948  59.6069538  36.1468077
  62.7327108   3.6004102  38.8013983  62.9418659   4.2428267  39.4794750
  62.8654623   4.0696824  37.9777527  73.3527327  44.4025278  27.2254467
  73.9146471  45.0843239  26.8571520  72.7322340  44.1995335  26.5254426
  44.9150705  81.3657530  29.9611330  44.6807384  81.1205342  29.0660429
  44.2254066  80.9822264  30.5028892  24.1964626  68.1097793  25.8266258
  24.9450540  68.2173287  25.2398753  23.4570694  68.4754848  25.3410459
  81.7215157   7.9202980  37.1916294  82.5633526   7.8219604  36.7467952
  81.9466686   7.9790616  38.1201148  28.6025262  59.2267275  15.9968829
  28.7334466  59.2782640  16.9436860  27.6520467  59.2453384  15.8851588
  85.1652145  43.6273527  16.6844356  85.6043243  42.9032040  16.2383103
  85.8623505  44.0665340  17.1716261   1.7931581  37.6687932  65.7127953
   2.3251844  38.0456233  66.4136410   1.8870283  36.7226219  65.8231592
  37.0203542   3.4453174  66.6123374  37.8018140   3.6076375  66.0839431
  36.6943168   2.5997230  66.3042716  66.9067812  30.9116507   2.9251951
  66.4726543  31.5808702   3.4542605  67.5302076  31.3991618   2.3867640
  83.7254524  33.9919949  34.3965220  83.7505817  33.6592817  35.2936840
  83.0273914  33.4909582  33.9747238  43.5607458  22.4188423  26.7813921
  43.7685895  23.1736088  26.2306070  43.1977487  22.7988672  27.5814223
  72.8809977   0.8385643   0.2667661  73.1468439   0.9449670   1.1801316
  73.4682322   0.1652066  -0.0767174  72.1599983  10.9294565   7.3572699
  71.2738632  11.1485107   7.0691602  72.0624851  10.7057293   8.2828347
  76.8026829  42.4492741   0.1823044  76.1312675  43.0767727   0.4500374
  77.3995066  42.4037981   0.9292766  27.3397731  56.1423595  61.2160538
  27.4837970  55.3569586  61.7439125  26.6218280  56.5980013  61.6555647
  79.9976683  51.8573570  56.4847374  80.8509636  52.2455215  56.2912321
  80.1674938  51.2540627  57.2082233  10.4591489  32.4635005  37.5677037
  10.3218484  33.2757831  38.0551267  10.1424051  31.7760921  38.1536865
  82.3583126   4.4452024  44.4082355  83.0020237   4.4145256  45.1159954
  82.4728107   3.6158505  43.9442301  56.7046261  32.7236080  15.8421266
  55.8004522  32.8012300  16.1465514  56.6320038  32.3246932  14.9750483
   1.6071439  47.4851942  25.3336811   0.7623506  47.1655560  25.0168324
   2.1241689  46.6927099  25.4781961  84.8590183   0.7351779  26.0879540
  85.0613308   1.4929783  26.6366243  83.9796734   0.4713086  26.3587952
   8.1874894  66.8563659  56.6182117   7.7192163  66.5008838  57.3735825
   7.5020932  67.2364934  56.0686998   1.4651418  26.2592936  53.9555788
   1.0822034  25.5447721  54.4645452   0.9875894  26.2452650  53.1261349
  84.6655083  48.9740276  20.6967282  84.9645996  49.1128874  21.5953326
  85.3142166  49.4246578  20.1560450  56.5037250  72.9311877  12.4583876
  56.4730930  72.7802139  13.4031093  57.3451423  72.5660657  12.1846461
  33.6663747  27.2001338  44.1118479  33.5360361  27.3941135  45.0400829
  34.6078420  27.3056817  43.9750004  65.6374693  55.5587816   7.4896955
  65.0264978  54.8294401   7.5945997  66.0788536  55.6251669   8.3364594
  55.2503204  65.3476845  39.4755054  56.0259342  65.8094489  39.1570425
  54.6011829  65.4629265  38.7815452  19.9916101  26.6719604  27.8586459
  20.6483961  26.7013383  28.5543442  19.2490411  27.1637201  28.2093668
  80.9912395  64.2301464  10.5922318  81.6336823  63.9029932  11.2218845
  80.1573658  63.8665199  10.8900082  20.3409147  57.9399331  69.8231715
  20.3446531  57.3693819  69.0546088  20.7170772  58.7633069  69.5120571
  13.9258409  32.5706887  21.3101983  14.8038984  32.7021861  21.6679215
  14.0407205  32.6386356  20.3623509  52.2496986   7.5945111  47.9056613
  52.1822071   6.6488525  47.7737181  52.0556068   7.7212163  48.8343732
  66.0812521  44.4427109   1.8342334  66.6863632  44.0779305   2.4799928
  65.9328461  43.7282944   1.2147070  74.1227722  41.9652748  14.6979713
  74.8910236  41.6980648  14.1933656  73.5783625  42.4416924  14.0711749
  79.0833139  49.9891520  28.9893723  79.3156481  50.8095551  28.5544157
  78.8504267  49.3966770  28.2745528  22.0995426  39.9488521  12.3834348
  23.0562401  39.9239588  12.4018645  21.8881631  40.4533339  11.5979111
  20.7592487  64.0598781  64.0755723  20.3297328  64.6447737  63.4513561
  20.8941840  63.2470591  63.5883860  70.9306526  15.0042554  67.8769596
  71.7783737  14.6013375  67.6892183  71.1454868  15.7939264  68.3734484
  20.4759263  77.9978903  66.7961119  20.8267640  78.7520702  67.2697772
  20.4896592  77.2858412  67.4356664  77.2235250  43.0756235  46.9048452
  77.7377272  43.4144402  46.1720181  76.6565609  42.4114752  46.5128040
  53.1602573   6.7212602  58.2976119  53.6453628   7.5254747  58.4824030
  53.3684158   6.5202829  57.3851900   1.8719221  39.6664643  19.6496522
   2.4858690  38.9723635  19.4097936   1.2938619  39.2619252  20.2965021
  26.8490339  60.2092505  26.0764551  26.3010431  60.8961439  26.4560747
  27.3206830  60.6443071  25.3661704  68.5124874  53.8268089  27.8538728
  69.2472410  53.7379217  28.4608841  67.8295469  54.2596197  28.3662248
   0.5970026  31.9907212  17.2530580   0.6216455  32.8864002  17.5897837
  -0.1507353  31.5890026  17.6954830  27.8698850  35.5376053  26.8464136
  28.2570196  36.2656569  27.3325205  27.9669309  34.7831535  27.4274635
  80.4858971  18.6104929  10.1448989  80.2061462  18.9603043  10.9908319
  81.2092686  18.0206096  10.3570330   8.8952016  64.7696145  65.0568174
   9.1038036  63.8782938  64.7770588   8.6426973  64.6793277  65.9756867
  47.3335409  24.4269490  37.6170039  47.0375538  24.6727991  36.7405438
  47.8287268  25.1862693  37.9243398  17.4836278  42.4806690  38.1857133
  17.0045782  42.4462414  37.3577261  16.8230272  42.2932863  38.8525939
  56.1519003  17.5018764  37.4361420  56.9259596  18.0065918  37.6857877
  56.3486671  16.6077209  37.7154279  21.9788480  21.7558622  16.6317534
  21.5706945  22.0104647  17.4592924  22.2645307  20.8533192  16.7732954
  67.6293421   2.0665416   2.5308090  68.5766840   2.1983263   2.5683159
  67.5141430   1.3236216   1.9383305   7.7155424  31.6282678  15.6145704
   6.9884038  31.0624003  15.3551626   7.3470617  32.5116396  15.6042707
  74.3850231  60.9107399   3.5274214  74.6642685  61.8068314   3.3396125
  73.7262869  60.7202053   2.8595930   7.2883535  43.3439922  44.9193668
   7.6926828  43.1713152  44.0691137   7.9098726  42.9912806  45.5561924
  60.9705066   2.2473355  69.2925744  60.1278305   1.7954084  69.2491233
  60.9233570   2.7652904  70.0961496  61.5443038  47.0695652  70.1348091
  61.4593314  48.0217124  70.0855379  62.4284744  46.8911077  69.8144704
  66.8128824  36.9685149  13.7227774  67.2593594  36.2995028  14.2417336
  67.4215269  37.7071691  13.7096059  10.6545758  81.6104356  35.2168274
  10.0291753  81.2367305  35.8376741  10.3484750  81.3128687  34.3600965
  16.1949373  37.5626349  22.0197701  16.6682077  38.1218624  22.6358223
  16.8335939  37.3677039  21.3339448  64.1112232  15.6816185  31.0042357
  63.4150314  15.0473034  31.1751008  63.6511135  16.5071106  30.8522749
   2.7147102  13.4513290  52.8292386   3.4264421  13.8566024  52.3338358
   2.8059434  13.8063104  53.7134878  79.8886585  44.3404579  22.8072762
  80.7683945  44.6147060  22.5482750  79.6212673  43.7210131  22.1282935
  20.9150266  40.5298249  66.2979804  21.2336683  40.8375571  67.1465088
  21.6501951  40.0400666  65.9293408   5.6345582  34.9136806  26.7788029
   6.4035154  34.3684435  26.9450641   5.2126337  34.5081329  26.0213423
  42.8524399  42.7409506  19.8077369  42.7851295  43.6953354  19.8369145
  43.6441851  42.5721884  19.2969584  28.9866351  41.2394555  69.3836953
  29.4393253  40.7776314  68.6779888  29.0949725  40.6737971  70.1482370
  82.4249649  45.3640938  13.6009789  82.5422382  45.2901316  14.5480847
  82.0844269  44.5101595  13.3343971  78.1578732   5.9289348  24.5625758
  77.4495268   5.3612721  24.2588687  78.5442305   5.4562557  25.2998233
  83.2360554  38.8781881  14.9405766  82.6858330  38.3233404  15.4934156
  83.4218121  39.6458983  15.4812658   5.7193971  63.4184027  24.7967243
   5.1920152  64.2000341  24.6319366   5.1466489  62.6888132  24.5603085
  37.7569151  11.3975927  58.0024831  37.4468135  10.8564063  57.2764055
  37.2656488  11.0839959  58.7617914  83.6304760  65.0694084   0.0199520
  84.0747070  65.9124470   0.1103920  83.3706284  64.8387051   0.9118513
  11.8599534  14.4208741   5.9322286  11.3177610  13.6334419   5.9792340
  12.7521635  14.0912688   5.8247441  69.9287987  26.5885782  12.4859548
  70.6250381  26.4642859  13.1309593  70.3878260  26.6624141  11.6492510
  81.8137932  31.7791343  15.0125253  81.4192581  32.3447633  14.3487167
  81.3218689  30.9602118  14.9524701  62.4861479  33.7792969  56.5893650
  62.2691298  34.0230227  55.6895113  61.6382217  33.6370277  57.0100975
  35.4893804  33.4248877  21.5423846  34.6855188  33.6654377  22.0030069
  35.9764886  34.2453527  21.4662838  85.2021885  57.4668264  19.8588729
  85.9027195  57.5012064  20.5102587  84.4344330  57.8122377  20.3143644
  84.9646568  36.5653467  44.9312639  85.3899193  36.7507982  45.7685137
  84.6762085  35.6556654  45.0054455  37.7234101  40.2154207   9.7553033
  38.1310773  40.8915997  10.2964318  38.4597588  39.7274852   9.3866032
  60.0230980  37.7347279  12.3031282  60.6786585  38.3639312  12.0021749
  59.6712732  38.1206274  13.1053352  79.6170330   9.8045512  65.9164174
  79.1295242   9.0002271  65.7385765  79.4108390  10.0131007  66.8275837
  62.7072334  42.7692890  38.9349914  62.0782375  43.3423424  38.4965801
  62.2492170  41.9333410  39.0223694  79.3560219  43.6716747  26.2145734
  78.8757658  44.3104601  25.6877542  80.2748394  43.9202833  26.1135888
  72.2572613  28.6617351  36.8797112  73.0492258  28.1516266  36.7099667
  71.8054247  28.6903143  36.0363507  62.7949286  42.0365238   7.4854070
  63.5208368  42.3155785   6.9273615  62.6229334  41.1328936   7.2206366
  61.3805246  29.3789983  46.6492748  62.2743702  29.2549396  46.9684649
  60.8535528  29.4721150  47.4429131  67.8767920   7.9154938  21.8682432
  68.7072611   7.5525987  22.1762347  67.7512980   7.5257570  21.0030341
  42.7923131  54.3792582  23.3444309  43.1552816  53.8132286  24.0256763
  42.4524045  55.1377344  23.8192010  16.3456655  23.8528609   7.4144679
  16.5259767  24.7722960   7.6103312  15.5286527  23.6652875   7.8765720
   5.1305414  18.7132776  20.8013153   5.9016443  19.2357135  21.0219669
   5.4743314  17.9862952  20.2821445  79.0928888  34.0164661  25.3920746
  79.5954704  33.5607386  24.7168303  78.9233875  33.3484149  26.0563087
  83.0751800  19.6868201  66.8178601  82.3235893  20.1916858  67.1284123
  83.0824852  18.9044210  67.3692496  55.1203060  70.0183248  48.5297108
  55.8606243  69.8058783  47.9613590  54.6303463  70.6834852  48.0462456
  82.0351028  38.0594754   2.3306037  82.7611637  38.4591293   1.8517065
  81.2517643  38.4695935   1.9639666   2.7799821   7.7039748   9.7788727
   2.7899862   6.8098998   9.4371700   2.5320173   7.6062620  10.6982183
  81.5154552  36.0023141  30.8174992  80.8769703  36.7062044  30.9320188
  82.3640537  36.4246941  30.9505796   0.2566648  35.6175900  27.2898269
   0.6829763  35.3026819  28.0869007  -0.0747656  36.4850068  27.5221586
  53.4277248  26.6076875  15.1935339  52.5478935  26.8813229  15.4528630
  53.7131023  27.2769284  14.5715129  36.3481044   3.6557742  63.1894664
  35.4398441   3.4620305  63.4213136  36.8223428   2.8470632  63.3826439
  26.2947082  70.1817353  66.1334930  25.8718681  69.7832043  65.3728299
  27.1789264  70.3919990  65.8332000  22.5379396  27.5218081  67.3901320
  23.0811048  27.8853154  66.6908026  21.6906286  27.9544759  67.2847509
  57.4861717  31.6493821  18.2334840  58.1429386  31.2937117  17.6348281
  56.7684889  31.9269633  17.6641786  71.1210918  21.8807840  12.8158987
  71.8158913  21.2294149  12.9118192  71.2819004  22.5080824  13.5207891
  31.7822265  18.3852836  58.7270145  31.6804933  18.8273879  59.5698826
  32.3497581  17.6378938  58.9155416  78.5992289  15.9653902  32.7468300
  77.6593208  15.9591722  32.9278278  78.7538338  16.8039131  32.3118496
  28.7206197   5.6608456  26.5192938  28.3197237   6.5300459  26.5182424
  28.1433416   5.1314920  27.0695353  69.8314667  38.0787659  19.1068828
  69.2787886  37.5551772  18.5266829  69.5280075  38.9776635  18.9798975
  84.6634315  67.7494199  38.3804075  84.9004625  66.8809350  38.7056510
  85.4870580  68.2371290  38.3775870  62.1713448  14.7172475  13.8078725
  62.0855856  14.2108142  14.6155870  62.8704739  14.2784834  13.3231640
  82.7434921  15.4848325  15.1316130  83.2564831  16.0211146  15.7361555
  81.9051170  15.9410155  15.0591278  79.8471022  20.0712681   0.9395493
  80.1737785  20.9709072   0.9521483  78.9036369  20.1571083   1.0764445
  73.8978291  36.0259032  23.3012176  73.8403511  36.9337630  23.0033636
  74.3022728  35.5590701  22.5699663   0.9895730  25.8840084  27.9470468
   0.5680585  25.2492833  28.5264301   1.8986536  25.5897474  27.8903556
   4.9813031  75.4982264  53.5691456   4.6200418  75.3621538  52.6932435
   4.8999738  76.4402635  53.7180857  73.4747076  32.4420023  29.0186119
  74.1324806  32.9425883  28.5359311  73.9299679  32.1457958  29.8067951
  69.4936132  42.6048565  24.0852427  69.1132498  41.7283106  24.1420007
  69.4757843  42.8136635  23.1512666  10.7530237  18.9293349   8.0497491
  10.7761980  18.8460290   9.0030360  10.8006883  18.0286002   7.7293813
  20.7644201  57.5267935  26.0331988  20.8654905  56.5749741  26.0403633
  20.4746271  57.7435589  26.9193530  67.9531765  29.0013075  17.1084177
  68.1393051  29.8516440  16.7102802  68.0753422  29.1443825  18.0469465
  52.8178310  24.3381071  54.2197180  52.4325371  24.8709869  53.5241508
  53.5104895  23.8408899  53.7847185  71.1600256  17.5529468  44.2311859
  71.3422203  18.2951570  43.6548519  70.3534222  17.7952647  44.6860552
  85.2754021  19.3677521  26.5118098  85.4939938  19.6141791  27.4105453
  85.1401615  20.2012801  26.0610628  30.9401846  78.3598336  23.8635111
  31.1017418  79.1854521  23.4069109  30.8828830  77.7073400  23.1655145
  16.9536520  12.4039686  13.2469988  17.8407121  12.7605355  13.2940495
  16.8573404  11.8944287  14.0515637  55.2164459  44.1712856   9.7353446
  55.3676224  44.4230080   8.8242948  55.7256079  43.3688545   9.8497659
  83.5066509  30.6802630  41.4351892  83.5453796  30.6090736  42.3889542
  83.3590412  29.7837901  41.1338949  59.6441650  31.2297463  16.2768662
  60.0086260  30.5550647  15.7039762  59.9607658  32.0541430  15.9075904
  69.7672081  67.2053480  25.4603267  70.5975485  66.9023657  25.0929403
  69.7141504  66.7792702  26.3158250  34.4306207   8.2799333  29.8762083
  34.3455530   8.8168514  30.6640625  33.6788202   8.5252088  29.3368864
  85.4807377  33.2871509   7.3665404  84.6266937  32.8617549   7.2899371
  85.7879066  33.0517435   8.2420200  13.9415575  37.7658629  19.6862090
  14.7623086  37.8172112  20.1760745  13.2792116  38.0958939  20.2933407
  64.2752075  19.7352525  36.1393015  64.3518734  19.2076465  36.9342772
  63.5935688  19.2996713  35.6275646  78.8228464  19.4094396  43.7957001
  78.5021400  18.5576105  44.0919542  78.1437063  20.0279093  44.0649462
  85.9285641  24.5545840  29.4535255  85.5963326  23.6691236  29.3058205
  85.3527355  25.1161242  28.9345551  51.4189100  57.2117853  14.6216595
  51.2219000  56.9566584  15.5229533  51.1990595  56.4394999  14.1006279
  59.4706106  39.1486597  14.9153507  59.4330645  39.8257804  15.5908740
  60.4008770  39.0738535  14.7026551  49.6196937  68.9687168  45.4245472
  50.5211115  68.7307595  45.2076149  49.6896553  69.4407176  46.2543392
  24.3278051  18.5609984  21.6691232  23.6654306  18.1301177  22.2093463
  24.8386026  19.0832889  22.2876120  80.6085014  60.7122421  29.6697664
  79.9107361  60.2945662  29.1648889  81.4057732  60.2573776  29.3983006
  55.9735632  24.6747088  48.2708836  55.1640129  25.1750731  48.3733082
  56.6280842  25.3267360  48.0204821  67.0458603  32.9450822  25.6114125
  67.0464611  32.4461150  24.7945499  67.8957558  33.3852577  25.6238246
  63.5516739  27.3248672   3.0276343  63.6330843  28.2778740   3.0648056
  63.3654928  27.0650148   3.9298788  82.8526688   5.1140171  12.0482862
  82.1188164   5.4477096  12.5643611  83.6096382   5.1941621  12.6286364
  35.5362796   3.7789794  59.1951339  35.5348491   4.4660159  59.8616282
  35.0049019   3.0779906  59.5726029  37.5719380   4.5402536  34.9874043
  38.2963419   4.5551929  35.6129026  37.1998262   3.6624873  35.0727940
  31.1831617  76.3930254  21.4588714  30.9287309  75.4744612  21.5468240
  30.7272815  76.6936093  20.6727076  56.7960882  57.7650881  26.5278959
  56.9058990  56.8277931  26.3677311  57.6887465  58.0992365  26.6158676
  29.0774751  45.1340103   9.0779787  29.9965787  45.3655529   8.9443260
  28.6613012  45.3085899   8.2338482  82.8303909   3.0818769  55.8510904
  82.1845436   3.2442733  56.5386502  83.2306099   2.2461101  56.0909943
  65.7330656  43.4918404  10.8815002  66.1947203  43.9399099  10.1727378
  65.5238724  42.6291752  10.5233467  44.3089866  21.3985892  69.3416388
  44.6780204  21.2039586  68.4801496  44.7249365  22.2210237  69.6001349
  64.7797775   5.7065602  70.4954418  65.5454635   5.9253999  71.0265469
  64.1809845   6.4422008  70.6239210  80.7758427  65.9491014   5.8634627
  80.1627159  66.5446758   6.2942743  80.8050823  65.1813221   6.4343321
  23.9655138  42.8587198   2.5771379  24.3879438  42.9524660   3.4309512
  23.8030172  43.7573719   2.2903466  76.2749624  37.3821688  39.1696048
  75.4055929  37.5987291  38.8326621  76.7242813  36.9749641  38.4289789
  16.8405748  35.3116775  44.4189692  16.7774892  34.8695683  43.5723352
  17.7130437  35.0868011  44.7421741  71.6043282  70.6547880  34.6894717
  71.6250134  69.7027540  34.5923281  71.9790220  70.8153677  35.5555272
   6.4020849  27.9858875   2.5087592   6.7503477  27.6605058   1.6786537
   5.5575204  28.3732486   2.2787803   2.6801992  19.3014777  49.5975637
   2.8352094  19.4148195  50.5353022   1.8522478  18.8237345  49.5476866
  56.1428070  32.5023007   9.3093759  56.8339729  32.4678659   8.6480600
  56.2305832  33.3705854   9.7025764  20.6988454  32.2802663   5.7451910
  21.2751317  31.5469933   5.9606862  20.3258348  32.5467181   6.5854895
  13.8860082  65.6171711  66.7109571  12.9939603  65.8943303  66.9199215
  14.0640020  66.0078843  65.8554499   6.8894506  54.7287416  29.7815490
   6.0869527  55.2185869  29.6018958   7.0906282  54.9258089  30.6963873
  10.8546281  77.4140978  33.6520839  10.1749158  77.8948927  33.1797838
  11.4380002  77.0885658  32.9665613  83.2536316  38.4794950  10.1947773
  84.1339302  38.7229228   9.9083477  83.1713963  37.5558376   9.9574441
  85.2399445  47.9974794  15.1152790  84.3596458  47.9797077  14.7398007
  85.6174946  47.1497011  14.8808432  23.3834005  64.3677092  32.2221160
  23.9133573  65.0924110  31.8901634  22.6095987  64.3591738  31.6587520
  52.7947521  55.9483862   7.7278566  53.2962370  55.7089090   8.5072118
  51.8921614  55.7123041   7.9419315  70.3098869  33.2966161  17.0277953
  69.4762802  32.8714991  16.8262911  70.2341747  33.5480666  17.9482687
  81.0467529  29.9488401  34.7898889  81.3710880  29.6288204  35.6316876
  81.6944790  29.6467900  34.1531467  68.2189131  59.9411488  22.3466086
  68.6739779  60.6844997  21.9509172  68.7177372  59.7501850  23.1409264
   1.1384511  22.4410888  53.2181482   2.0141721  22.7358171  52.9681770
   0.8731485  23.0420085  53.9143793  78.8779449  13.5911143   7.8171116
  79.3894720  12.7954280   7.9635864  78.5597181  13.5091639   6.9180858
  25.0537134  42.9321575   5.2690822  25.5114103  43.7106562   4.9517694
  25.6855417  42.2215223   5.1594687  42.9474448  60.7145400  61.7396705
  42.6480960  59.8172672  61.5929620  42.4082279  61.2457426  61.1537491
  40.2701759  26.3971254  54.3452661  39.5153856  26.1635276  54.8855977
  40.9830379  26.5235397  54.9714224  73.6351299  43.8800907  20.5859447
  73.0510664  43.3417511  20.0518179  74.5154619  43.6062098  20.3285766
  22.9695440  17.7955639  10.9000576  22.1714998  18.3048010  11.0416031
  22.9678750  17.6033890   9.9623489  66.2810230  11.6457721  63.6281071
  66.1346435  11.2302180  64.4778840  66.7964935  12.4268743  63.8290815
   6.4688898  40.7442188  38.6820889   6.3598180  39.8848343  38.2749057
   6.4722085  40.5650568  39.6223664  13.5654378  51.9485521  32.9897738
  14.3437791  51.3915968  33.0045748  12.9264379  51.4814949  33.5280728
  85.6736469  54.1361809   6.4896464  85.2092266  53.4687996   6.9947731
  85.0661945  54.3716335   5.7883656  61.1008406  28.1861901  17.0460439
  60.1544857  28.1383276  17.1814990  61.4533520  27.4593258  17.5594997
  49.8250103  45.4615184  65.7635645  49.0661764  45.4835101  66.3465939
  50.4266262  44.8421737  66.1767228   4.5838857  58.3079100  16.9886076
   5.0047422  58.4228182  16.1366057   5.1857782  57.7485085  17.4795568
   9.6378923  24.2406011  13.6735463   9.8441816  25.1669216  13.5485995
  10.2112985  23.7825251  13.0590463  75.6289482  76.3869476   7.4822116
  76.4439154  76.6935301   7.8797871  75.4729748  75.5323935   7.8842658
  82.6797247  16.7012824  23.4539676  82.5022745  17.3517455  22.7745247
  82.6221991  17.1904505  24.2747211  21.7760683  54.4770908  39.2747784
  22.3304773  54.4816208  38.4944963  22.3748517  54.2720032  39.9928522
  83.2450581  52.3070049  45.4909563  83.9468575  51.7622328  45.1346684
  82.4421406  51.8286133  45.2843523  31.7393041  59.6076111   3.2925208
  32.6668096  59.3782226   3.3503755  31.7295767  60.4559306   2.8492482
  78.6399675  29.9163310  29.4806321  77.9466296  29.4450872  29.9426301
  79.3582941  29.9644058  30.1114495  43.5791076  50.5811123   2.3156961
  42.6801467  50.2836815   2.4558194  43.7704778  50.3458021   1.4078219
  44.1123295  74.1838983   9.8464807  45.0051451  74.1866020   9.5013650
  43.5901547  73.7743000   9.1567071  38.0091989  63.5423569   8.2504638
  37.4912399  62.7447680   8.1418403  38.7122220  63.4610251   7.6059659
  85.5789519  23.1689334  57.1497440  85.1306237  23.6021566  56.4234209
  84.8948884  22.6587319  57.5833178  23.0306673  53.9670324  67.0600939
  23.0689359  54.0949535  68.0079365  23.4975219  54.7200155  66.6977501
   9.7435403   6.3647252  18.3259284  10.5849314   6.7567021  18.0921602
   9.9621320   5.4739815  18.5998344  23.2562101  74.2741875   3.3292563
  24.0400237  73.8624123   2.9655107  22.5393093  73.9455084   2.7868016
  45.7169116  65.6277517   5.5736144  45.5395019  65.7473544   6.5065940
  46.6704381  65.5658797   5.5171331   3.4862834  60.3871107  52.6158857
   3.7347153  61.1989069  53.0580425   4.1587585  60.2637911  51.9459581
  17.8609824  24.9351716  57.3331261  18.3677840  24.9147177  56.5213585
  17.9862094  25.8218074  57.6713896  33.1538559  23.3070009   2.2833760
  32.9951072  23.7269323   1.4379867  33.8771225  22.7021329   2.1182950
  86.4048095  37.8630304  62.4727964  85.6284374  37.3084331  62.5496197
  87.0126345  37.3515534  61.9387817  71.9629287  77.9050072  47.8739023
  71.4421200  77.4370976  48.5266256  71.9127416  78.8229220  48.1406307
  10.6567335  23.8973713  61.1968851  10.3475940  23.1441021  61.7001247
  11.4063311  23.5644364  60.7034397  34.5942206  65.2737621  33.4700902
  34.1668284  65.3960494  32.6223786  33.8827676  65.3327087  34.1077359
  75.0059306  67.1125984  32.9837322  75.8551120  66.9706106  33.4020185
  74.5349454  67.6875067  33.5869622  30.7444645  18.3048122  15.5259927
  31.6251922  18.2856767  15.9004052  30.7936621  18.9617221  14.8315270
  15.7115722  52.7783918  63.1165791  14.8260915  53.1312275  63.0290508
  16.1275625  53.3357573  63.7742519  31.4939308  15.5129600  63.6856985
  32.2558427  15.0425911  63.3473587  31.0360265  15.8211589  62.9036713
   8.6970341  42.3200369  54.1285515   8.1774122  42.2466850  54.9290752
   9.4238317  42.8956223  54.3666649  23.0622840  77.5223589  70.2111912
  22.8285456  78.3840275  69.8660469  22.3287129  77.2844124  70.7781839
   4.9702597  35.4014478  22.0210012   5.0821090  36.0780380  21.3532098
   4.1414786  34.9782810  21.7967637  36.8378998  30.3243320  11.6933091
  36.8185330  30.3501432  12.6499684  36.8029762  31.2434070  11.4281591
  65.4126906  31.3707495  51.8794775  64.7662782  30.8472419  51.4058495
  66.1161828  30.7547879  52.0842266  17.8805900  61.3981533  53.6233950
  17.7622175  61.9035721  54.4276142  18.0382204  60.5031538  53.9239931
  71.4803482  27.2749536  10.0649293  71.5681124  27.6778190   9.2010816
  72.2027446  26.6486995  10.1116593  33.2936678  74.5630173  21.6859944
  33.2975775  74.0662507  22.5041802  32.6773504  75.2783612  21.8430551
  46.3717783  79.4975523  24.8207601  45.8891333  78.7460593  24.4764646
  45.6924606  80.1010493  25.1216825  11.9004166  33.4516668  43.4058142
  11.8424678  34.3975592  43.2710552  12.7923250  33.2262611  43.1413794
  62.6579594  68.7347460  70.1561451  61.9513583  69.2537880  70.5402613
  62.7643442  69.0907145  69.2739868   1.5720475  41.1787367  34.7241354
   1.6817908  42.0825863  35.0195026   0.6243045  41.0455227  34.7077250
  55.0583477  40.8297603   9.6286614  54.2423082  41.1264674   9.2258294
  54.8612953  39.9493568   9.9484952  76.2524616  66.1663198  66.9059610
  76.4629733  65.9610844  65.9950256  76.5566587  67.0660257  67.0252275
  28.9605236  30.6708813  28.6850667  29.2905283  29.9889922  28.0999541
  28.3836985  30.2071047  29.2920423  77.2842347  47.4903250  68.7044907
  77.2708600  46.5667152  68.4534883  78.0700105  47.8410959  68.2852650
  35.4921293  19.9572945  67.5681305  35.6339717  19.7113550  68.4822607
  34.7948551  20.6122088  67.6017284   4.9437305  40.7208872  51.8721676
   5.8967859  40.6348324  51.8947792   4.7864413  41.5046930  51.3457203
  84.9977122  45.3445721  63.6044216  84.7771212  45.2849531  64.5339441
  85.3670227  44.4878006  63.3904648  55.3625727  77.2454957   1.9527419
  55.4793167  78.1895188   2.0596107  54.6389103  77.0257143   2.5394614
  68.5254407  73.8150863  22.7099259  67.7272320  73.7437490  22.1864732
  68.4675527  74.6787838  23.1184705  79.8292624  13.7932909  65.4993725
  79.8442059  14.4816577  64.8344231  78.8991093  13.6173081  65.6410694
  38.8010932   0.6515663  23.1190808  39.6106649   1.0266702  23.4656747
  38.3616746   0.2813785  23.8846620  79.7676569  25.3087759  60.5270195
  80.3005212  25.9191346  60.0173616  80.1267117  24.4461513  60.3191900
  75.1390756   7.8620927  16.7900403  75.0514341   8.7372510  17.1677239
  75.5295254   8.0108754  15.9288533  32.6688171  28.8443391  14.4201406
  32.1766544  28.0562703  14.6502622  31.9983888  29.4834440  14.1786893
  20.8364886  72.7767042  13.9351113  20.2757371  72.1181516  13.5251077
  21.5886194  72.2819475  14.2602952  13.4257532  28.4854810   0.2626308
  13.2804705  28.9345186  -0.5701320  12.7202440  28.7975471   0.8292850
  67.6422154  55.0832224  42.9002619  67.3120379  55.9629536  43.0827093
  68.4194791  54.9997807  43.4526491  11.5509355  56.9707918  30.8628368
  12.4578679  57.2546864  30.7483435  11.2330604  56.8197298  29.9726844
  67.0831645  20.2296655  38.5802205  67.1231962  20.4081123  37.6406510
  67.3281390  19.3077485  38.6595662  33.5227189  73.0817703  28.2708295
  32.8209085  73.2299713  28.9046510  34.0275640  73.8949803  28.2779630
  14.0954065  30.6459498  48.5483646  13.4913278  30.6488848  49.2908716
  14.5425200  31.4907289  48.6000156  22.9350638  40.5043793  47.4624538
  23.4487176  40.0162649  48.1059933  23.5639882  41.1012173  47.0569086
   5.3221726  65.8851910  66.8331957   6.1262721  66.2316704  66.4464045
   5.2118665  65.0256586  66.4266586  62.2610826  38.8883273  14.0250714
  63.1319196  39.0797632  14.3732484  62.1926374  39.4309108  13.2394822
   0.8312938  64.4136715  60.1089430   1.3320151  64.1750765  59.3288231
   1.4882635  64.7362518  60.7258415  11.7438793  22.5057340  56.6269875
  11.7779660  22.5904751  55.6741524  12.3535311  21.7951941  56.8262100
  25.2809119  33.8267827  32.0734024  24.4326711  33.5534692  31.7240882
  25.0683212  34.2894793  32.8839254  15.1932573  55.5183077  62.5235033
  14.7645974  55.8049965  63.3299112  16.1101091  55.7684898  62.6376343
  13.9098692   5.8794940  63.1406498  14.6046746   6.0827583  62.5144196
  13.4611630   6.7135102  63.2796144  53.0580587   8.1599967   6.5696223
  52.8476084   7.2311609   6.6655715  53.9971299   8.1749599   6.3848146
  76.7805528  73.3105564  38.3492756  76.1215055  73.0764914  39.0028048
  77.3760473  73.9012003  38.8105369  76.7551721  28.9517133  42.0128949
  76.9838465  29.3729226  41.1843331  77.2616614  29.4274442  42.6712163
  41.3359737  75.6081104  53.6315489  42.2407103  75.7526541  53.9086628
  40.9028482  76.4487267  53.7798595  82.2170711  19.7654168   5.4480537
  81.6979266  19.6118324   6.2374433  81.8023182  19.2209165   4.7789224
  85.5420995  66.9508699   9.0756829  85.6158805  65.9974769   9.1184791
  85.1815510  67.1244053   8.2061322  49.3081331   2.6361543  60.7927513
  49.7012806   2.0302719  61.4209032  49.4627190   2.2304291  59.9396849
  71.3871669  61.3900280  49.1951895  71.8743825  60.7890701  49.7588444
  72.0628511  61.8953896  48.7432051  11.0928094  73.0839586  56.5737391
  11.7027915  73.7479353  56.2523556  10.5679750  72.8502464  55.8081293
   1.9640781  47.3698664  64.8407459   2.6374090  47.1392822  64.2006779
   1.5097496  46.5461588  65.0177288  10.3856732  45.7846134  32.5367578
  10.9470583  45.2434509  33.0919297   9.6170284  45.9658019  33.0776628
  16.8653643  80.8543066   0.4709371  17.4892092  81.0401801   1.1727222
  17.4121523  80.6516913  -0.2881448   0.0027300  59.5060222   1.0537751
  -0.1806449  59.0558307   0.2291949   0.8026935  60.0030010   0.8825810
  75.8080006  27.2655074  20.1274236  76.3959456  27.4359386  19.3915494
  75.6746352  26.3177554  20.1129087  14.9888730  61.2089948  28.8840802
  14.4727803  61.8439440  28.3873780  14.3612934  60.5286471  29.1280206
   5.9313822  78.9313078  42.4370527   6.1552095  78.2146311  41.8433285
   6.2070614  78.6223507  43.3000565  75.8528412   1.6584508  11.2927087
  76.1956323   0.9753816  11.8690236  75.3295220   2.2166841  11.8678124
  11.8103480  34.8437166  65.9998608  11.9854391  35.3579378  66.7879915
  10.8700812  34.9448514  65.8518744  30.2510215  19.2704456  22.3680432
  30.6781483  18.7237899  21.7085202  30.1079870  18.6828916  23.1100305
  74.0328718  27.6736944  15.7413514  74.4675375  28.2829587  16.3380845
  73.6138011  27.0333021  16.3162454   6.2352145  62.9770565  62.7849817
   6.0882097  62.4115038  63.5431147   5.4978973  62.7936411  62.2027826
  41.4780581  76.2439660   9.3661912  42.2975564  76.5454010   9.7583612
  41.3729906  75.3490046   9.6890481  65.7979965  15.3454864  51.9804573
  66.4962649  15.9182954  51.6633701  65.8283639  14.5860970  51.3985300
   6.8414665  23.8020913   1.5506013   5.9582020  23.4364049   1.5990718
   7.1250750  23.8648860   2.4626620  45.4136420   5.1393668  33.7917359
  46.0893310   4.7617547  33.2286389  44.8269296   4.4082134  33.9851697
   5.6380981  58.7866688  63.7973356   6.4660650  58.4124804  63.4961939
   5.1364172  58.9344692  62.9956484  11.0597217  57.0366478  58.2609797
  11.5599620  57.8492069  58.1852341  11.3180006  56.5240860  57.4949455
  85.0724329  62.3941994  36.6937351  85.0727060  61.4782095  36.4158869
  84.6508300  62.3837090  37.5530219   1.9265021  41.6230202  66.8432951
   1.2597102  42.0001364  67.4172306   2.4480921  41.0627317  67.4179697
  20.1816034  12.7246571  61.8608093  19.4677246  12.8375542  62.4883938
  20.0961018  11.8196344  61.5610504  72.9896235  49.1100931  59.5194912
  73.4865212  49.3440866  60.3034353  72.0739877  49.2287874  59.7719860
  26.3657859  79.6081237   0.8552869  25.9516266  80.0626329   1.5888532
  27.0781184  80.1878980   0.5857070  60.0411191  28.8335674   3.3246072
  60.3742186  28.6472289   4.2024167  59.1124309  29.0243928   3.4563478
   7.9940916  37.3446910   6.2776597   7.4135424  36.8776243   6.8785270
   8.8004209  36.8288867   6.2742265  64.6104754  36.5499370  11.9824536
  64.3100113  35.6711690  12.2142156  65.3616548  36.7050140  12.5550969
  73.3239783  12.6204364  36.7290433  74.0985645  12.0741098  36.5957292
  72.6227415  11.9984882  36.9231637  22.2415209  48.9487076  69.5250988
  23.1234574  49.3123484  69.6037388  21.8843079  49.3553162  68.7356091
  52.9670859  78.4674267   3.0283244  53.8205743  78.9003400   3.0476554
  52.4945999  78.8360313   3.7747319   8.4035176  54.6836996  69.5245409
   7.8912002  53.8797092  69.4387341   8.7023610  54.6813726  70.4338884
  63.3273911  34.9990821  49.0152359  63.4767389  35.7983255  48.5101271
  63.1443405  35.3073406  49.9027634   4.4157329  68.2587481  58.1499386
   4.4949228  68.8010263  58.9347267   3.7988850  68.7329483  57.5923872
  26.7897296  32.5141454  66.0484695  26.8323207  33.3402896  66.5300369
  25.9690714  32.1125579  66.3339186  65.5353362  23.1279962  24.5555337
  64.7656626  22.5608508  24.6022351  66.2550045  22.5372712  24.3333657
  68.5470105  48.7205665   9.1951497  69.0107144  48.4823673   8.3923610
  69.1657162  49.2715041   9.6746381  85.3588773  15.4531114  23.9685567
  85.9116269  16.0775964  24.4383653  84.5164204  15.8987109  23.8794549
  22.9344517   8.6894072  49.1448116  23.8668400   8.5801543  49.3317556
  22.8970874   9.4269503  48.5358238  52.4806667  35.3157155   5.7056315
  51.6912598  34.9793975   5.2814134  52.9694948  35.7397001   5.0002845
   2.6681949  15.1766794  10.3782590   3.4782578  15.6779353  10.2845986
   2.4540306  15.2393310  11.3090833  61.0380841  33.3735912  15.2695973
  61.0205532  34.1517131  14.7124227  61.9655660  33.2394855  15.4645951
  61.9811336  18.6902921  19.3728097  61.6368080  19.2991893  20.0262006
  62.9091705  18.6044328  19.5910008  28.1158398   7.5173796  62.9194784
  27.5262440   7.0408858  63.5039091  27.7826636   7.3335112  62.0411730
  51.5065527  72.6766042  21.1764272  51.6763521  73.5089377  21.6175778
  52.2881961  72.5230054  20.6456883  64.2660630   7.6823919  50.9822686
  64.5735050   6.8626182  50.5953916  64.4610960   7.5948779  51.9152959
   5.5226213  69.3977642  44.8335552   5.3012627  69.9178457  44.0610600
   6.2668657  69.8550844  45.2249575  13.0556405  79.5962743  18.2967885
  12.2000754  80.0248698  18.2734235  13.5868764  80.0876669  17.6702436
  86.1244811  15.6979716  68.7988377  85.8203713  14.8546374  69.1343021
  85.4129132  16.3060796  68.9991045  25.9394336  59.1453266  67.4288130
  25.6733179  59.8533487  66.8421984  26.3674808  59.5890474  68.1610155
  38.8321931  66.0643414   5.6738790  39.7763563  65.9493641   5.7814248
  38.5644436  65.3357343   5.1138099  69.8280084  68.0650473  57.1867228
  69.5530128  68.1924963  58.0946684  69.9944627  68.9494085  56.8604898
  18.6838591  33.2877111  57.8084469  18.4872591  34.2108202  57.6489162
  17.8344131  32.8922606  58.0041265  18.7260270  34.8501301  66.0777950
  18.2063806  34.0983748  65.7930756  19.0702975  35.2242804  65.2667952
   1.4735562  72.6490831  28.0729461   0.6758079  73.0361557  28.4335065
   1.5316091  73.0030870  27.1855092   8.9923215  14.1755999  35.6629586
   8.0963636  14.0273798  35.3604341   8.9723456  13.9465941  36.5921474
  76.3154364  28.3107679   5.0113805  76.9860352  27.7008645   5.3188689
  76.0505236  27.9655568   4.1588100  42.9252506  13.3005397  34.9889119
  42.8644825  14.2555587  34.9669011  42.1160591  13.0188291  35.4156144
  44.9299980   9.5723026   4.6101125  44.2563153   8.9386051   4.8567088
  45.1759530   9.9931733   5.4338868  40.3710223  12.6582850  61.1872435
  40.8769024  12.9589499  61.9421721  40.5290223  13.3201827  60.5140686
  19.3323958  35.8162141  54.9834251  18.6846793  35.7869411  55.6875801
  19.3569481  34.9218369  54.6432495  38.3342415   0.8868254  66.1252213
  37.3942519   0.8341826  65.9523678  38.6405444   1.6022910  65.5679846
  16.7009914  36.3396049  62.6774406  17.6258540  36.4494801  62.8983212
  16.2308836  36.7413855  63.4080601  31.7667455  68.1552390  11.2252172
  31.6304642  67.2486166  11.5003522  31.8262938  68.1095747  10.2709611
  56.3908911  75.8291773   4.3404086  55.5320001  75.4416660   4.1719659
  56.2893844  76.2818316   5.1776870  83.3121115  81.0937119  38.3754468
  84.0811765  80.5244064  38.3498096  82.6565232  80.5891132  38.8569188
  10.2734566  46.9629955  63.9876509  10.9974575  47.0021820  64.6125650
   9.6174455  46.4125633  64.4153261   4.5707823  32.1569793  13.0013784
   4.9363114  32.9304759  13.4307035   4.4020535  31.5434234  13.7164434
  43.3084667  73.3369092  12.5608285  42.4462629  73.7517194  12.5885995
  43.6719132  73.5963444  11.7141660  71.4609731  10.7332961  37.2355397
  71.0400236  10.2926605  36.4973767  71.3715244  10.1187770  37.9639562
   2.8860754  60.0523138  67.1947479   2.6257774  60.4325390  66.3557577
   3.4507641  59.3161917  66.9592047   7.4227703  54.9349165  54.1757298
   7.1233660  54.6252823  55.0305510   6.8608677  54.4822645  53.5467625
  66.3654870  59.4320266   1.6988929  66.7676914  59.3654983   2.5649436
  65.4315484  59.2946117   1.8573506  44.0510309  14.7861545   3.6478503
  44.8966540  14.4974201   3.9910491  43.4939290  14.8685853   4.4218476
  58.1492781  36.5381622  58.5023165  59.0400958  36.4576745  58.1614351
  58.2129359  36.2434983  59.4108057  19.2213416   7.1624125  42.4356842
  19.5364911   6.3425387  42.0552540  19.7487134   7.8406085  42.0135927
   8.1510073  52.0900965  48.0798006   9.0577137  51.9802809  47.7933502
   7.7554637  51.2268448  47.9590797  19.8392200  31.1566997  59.2484713
  20.7309628  31.0494781  58.9175177  19.4604719  31.8424916  58.6985016
  69.3134367  47.3331738  54.0921545  69.6264171  46.6529465  54.6884489
  70.0818085  47.5674391  53.5716200  53.7898492   9.6531695  47.6198196
  53.5633397  10.2318335  48.3478832  53.1708002   8.9264661  47.6899195
  28.3303748  66.0796050   6.0333331  29.1220505  66.0460738   6.5703233
  28.6501321  66.0352520   5.1322158  15.7478201  62.9322910  42.8240156
  15.9924769  62.6919556  43.7176704  15.4466522  62.1136904  42.4297762
  17.5588203  68.6919359   4.2459901  17.4476338  68.4221319   5.1576217
  17.9501343  67.9309586   3.8170131  71.4876986  21.2117975   7.0215638
  70.7253493  21.7732971   7.1622022  71.3743115  20.8718698   6.1339696
  82.9163814  19.3498008  20.0179227  83.0830050  20.1300256  19.4890340
  83.7814761  18.9632861  20.1537450  65.8963317  33.4375398   3.7600453
  66.1477596  33.8467662   2.9320653  65.5640883  34.1598623   4.2930491
  72.9334474  48.2978504  33.1567605  73.5922766  47.9827659  33.7755426
  72.3652256  47.5423400  33.0065473  29.8298216  38.2237577  69.6874189
  29.7966814  38.5896277  68.8035202  30.3622365  37.4331570  69.5995760
  76.7079402  21.6487567   4.1761334  75.8231319  21.3889711   4.4327624
  76.6259552  22.5711458   3.9338286   1.9779244  51.1557388  59.6787882
   2.5706774  51.0605192  60.4243135   2.2742686  51.9516706  59.2373133
  14.0190029  23.4403825   9.3203002  14.6117687  23.4405947  10.0718725
  13.3959949  24.1428423   9.5064282   8.4233118  30.9615342  18.0549558
   7.6300169  31.0137145  18.5880502   8.1617786  31.3079183  17.2018083
  60.7571650  71.4573431  53.6704350  61.2098074  70.6839943  54.0069962
  60.0961971  71.1070347  53.0732489  78.7772548  62.1223402  35.5469823
  78.4396499  61.2331581  35.4392648  78.4947997  62.5831175  34.7569609
  24.0533614  57.6658773  70.4490852  23.7142491  58.5502911  70.3110647
  23.6511469  57.1440649  69.7547007  30.2568460  39.7924900  67.4790430
  29.9210453  39.9250722  66.5925407  31.1801100  40.0392199  67.4248314
   0.8312933  29.6391964  62.1192360  -0.0954361  29.4642830  61.9554996
   0.9235856  30.5829740  61.9888544  64.6014816   8.3096330   8.7417157
  65.2843714   7.7372091   9.0913232  64.2618919   8.7727277   9.5075257
   8.1213915  60.9372807  66.6723728   8.8234603  61.1338282  67.2926140
   7.3187542  61.1782551  67.1349049  75.9187567  60.1251173  59.8424101
  76.1002397  59.6170235  59.0517569  75.4496479  60.8979893  59.5280266
  37.8552997   9.7941340  32.7059960  37.9982895  10.3093852  31.9120765
  38.3104504   8.9684237  32.5408626  60.6582574  23.4817283   5.3006156
  60.5561859  22.5681989   5.0336392  60.2066172  23.5370366   6.1427529
   5.7448566  44.7686243  60.8774996   6.3584429  45.2833128  61.4017534
   4.9268344  44.7926903  61.3739777  82.1117916  69.8245001  62.3026943
  82.9009857  70.3655195  62.3291588  81.8403956  69.8415232  61.3849354
  59.1603565  33.1258941  48.0706358  59.8988628  33.3759069  47.5153542
  58.4903479  33.7849784  47.8891706   9.6596473  39.5311737  45.7130861
   9.7400326  39.1065860  44.8589802   9.9786234  38.8782358  46.3361120
  69.1131544  79.4621757  10.4272111  68.2489109  79.1796998  10.1280053
  69.1501046  79.1896013  11.3440450   7.0693630  49.0088654  58.3361149
   7.9090917  48.7971687  58.7438822   6.7024219  49.6994638  58.8880730
  14.0217150  80.8222345   3.8162740  13.1470383  80.8896927   4.1991885
  14.6099520  80.7735185   4.5698245  20.6290180  19.9984396  51.6902924
  20.7143617  20.4136790  50.8320761  20.7175392  20.7185591  52.3146486
  81.3729549  36.2906949  13.3331616  80.5541468  36.7028777  13.6086495
  81.9648600  36.4143960  14.0751775  37.6245475  25.4921532  23.0651546
  36.9923973  24.8725772  23.4294963  38.4421611  24.9971795  23.0127835
  39.9908471   2.8400649  61.9514179  39.2916596   2.3062361  61.5740681
  40.7720948   2.5976885  61.4542866  76.9910599   4.6078031   1.1327870
  77.7724481   4.9156539   0.6735547  77.1440793   4.8407237   2.0485194
  10.4066731  18.4064786   4.8532184   9.6784283  19.0039365   5.0233062
  10.2648879  17.6778667   5.4575809  22.4967408  68.0044842  58.1747627
  23.1549406  68.1633282  57.4981737  21.8373084  67.4603081  57.7443457
  27.1569252  61.8057728  66.0270214  28.1089926  61.9027615  66.0072756
  26.8620515  62.1662474  65.1907587  82.6674247   2.0640791  41.8607473
  83.3006430   1.8652285  42.5504732  83.1527519   2.6066626  41.2392235
  17.3434436  42.7939939  52.8372669  16.8520772  42.8088140  53.6585903
  16.6726458  42.8400707  52.1559906  11.1568762   9.8742025  47.7469667
  11.0992600  10.1771753  46.8408044  10.3715492   9.3413560  47.8717454
  21.0648870  25.8965826  63.4638596  21.9384241  25.9810996  63.8459826
  20.5881763  26.6622829  63.7842989  39.8218990  11.0249175  43.9976692
  40.4637158  10.7952727  44.6696520  39.3725980  11.7939032  44.3484259
  35.8068490  66.5409422  50.9421349  35.5258346  67.0697737  50.1954126
  36.0745096  65.7063484  50.5573654  78.5202461  69.2980289  65.8646774
  77.6134508  69.0127754  65.9768629  78.8381975  68.7959003  65.1143408
  51.0898209  11.0990275  32.6967788  51.3890601  10.6388319  33.4809422
  51.5911174  11.9144381  32.6916504  83.7035943  31.1864869  33.1995996
  84.0386177  30.4056852  32.7587541  84.3084884  31.3285558  33.9277204
  42.4260116  14.0011852   5.7317241  42.7516652  13.8037126   6.6098960
  41.8560065  13.2630699   5.5160554  50.5511755  40.4190605   8.5048802
  49.8372776  39.8099487   8.6934693  50.1242775  41.2724845   8.4296020
  85.8662752  73.0674553  53.7781048  86.6927586  73.4887266  54.0140867
  85.2210226  73.7739563  53.8052320  59.5417917  13.0187099  19.0406640
  59.3839610  13.9358919  18.8168271  59.2174453  12.9316823  19.9370225
  85.5120540  18.6027925  10.4846795  85.5162383  19.2308824   9.7623761
  86.0298420  17.8646819  10.1632436  46.3786400  16.2128008  66.1389208
  46.0844314  16.1290205  65.2319145  46.2742532  17.1428812  66.3396406
  18.0357767  19.8210208  16.6353066  18.5193754  20.6244771  16.4434083
  18.2838942  19.2188089  15.9338697  48.5627985  79.4087696  39.3816686
  48.4643793  79.1816950  40.3063202  49.0435266  78.6722231  39.0040135
  16.1161351  65.4170895  56.4787054  16.0743189  64.6464825  55.9124470
  16.9687951  65.3522682  56.9088221  77.3315483  32.6539040  48.3003855
  77.5950771  33.5739613  48.2836914  78.1468731  32.1688795  48.1729937
  67.1479619  47.6820152  28.1894620  68.0340803  47.3291747  28.2702668
  66.7195643  47.4442355  29.0117486  75.2897371  37.2563045   7.9901107
  75.8913112  37.9992931   8.0381520  74.8701251  37.2318761   8.8500865
  27.3592592   9.1446559  15.2777703  28.0193306   8.9508741  15.9433492
  27.2220112  10.0896089  15.3445466  18.2471573  68.8148355  52.6717901
  18.7496543  68.0146837  52.8250599  18.5780859  69.4338417  53.3225918
  40.0702238  74.4661573  16.4484628  41.0230244  74.5574263  16.4399179
  39.7445500  75.3621439  16.5343411  59.6541929  20.8316302  63.4124184
  60.4393244  20.2880573  63.4781742  59.9385881  21.6053200  62.9258490
  66.6187782   5.7204978   3.7853988  67.5612933   5.7610814   3.9474185
  66.2362862   5.5326288   4.6425088  18.3379914  37.8690164  41.2795957
  18.3162762  37.8241937  42.2354920  17.7865673  38.6206977  41.0624822
  79.8849117  63.2212687  50.5074596  79.7255617  62.2807837  50.5869913
  79.8482495  63.5472918  51.4066792  79.4410039   8.4885471  34.5887979
  79.5155526   9.3312709  34.1410287  79.7653962   8.6577766  35.4733117
   1.1789887  70.0090313  60.5722523   2.0036781  70.4729033  60.7169580
   1.4020146  69.3100834  59.9574661  78.0534935   5.1257266  68.2906961
  77.9616642   6.0078658  67.9306364  77.1641541   4.7717703  68.2870340
  56.9916290  43.2249515  12.2710164  57.4401033  43.6477249  13.0033906
  57.4206463  43.5778873  11.4915307   0.7432224   6.0450046   5.9652646
  -0.0564169   5.5191486   5.9821828   0.4357887   6.9500940   6.0155805
  23.6585165  27.9791753  19.7401555  23.5230995  28.6399524  20.4193242
  22.8783632  27.4263732  19.7848733  52.9701066  58.0266905  45.0503016
  53.7253904  58.5166502  44.7251511  52.2225618  58.4026766  44.5854950
   2.4151994  38.6201684  34.2194684   2.4362231  38.5584085  33.2644876
   2.0762325  39.4978969  34.3953069  62.7777205  43.0240695  13.2485230
  63.1229759  43.0404823  12.3559030  63.4135837  43.5238521  13.7604936
  20.7596135  62.3745871  33.1078386  21.0750628  62.2155094  32.2182226
  20.2868700  61.5755367  33.3407950  19.4597924  25.2721346  55.0174427
  20.2484072  25.8065165  54.9238873  18.7727690  25.7817877  54.5879316
  72.5997139  67.6410549  40.7592710  72.0796014  68.2058589  41.3308461
  72.0100821  67.4224918  40.0376065  56.6403566  30.2779739  11.2360127
  56.6707475  30.8816688  11.9782098  56.7080206  30.8419769  10.4655870
  39.6233392  68.9321613  65.0207424  40.0397873  68.3457518  64.3891335
  39.0574050  69.4928026  64.4900560  22.6066256  74.1066599  52.9074860
  22.4555469  73.2450056  53.2960224  22.6663804  74.6999073  53.6562967
  37.4104453  50.3276412  19.7867044  36.9251419  49.5121639  19.6613534
  38.3230651  50.0911109  19.6211370  69.3870736   7.8360880  59.0541840
  69.5724345   7.9194964  59.9895525  69.0446520   6.9476260  58.9561653
  72.6031829  15.7075136   2.7025064  72.7000023  15.7479446   3.6539348
  73.2352842  15.0442664   2.4254020  39.4252217  72.3089651   8.4120877
  38.5316360  72.6495961   8.3707841  39.4300950  71.7422370   9.1834672
  50.2608562  22.2590769  56.8676996  50.6069374  21.9281424  57.6965189
  50.8088088  21.8489588  56.1985350  23.1249142  68.0192566  65.4300976
  22.8193784  67.4412537  64.7309637  23.8006592  68.5574055  65.0177908
   8.3483577  12.5472678  66.7830610   8.3332181  13.4171904  67.1820974
   8.5649395  11.9565905  67.5044632   0.2708817  54.2548895  62.3365498
   0.1944277  54.1945601  61.3843155   0.8682080  54.9883890  62.4828768
  11.6115261  51.2298362   2.0228322  12.3075272  50.5999343   2.2100051
  11.5127207  51.2018459   1.0711558  80.6508518  45.0495593  31.8196519
  80.2439023  45.2525680  32.6619180  80.7351518  44.0960853  31.8180020
  25.1457500  69.7563267  39.6553183  25.5846024  70.5843925  39.8501110
  25.4653764  69.5145559  38.7860537  30.9241227  12.5100935  57.3433733
  30.1753333  12.5095023  56.7470932  31.2388823  13.4139861  57.3316956
  72.4821257  47.9336977  37.5601864  73.1447744  47.4426603  38.0459952
  71.7447137  47.3283958  37.4822950   1.6466404  21.9538514  35.9617360
   1.8109966  22.2836702  35.0783094   2.2869159  22.4076383  36.5097840
  80.0754715  33.6342685  19.3329270  80.0911284  33.6142604  18.3760675
  79.1568256  33.4909599  19.5604833  45.7707024  78.6346292  55.2199507
  46.4876938  78.8549519  54.6253014  45.2371502  78.0087185  54.7302580
  17.7048266  62.6940632  63.4893417  18.4732819  62.3619986  63.9534998
  17.5852501  63.5812902  63.8281155  72.2968245   3.3486117  48.6123276
  72.2711754   3.7172068  49.4953394  73.2256079   3.1860102  48.4475470
  39.1406834  26.2914885  62.0586205  38.5538012  26.0913409  62.7878237
  40.0068963  26.3599051  62.4601507   2.7593359  76.7614126  64.9267960
   2.7777788  77.4666500  65.5737352   2.6966253  75.9605265  65.4472589
  31.5854479  26.1874597  14.8467572  31.4793898  25.7138269  15.6717713
  31.8805910  25.5222814  14.2249330  77.8770053  39.9086618  61.5289974
  78.2282912  39.0724421  61.8348837  78.6508530  40.4282761  61.3112974
   1.6557194  50.1886813   3.9606126   0.8907701  49.9180763   3.4528192
   2.3448969  49.5779292   3.6993821   8.9384812  35.0798798  65.3914022
   8.1878048  34.7977304  64.8688078   8.6251330  35.8511829  65.8637762
  86.5340663  23.1779497   1.1613162  86.3231135  22.8261726   2.0261748
  86.4866806  22.4213331   0.5769237  41.0249198  26.9839896  59.4407320
  40.2770508  27.3005141  58.9340401  40.6768227  26.2517775  59.9495840
  49.4112945  51.1991374  20.7902272  48.6385483  50.8659236  20.3340943
  49.5318491  52.0829456  20.4429753  45.7062340   2.0760096  65.3164864
  46.6627145   2.0939482  65.3489876  45.4993964   2.0135439  64.3839931
   0.3809439  58.0525589  49.9759722  -0.0434312  57.9899645  50.8316708
   0.9900077  58.7857533  50.0637436  75.8874310  17.6504724  25.3150399
  76.2244845  16.7684953  25.4723485  76.5960980  18.0989377  24.8536237
  50.3379369   0.3276289  62.1302462  50.1261568  -0.4927122  62.5756979
  51.1973095   0.1724185  61.7383003  67.2859687  28.9928214  28.4823735
  67.6231337  28.0970733  28.4688314  67.3090035  29.2712753  27.5668653
  86.8851829  30.8310335  22.1829732  86.3447285  30.7906024  22.9719575
  86.7932726  29.9653165  21.7850812   1.4714123  10.3561752  24.1762479
   0.5304195  10.3908317  24.3481858   1.8766190  10.5520933  25.0210317
  37.7210307   9.3039073  62.6517344  37.3587615   9.7273959  61.8734980
  38.2678384   8.5977019  62.3074865  15.1554871  61.8975496  36.7640972
  15.6021070  61.1905432  36.2983680  15.1739109  61.6284657  37.6825142
  15.5589510  29.1768281   1.6384776  15.3737618  28.7731807   2.4864181
  14.8016049  28.9546125   1.0969194   2.7054144  30.9882657  10.8749326
   1.7920948  30.7251375  10.7616075   2.8538395  30.9376638  11.8192037
  19.0476918  69.8306465  46.8680048  18.5020590  70.6132936  46.9453096
  18.6087310  69.2971325  46.2055016  43.1372953  24.0953578  69.3520355
  42.9316330  23.7567652  68.4806633  42.7052641  23.4883440  69.9529743
  62.3175562  39.9794547  17.5578149  62.6969025  40.4921310  16.8440278
  63.0726147  39.6027915  18.0097516  48.3980274  73.7834835  47.8539658
  47.9634857  73.6589003  48.6977005  49.3307209  73.6930466  48.0492496
  56.1746836   7.3829878  66.8726063  56.8749762   8.0157889  66.7132998
  55.5551839   7.8478564  67.4350548  16.2022030  42.3780012  35.8109045
  16.2717938  42.8919983  35.0064206  15.8160722  41.5477276  35.5320072
  73.7776578  38.0298250   5.9023507  74.4431747  37.8457134   6.5652354
  73.5763705  38.9586274   6.0165532  23.2656527  72.8499365  49.3893242
  23.5389304  72.1297979  49.9576092  24.0807009  73.2960224  49.1592455
  16.6917778  47.2580116  16.1847146  17.5197674  47.5120799  15.7771333
  16.1317993  48.0285137  16.0899098  69.0503908  42.4045627  19.0200646
  68.4978784  41.6824500  18.7208875  68.4346998  43.1082694  19.2248853
  46.0708213  64.4259719  16.7232926  46.5528477  63.8662270  16.1145433
  45.2109766  64.5364455  16.3174661  25.2331806  36.8538301  25.9899648
  26.1327435  36.5868108  26.1789735  25.3203417  37.7112977  25.5735715
  23.7146258  77.4210358  63.3944941  24.4265842  77.3307037  64.0278864
  22.9457736  77.0745945  63.8473463  76.0115624  32.6015298   8.7463840
  76.0920585  33.5324161   8.9542325  76.8121947  32.3935525   8.2647546
  28.4722496  16.5907229  39.9757075  28.0493060  16.9620360  40.7499695
  28.1044633  17.0837153  39.2422771  58.4446484  66.1450927  25.3667481
  58.8483572  65.3754299  25.7678350  58.1450337  66.6719024  26.1076482
  69.1527080  53.8455725  40.7004881  68.5978233  54.0417719  41.4553690
  68.6545062  53.2008457  40.1981401  47.7410138  19.9283426  16.0019239
  48.0322088  19.3544261  16.7104848  46.8767918  19.5936696  15.7624562
  56.4262775  38.3435314   4.5352681  56.2976246  39.0452974   3.8971456
  55.6451449  38.3758371   5.0875552  59.5705233   2.0547740   9.7123368
  58.7090099   2.4024694   9.4818337  60.1872397   2.5986354   9.2223294
  63.5196210  17.1315925  13.9697965  63.3909864  17.0078723  14.9102052
  63.3673782  16.2657039  13.5912641  39.8272372  15.7515658  63.0556774
  40.2483487  14.9219931  62.8305054  40.4305578  16.1669291  63.6718845
  53.3723998   3.0728091  55.9930325  54.2004133   2.8995741  55.5451298
  53.3554578   4.0231741  56.1059856  83.5574222  13.8481633  33.2863744
  83.6354233  14.4345205  34.0389283  82.6403833  13.5738389  33.2905229
  14.4608343  43.3020782  63.0674934  13.6589861  42.7931023  63.1867313
  14.4169843  43.9796543  63.7421751  69.6508121  37.1573925  55.5153370
  70.0736892  36.6926670  54.7932291  68.9061677  37.6021838  55.1104927
   3.3714868  67.8947799   3.0343183   3.5831834  67.9005878   3.9677985
   2.8191591  68.6664646   2.9091771  38.7751532  71.5765953  51.0960722
  39.3673253  72.3285341  51.0837317  38.1674719  71.7384291  50.3744316
  21.2135434  65.8521748  57.2913885  21.2106252  65.4596043  56.4183998
  20.2880454  65.9233189  57.5251055  63.1704868  34.1033809  12.3883279
  62.8361893  34.5965307  13.1375154  62.5596435  34.3023889  11.6787561
  27.5339746  64.8812008  59.3856812  27.4181342  64.4894505  58.5200357
  26.7045474  64.7187901  59.8350191   1.5801359  43.2485359  17.2613652
   1.0961033  43.9474075  16.8214639   1.7375160  43.5848205  18.1436189
  80.1458073  51.5796344  24.5014318  79.2510439  51.2426250  24.4561036
  80.6893469  50.8007877  24.6205648   2.1622540  56.9270770  25.0898679
   2.7599455  56.7749851  24.3578370   1.2960912  56.7203300  24.7388013
  48.5235453   8.9438570  40.1986933  48.4242142   9.8867167  40.0668621
  49.4621420   8.8192309  40.3391695  79.6521068  38.8222663   1.4106639
  79.0501476  39.4932620   1.0887368  79.1380382  38.0148761   1.4011939
   7.8682995  19.4356383  39.1854739   8.7809372  19.7239722  39.1717243
   7.8986383  18.5298098  38.8776183  65.7788903  14.0843980  20.2776082
  66.2064654  13.3809726  19.7891362  65.3466261  13.6407916  21.0073979
  54.7163725   4.3250788  59.0723085  54.1082311   3.6279143  59.3179703
  54.1737390   5.1124991  59.0304184  11.7109120  54.5183182  46.0942888
  11.0230815  54.9243307  46.6218042  12.0743024  55.2385902  45.5791330
  81.1180383  61.5773201  58.9783812  80.2578991  61.1676121  59.0707636
  81.4805716  61.5755367  59.8642731  83.7141586  42.9273574  43.2441361
  84.1312814  42.1312396  43.5734590  83.9246107  42.9393642  42.3104413
  30.9810044  27.2727887  20.2890237  31.5221144  26.4987247  20.1332887
  31.2670160  27.5970905  21.1429914   8.6263896  54.6483009   8.8260634
   7.8861071  54.4921081   9.4124253   8.4148980  54.1514461   8.0357202
  46.1607123  26.5483062   6.6462834  45.3360987  26.5767257   7.1315034
  46.4382768  25.6337516   6.6990789   3.6206424  50.8005810  42.3218441
   3.6271438  49.8580217  42.1551943   4.1422075  50.9067488  43.1174135
  82.6873780  44.4687335  16.2291940  82.2345997  43.6831443  15.9224637
  83.5218049  44.1465537  16.5700276  74.5346869   8.0544154  46.5267213
  75.4391731   7.9950969  46.2191232  74.2195464   7.1506040  46.5196736
  23.1490517  38.9064217  65.6174040  23.4893322  38.4430170  66.3827133
  23.8552737  39.5006251  65.3636265  74.0337467  63.9563560  64.3173790
  73.8645124  64.7998953  63.8978148  74.5231199  63.4574270  63.6633015
  37.6349521  15.2327765  43.5037851  38.3456427  15.4351939  42.8953600
  38.0775112  14.9975337  44.3192816  12.7229441  12.7667464  64.2751694
  13.2082010  13.5564078  64.5143127  11.8063307  12.9911459  64.4354677
  64.3930978  14.2586152  12.5274785  65.2034355  13.7494581  12.5460179
  64.4015420  14.6912448  11.6736634  20.3241158  55.3076315  67.7176714
  20.5597878  54.5277262  67.2152376  19.5878506  55.6878042  67.2384930
  27.3948812  58.2217789  63.6792898  26.7124581  57.5587416  63.5748196
  27.0077443  59.0219545  63.3242273   9.5981115  63.2950115  69.9948263
   9.3562150  64.2208385  69.9710464   9.1768229  62.9576159  70.7853413
  18.1240536  41.5895812  47.4225934  17.9093672  42.1932952  48.1337007
  19.0344549  41.3424556  47.5848516   0.2253915   5.3278463  18.1713231
   1.1605049   5.2219026  17.9964765  -0.1912450   4.6160095  17.6855882
  84.8830415  25.7316272   4.1108020  84.8388100  25.9829490   5.0333579
  85.7813478  25.4242723   3.9890941  41.3818741  80.6145287  43.6798286
  41.4753294  81.5398407  43.9063072  40.8500099  80.2476311  44.3860435
  27.1956458  76.5972165   5.0940354  26.3198597  76.9805411   5.1419242
  27.7351338  77.2812513   4.6974452  80.2503955  79.7848129  52.5897312
  80.5006772  79.0657139  53.1698084  80.6459748  79.5616198  51.7471552
  76.1309827  35.6325404  11.3569577  76.5315808  36.4245908  11.7153009
  76.8160260  35.2421539  10.8142312  31.5606192  12.0208300  49.8728752
  31.5733776  11.1106432  49.5768499  32.4837834  12.2677458  49.9279261
  81.2081671  32.2774141   4.2656119  80.5245543  31.6351049   4.0749629
  80.7420994  33.0117528   4.6653064  45.3620113  15.0311725   0.0430425
  45.9395505  15.4281013   0.6950601  45.9456957  14.7805517  -0.6730143
  16.2556946  72.1937799  63.9047384  15.4192483  72.4796963  64.2719460
  16.0146105  71.6029453  63.1912804  74.9983549   3.7044276  53.4541416
  75.9071637   3.9117373  53.6716795  74.5221949   4.5194949  53.6127615
  60.5208463  16.1393707  12.1941693  60.9393579  15.5905406  12.8573926
  60.7628433  15.7348840  11.3610681  39.3025184  80.5079746  58.8103962
  39.7526646  81.3525581  58.7936497  39.9833083  79.8694658  58.5981035
  78.1546545  61.6610555  53.3068212  77.9166699  61.5371660  52.3879941
  78.4125281  60.7895104  53.6070569  61.8396670  35.0514333  20.7774480
  61.2719838  34.4807403  20.2594884  61.3471068  35.2127569  21.5821775
  70.6853652  38.2416654  37.8236222  71.1958873  38.0182552  37.0453620
  70.3588819  39.1246653  37.6505589  85.1139045  28.8309352  12.1526654
  85.0290108  27.8982894  12.3506482  84.7099758  29.2721479  12.8999360
  46.2126100  38.4887255  63.5874176  46.5954364  38.2888831  62.7331686
  45.8650506  39.3755377  63.4925795  20.0853087  19.6156280  26.3326676
  19.9706198  20.5654018  26.3644155  20.7060553  19.4730823  25.6181176
  40.7618070  73.9101760  11.2862714  41.0564590  73.0193965  11.0967477
  40.2304745  73.8234012  12.0777162  51.1030507  77.7706603  11.9859822
  51.4087654  77.8497580  12.8895886  51.4647365  76.9379000  11.6827901
  72.0149208  33.2173030   6.3693364  72.2482801  33.0929057   5.4493888
  71.3453842  32.5544422   6.5383466  69.5623446  12.1453159   2.5811704
  68.9502800  11.6940896   3.1625541  69.3839813  11.7792194   1.7149194
  40.9101415  41.8602626   9.2690023  41.1110271  42.3096435   8.4480651
  40.1466943  42.3227851   9.6146329  32.1404004  61.3670158  68.9089537
  32.8835535  60.7911539  68.7291336  31.5381241  61.2153339  68.1806087
  48.6625118  63.4549205  27.9485925  48.6437762  64.3640582  28.2475122
  47.7416206  63.2236259  27.8273805  56.0490840  35.2884023  17.7582105
  55.5668626  36.1042373  17.8927548  56.0746812  35.1792972  16.8075879
  14.0715529   0.5697542  40.8159860  14.2058732   1.0364061  41.6408666
  13.1657852   0.7644945  40.5753739  85.1317096  28.2845371  32.3078664
  85.5193425  28.5771053  33.1327184  85.5563808  27.4457996  32.1278508
  59.9972520  56.2652080   0.4886134  60.9059376  55.9796493   0.3938802
  60.0567394  57.1082275   0.9380754  21.6286732  51.7003982   8.4817107
  21.3925530  51.7454974   9.4082292  22.1949364  50.9314601   8.4160073
  73.1353760  69.2373943  61.6248941  72.5444078  69.0308142  62.3489857
  72.6966333  68.8862562  60.8500147  83.2471038  55.6650607  27.8920396
  83.0630184  54.7603671  28.1447442  84.0227271  55.9025924  28.4001954
   3.8365079  42.1105258  15.1899941   3.4809328  41.6642158  15.9584935
   3.9160968  43.0254524  15.4598458  84.7063542  58.6305873   6.2409480
  85.2936722  59.0564697   5.6165155  83.9485694  59.2131011   6.2926467
  11.6511704  69.3235938   9.6160634  11.6766287  68.3808486   9.4523366
  11.6477944  69.7181480   8.7439664  65.5771226  39.8881404  36.5792211
  64.9180079  39.4982021  36.0049851  66.0959393  40.4487102  36.0023053
  54.3224249  63.4282749   6.0747321  54.7780124  64.0733497   5.5338557
  53.6029125  63.1193988   5.5241616  83.4770823   7.5904501  44.9303579
  83.5481358   8.5294951  44.7589636  83.5287619   7.1844614  44.0650606
  28.0958821  40.3476207  32.3871263  28.1121756  41.0199325  31.7059739
  28.2162405  40.8315055  33.2041963  68.4644116  61.4057224  11.2694390
  67.6726783  60.8709495  11.3278134  68.7883342  61.2578742  10.3809293
  32.0948887  78.6471605  37.7493310  32.9954028  78.6744022  38.0727005
  31.7418838  79.5138788  37.9503918  59.9902483  49.0860717   2.1925910
  60.0239297  49.7085922   1.4662536  60.8003522  48.5822933   2.1140273
  83.5512925   2.3313178  50.3326464  83.2837820   3.1115855  49.8470068
  84.1341734   1.8645895  49.7337723  40.1846147  21.9508589  51.0383654
  39.5231128  22.3087538  50.4462862  39.8553014  21.0820044  51.2683058
  85.0610638  66.7021243  20.6930287  84.6946407  66.9539134  21.5407117
  85.9539867  67.0467250  20.7061894  66.1956168   6.9394148  66.0154295
  66.4714146   7.7576769  66.4284897  66.9042850   6.3245810  66.2051868
  56.8945456  62.7386761  69.5714092  56.1726284  63.1669903  70.0314188
  57.6760483  62.9943419  70.0614357  13.0449177  38.4119146  22.9448064
  12.7057816  37.5646465  23.2335122  13.9915205  38.3465783  23.0709203
  38.7545420  45.4162853   3.8154443  38.0694033  44.8843734   3.4106238
  38.5646464  45.3784625   4.7528585   0.1847101  39.5833366  11.8574937
   0.3164102  39.2833106  10.9581216  -0.3570532  38.9043300  12.2595819
  39.3358457  61.2431792   1.4065059  38.6335564  61.5015463   2.0033868
  39.5960832  60.3719822   1.7057117  20.2651240   2.0262306  20.9008630
  19.3464733   2.0642822  20.6346639  20.7507540   1.9688051  20.0780042
  66.1531639  67.3917627  57.4046946  66.4501190  66.5365171  57.0938921
  66.8731260  67.7123976  57.9479170  34.1596556  75.3332186  48.4146929
  35.0240946  75.6685257  48.1768990  34.3368506  74.6546173  49.0660954
  74.7956038   9.0245665  66.0173750  74.0248680   9.5618475  66.2004900
  75.0649691   8.6924113  66.8737316  29.9585605  46.1272001  69.1707945
  29.1960955  46.5898132  68.8231325  30.4207563  46.7844057  69.6910763
  83.2849360  22.8710716  11.8922647  82.9583431  22.6443021  11.0215505
  84.1632796  22.4920146  11.9248326  47.9404891  23.7442435  56.2309885
  48.5314155  24.4450224  56.5065765  48.5016346  23.1301154  55.7574940
   4.7987820  56.3502471  29.1276105   5.0027705  57.2396343  28.8384660
   4.2232395  56.0029285  28.4461721  66.0824115   7.6757209  15.3570874
  66.1968244   8.3125846  14.6517213  65.4673076   8.0937068  15.9597238
  71.2636113   5.2284850  59.5731592  71.9403720   5.8176650  59.2398596
  71.1244178   5.5106486  60.4771709  37.8338009  52.7306727   6.5916284
  38.6665422  53.2011882   6.5543492  38.0724657  51.8115083   6.4716037
  31.6838444  58.8494746  19.0260156  32.4557138  59.3015388  18.6852963
  30.9488842  59.4103590  18.7780793  24.5368409  11.8976212  45.6121349
  24.4233489  12.2503746  44.7295761  25.4642510  12.0328629  45.8066988
  61.2553986  67.0700466  59.5272493  60.9271725  66.6051506  60.2969074
  62.2057363  66.9642209  59.5707321  72.9629683  26.3092351  34.0608525
  72.1795702  25.7933354  34.2515492  73.1701743  26.7446303  34.8877311
  81.3786429  16.0643852  43.3033466  81.9849139  15.4039097  43.6386633
  80.8249068  16.2836492  44.0527010  10.9086370  55.8408499  63.1221437
  10.0673878  55.7579660  63.5712147  10.9305179  55.1004028  62.5159359
  66.3230562  12.8476250  32.1518636  65.4634332  13.1759238  32.4154902
  66.6752100  13.5301399  31.5805578  71.1678874  31.3066792  36.7941356
  70.6018805  30.5492377  36.6452980  72.0157206  30.9296203  37.0291615
  79.7256374  11.6129506  36.3409400  78.7898230  11.7203331  36.5110946
  79.8369187  11.8892002  35.4312515  74.0496206  49.7102070  41.6614342
  74.6685564  50.2833700  42.1138000  74.5780909  49.2592287  41.0029745
   4.0086612  13.2908118  69.7934294   3.1300667  13.6578870  69.8912001
   3.8705975  12.4539781  69.3497181   6.5422803  10.0807822  51.9813299
   6.2347430  10.8794427  52.4100399   5.7419652   9.6063644  51.7562628
  15.3142655  24.1983628  30.4628587  15.2676177  23.3511281  30.9058571
  14.7058034  24.7559762  30.9477043  13.8378227  42.4645662  42.6466990
  13.9162171  42.0726013  43.5164404  14.1487050  43.3627748  42.7598715
   9.1447508  28.3628321  66.7782640   9.3763298  27.6648855  66.1655045
   8.2678783  28.1314754  67.0845366  30.1024246  13.3683074  59.7822523
  30.2930832  12.8095078  59.0288448  29.1570139  13.2866907  59.9078369
  66.3336850  69.8165873  17.1632035  66.7287636  70.6121734  16.8065675
  65.3958750  70.0063375  17.1904405   1.6162764  11.1544359  63.5971880
   1.6078135  11.9274151  63.0326843   2.2895509  10.5889249  63.2188606
  49.7516799  37.7393664   0.7388099  49.6767521  36.7987407   0.5780585
  49.8358250  37.8139440   1.6893800  48.6296415  12.3290813  46.7235231
  48.3466673  11.6507351  46.1103344  48.0972815  13.0922019  46.4988708
  79.2190134  37.5449347  25.5157208  78.3265435  37.6058984  25.8563280
  79.3302577  36.6190577  25.2998328  10.1381707  41.3824892  65.6515646
  10.7014489  40.6676340  65.9480953  10.3569782  42.1147060  66.2279463
  77.7836036  30.3343415  44.1991711  78.2106739  29.9495029  44.9645090
  77.7008223  31.2636495  44.4130993  75.3516566  28.1488538  12.9711819
  74.5263505  28.5737944  13.2046986  75.0888657  27.3537755  12.5074768
  39.7961033  50.4904888   6.7980702  40.0519216  51.3406125   7.1559508
  39.7442866  50.6341950   5.8531411  20.3435063  23.4235215  70.1460409
  21.0864735  22.8277779  70.2425957  20.5872083  23.9941573  69.4171953
  29.3289652  64.1402987   1.3746341  29.8882558  64.3030289   0.6150659
  29.5523730  63.2513622   1.6505178  38.2213092  58.6467639   8.6655934
  38.6661864  58.9388851   9.4611962  37.8006792  57.8238407   8.9147885
  83.4534284  50.7860231  47.9385519  83.1666186  51.4455366  47.3068762
  83.3409881  49.9522495  47.4820328  12.1732807  33.8339329  70.5477428
  11.2638092  33.5433745  70.6160784  12.6746106  33.1626296  71.0106134
  63.2639372  78.9986693  63.5622454  62.4059781  78.8211583  63.1767225
  63.7101649  79.5427634  62.9133463  58.5276913  23.5881948  62.8637409
  58.1048107  23.2761693  63.6637688  59.1722393  24.2274880  63.1672049
   9.7059280  48.4890890  54.7186995  10.5476916  48.4799719  55.1743078
   9.0591794  48.6155224  55.4129314   0.5828588  30.1905012  65.0974369
   0.9631990  31.0684109  65.1265526   0.3653606  30.0541663  64.1752958
  46.6888750  73.5776595   0.3859027  46.3591445  72.8656629   0.9341415
  45.9542930  73.7991456  -0.1864306  79.6783351  80.8109795  70.0669193
  79.4410347  79.9211027  70.3277636  78.8617634  81.1915663  69.7435093
  69.7095334  72.1520369  50.8413887  69.8842072  71.2568342  51.1317873
  68.8844465  72.3851942  51.2669468  76.0424756  53.5245668  46.4527416
  75.6785213  54.2926871  46.8929195  76.1952495  52.8947841  47.1572018
   0.8900835   9.8335767  42.6937151   0.5080950  10.0937080  41.8554735
   1.5993237   9.2353898  42.4583817   9.3241769  31.8789864  51.7394829
  10.0774503  32.4689770  51.7663479   8.7324232  32.2750568  51.0998058
  24.7131085  65.4250347  17.0003974  24.1963624  65.1661502  17.7634084
  24.0629386  65.6857347  16.3480592  30.7689953   3.7678045  68.4435320
  30.2257943   3.6047614  69.2146254  31.6679835   3.7004122  68.7652636
   8.2229072  33.2648110  49.6094942   7.6122224  34.0005207  49.5645094
   7.9906225  32.7146435  48.8614321  62.8469753  22.8489041  42.3169136
  61.9159436  22.6378250  42.2472334  63.1822609  22.2391701  42.9742098
  23.9239454  42.7260828  67.6089382  23.9286709  43.6807585  67.5396013
  24.5837998  42.5309992  68.2743454  70.7006907  51.3515806  45.5676222
  70.5119156  50.4235029  45.7064486  71.5761017  51.3626575  45.1806307
   1.0857408   3.0156806  26.8880534   0.7477297   3.1484801  27.7736855
   1.8478377   2.4484599  27.0051050  54.3136359  57.3897616  21.0224278
  53.8348127  58.1023482  21.4457257  53.9944148  57.3895840  20.1200231
  22.5561315  38.8879583  -0.1245515  23.1627244  38.3561663   0.3906901
  22.7068496  39.7836537   0.1775201  76.5255355  39.1850758  65.5765581
  76.7064654  38.7651467  64.7356319  75.6652998  38.8510919  65.8308792
  56.3554573  80.2822927  19.5404180  56.1478186  79.9828700  18.6552842
  56.1140919  81.2085608  19.5427068  86.8559370  52.2457981  45.6984282
  86.6838533  51.8394852  46.5478563  86.2851078  51.7778063  45.0890255
  75.5159437  58.8474846  29.6649361  75.7581341  58.0988264  30.2099919
  76.2780940  58.9919949  29.1041541  19.3783677  51.2654066  41.8671227
  19.1885388  50.3468752  41.6760969  19.6301770  51.6386318  41.0224199
   8.1309038  29.3513179  32.1022534   7.1928644  29.5257831  32.0256019
   8.1814575  28.5001802  32.5372720  69.1964126   5.6058471   5.2199824
  68.9347828   5.0021331   5.9151872  69.9526621   5.1859062   4.8101409
  57.8416967  28.4692526  40.7491112  57.7921199  27.7924776  41.4242029
  58.1149935  28.0010629  39.9602270   0.7630313  38.7111712  50.5950928
   1.7044458  38.5471582  50.6505060   0.4173588  37.9612827  50.1109314
  36.6043520  26.0764742  41.0995007  36.9855618  25.9436488  41.9674110
  36.0469770  25.3103733  40.9629154  33.8059306  13.1238770  47.0368290
  34.7165203  12.8752971  46.8778753  33.3391905  12.8387177  46.2512875
  76.6980934  36.9981551  46.0283279  75.7423019  37.0002270  45.9764719
  76.9188225  37.8455257  46.4149427  63.5250974  74.5707897   4.4155677
  64.0999246  74.8730568   3.7123998  62.6532793  74.8701481   4.1575940
  79.6396499  15.3018892  38.3155584  80.1216584  15.3973401  39.1370130
  79.8890203  16.0694981  37.8009486   8.0845642  12.9452181  58.1974888
   7.8817129  13.8523722  57.9691172   7.3803550  12.4344897  57.7981424
  19.4937694  12.6500857  13.7349987  20.1213455  11.9280660  13.7023079
  20.0251579  13.4203804  13.9362550  66.8703854  21.1739731  35.4936886
  66.0152101  20.9228635  35.8427644  66.6981458  21.9662380  34.9848843
  25.4514241  14.9605632  38.2657957  25.1722622  14.6071744  39.1104364
  26.2903404  15.3836644  38.4486580  10.4315948  38.8020015  43.0773306
   9.7542953  38.4899735  42.4772215  11.0748971  39.2287755  42.5114155
   5.8504122  41.6257477  10.2065659   6.8015140  41.5379381  10.2692258
   5.6667477  42.4973488  10.5570066   1.7440727  27.8583741  59.8578119
   1.5417250  28.4657145  60.5694485   1.3142833  28.2365608  59.0906811
  25.5314970  31.3319325  27.8915644  26.2900138  30.8902717  28.2734227
  25.2731967  31.9767833  28.5501075   7.4272925  40.1062155  30.2353024
   6.6460127  40.5579138  29.9162412   7.1124274  39.2425823  30.5021954
  19.8372602  28.1497407  58.6653376  18.9431596  28.1153035  58.3252954
  19.8830140  28.9825940  59.1349030   8.6536378  35.6535196  56.1489820
   9.1654599  35.5961752  56.9558144   7.7561271  35.8054876  56.4449739
  24.9364099  69.4833235  12.2826894  25.3214002  69.9723247  13.0099328
  25.4836172  69.7044281  11.5290864   9.9505222  47.6847887  67.4961758
   9.1307884  47.5812912  67.0128965   9.6778029  47.8283930  68.4023952
  74.0348732  43.8966846  57.8455353  73.6526036  43.7020588  56.9898367
  73.9235043  43.0889463  58.3469248  63.9444185  79.6610335  18.1278165
  64.5106650  79.1484622  17.5508721  64.0306139  79.2405299  18.9833768
  71.2803959  63.1715202  62.3672009  70.9665405  63.2071495  63.2707787
  72.2195160  63.0040932  62.4462748  81.3171809  39.8132944  52.7905416
  81.8526783  39.1297650  53.1933641  81.9418498  40.3517294  52.3046303
  21.7548919  38.2571697  60.6493425  22.4476957  38.3218384  59.9920177
  21.2052536  39.0253615  60.4943895  78.9514350  13.4592223  60.5705547
  78.4522187  13.8221240  59.8389006  78.5109639  13.7952757  61.3511229
   8.0729133  15.9130740  61.5979147   8.1430852  16.7503273  61.1393166
   8.3036727  16.1164069  62.5043583   7.2886395  29.0927577  59.7403765
   6.4003879  29.4269776  59.6157265   7.8148794  29.5646548  59.0949202
  21.5494800  43.2471609  64.8983431  21.4664030  42.4608564  64.3588448
  21.7898560  42.9188728  65.7647562  16.3147449  52.8090048  44.3239069
  15.7889283  52.5157928  45.0680685  16.4646649  53.7399435  44.4885635
   6.6950917  27.7747917  48.3796835   7.3006791  27.0588040  48.1877089
   6.1111426  27.4211812  49.0506506  11.6571069   3.1794485  57.8294706
  12.2017801   3.9482358  57.9983759  12.1346545   2.6900688  57.1596289
  15.3177631  51.9625044  28.1157112  15.8356881  52.7208614  27.8457451
  15.9123111  51.4487267  28.6623120  86.5374618  71.2871122  51.6877890
  86.2479974  72.0044518  52.2515821  85.9376767  70.5683994  51.8876505
  77.3213386  28.9226532  35.7539988  77.7373027  28.8630271  36.6140270
  77.8834152  28.4027672  35.1795244  11.0986316  26.3759661  67.6997185
  11.0096276  25.6805086  67.0480633  10.2761197  26.8624592  67.6446772
  23.2054950  20.4913823   2.6691850  22.5859047  20.8909099   2.0586761
  22.6882435  19.8406999   3.1438382  20.3658580  80.1906783  37.6107764
  19.9874758  81.0669882  37.5390792  20.3731727  79.8587625  36.7129946
  36.0777402   0.9613613  45.6432295  35.9401250   1.8933481  45.8126211
  35.2263188   0.5586334  45.8138847  80.8837139  38.2569933  46.0640287
  79.9883711  38.4132099  45.7637119  81.0099709  37.3138309  45.9604025
  57.1779915  79.8954607  28.6235523  57.4211734  80.7398830  29.0030861
  58.0092067  79.5075174  28.3500338   0.9451081  60.3013182  16.1009896
   1.1103423  60.6296349  15.2171707   0.0147939  60.4707813  16.2494123
  50.3561663  12.0955145  48.7150955  50.7955265  12.9453886  48.6849499
  49.6513390  12.1672976  48.0714369  12.3446465  51.6821671  55.2869749
  11.7535496  52.0576286  55.9395599  11.7889345  51.5226030  54.5241165
  53.2599025  77.1523457  42.3545980  52.7592241  77.2232290  41.5418673
  53.8132875  76.3815611  42.2285461  20.2133918  62.7530670  40.7255268
  21.0530210  62.5840521  41.1529493  20.4208732  63.3737516  40.0270033
   3.1072643   4.2333990  61.7031765   3.8076776   4.3378103  62.3471880
   3.2866034   4.9034119  61.0435152  22.8264761   1.0020300  51.6597891
  22.0693088   1.4538002  52.0323896  22.6647592   0.0757568  51.8389463
  62.9640030   4.5929182  28.0676723  63.2831049   5.4198563  28.4290266
  63.7556433   4.0770179  27.9147530  17.6822400  42.9049301  49.7208738
  16.7714441  43.0246210  49.9898672  18.1452703  43.6493587  50.1051474
   6.6344482  25.8915448  56.5333128   7.0805109  25.5631137  57.3139477
   6.9645327  25.3442454  55.8207560  10.4827428  81.0593120  28.3028936
   9.7972273  80.7565207  28.8983917  10.0792217  81.0243554  27.4356103
  72.0210194  22.2184443  66.4183331  71.2251710  21.8792748  66.8279934
  72.3706698  21.4770126  65.9241104  25.8062417  56.4200918  12.0050843
  25.7104549  55.4777125  12.1428426  26.1459345  56.7504183  12.8367837
  19.6300054  14.9519420  55.3762436  20.4178810  15.4575825  55.5757713
  19.9080181  14.0385282  55.4441977   0.5164135   0.8214959  23.8993907
   1.1572744   0.9452963  23.1992459   0.0579295   1.6598782  23.9554214
  82.9347085  81.6212954  70.2384520  82.2730946  82.2118357  70.5986738
  82.4571227  81.0830455  69.6072340  79.3842464  28.4099483  55.5024242
  78.5809516  27.9249620  55.3133821  79.1123724  29.0948415  56.1133575
   7.7635050  -0.0047838  24.3036604   7.5385929  -0.1922475  23.3923411
   8.5714913   0.5056990  24.2508078  48.4684586  35.2492380  69.3904161
  48.1703901  35.0139856  68.5117531  49.2749762  35.7439113  69.2452955
   4.5235771  29.9486136  60.2749681   3.6387295  30.2972054  60.3834152
   5.0137621  30.6622243  59.8666620  52.5519967   5.2669180  44.1888189
  52.1138859   5.8949030  44.7632074  51.9944024   4.4893206  44.2145395
  20.3914666  29.5173216  32.9970908  19.5721817  29.3774414  33.4718895
  20.1619577  29.3805957  32.0779252  29.3776894  22.1849918  53.1885815
  28.9472389  22.9685831  52.8466272  30.0219536  21.9542646  52.5193119
  52.0740557  62.6893405  20.6272252  52.7770043  62.3986725  20.0461896
  51.3847041  62.0347456  20.5152734  23.6716736  70.0318841   0.2599271
  23.3581561  70.3956465   1.0879453  24.3403611  70.6499032  -0.0352685
  14.4365954  77.3508692  46.5129137  15.3915036  77.3599911  46.5784883
  14.1385698  77.1101427  47.3901033  56.8461102   9.0466897  15.6933339
  56.5233988   9.9220292  15.9075101  56.1861560   8.6864154  15.1009687
  72.7602088  20.7334375  48.0645895  72.0317947  21.3018632  48.3146620
  72.3433685  19.9164867  47.7906036  85.5083693  26.0573769   6.9813007
  85.4976281  25.4278088   7.7022445  86.2937898  26.5828085   7.1338379
  51.2233115  80.0655583  10.7235368  51.2755084  79.1950325  11.1181100
  50.5619359  79.9781350  10.0371202   2.6147987  40.8513515  17.4411042
   2.2412659  40.5720012  18.2769712   2.2241236  41.7100780  17.2792275
  22.2606421  51.2528324  67.3964357  22.4907994  52.1114588  67.0414352
  22.5561833  51.2828159  68.3063698  70.5941021  45.8947849  47.1359539
  70.3700566  44.9947405  47.3725033  70.3039062  45.9831429  46.2280941
  79.6526646  70.4487609  55.1485920  80.3208017  70.5835055  55.8206558
  79.9330544  69.6583771  54.6871758  42.9836965  74.4247798  15.5182298
  43.2150567  74.8313145  14.6831067  42.9626680  75.1516036  16.1407407
  11.0789239  51.1554146  37.8976917  10.3310418  51.2701845  37.3114061
  11.8374550  51.4053297  37.3700523  18.2221162  47.7292490  45.9538937
  17.9391277  46.8335676  45.7697582  17.5151527  48.2782888  45.6147909
  20.0905156  49.2770958  62.4832392  19.2072809  49.6249819  62.6061440
  19.9676573  48.4975386  61.9415474  74.3580257  28.7674665  55.6328058
  75.0752079  29.3378758  55.3561974  74.4788122  28.6717939  56.5775204
  37.5040168  15.6046332  16.4529490  37.7104217  14.7758425  16.0208178
  37.1590716  15.3492392  17.3085320   0.9769638  51.9774866  65.7073259
   0.9669477  51.9900990  66.6643906   0.5586895  52.7999020  65.4525614
  54.8963515  13.8496034  15.1310952  54.5924918  14.3069522  15.9151395
  54.4635812  14.3020456  14.4070466  65.4944014  45.4237175  45.9461784
  64.7626090  44.8782969  46.2346792  66.1969232  45.2297115  46.5667057
   5.1288885  16.1891127  39.3246126   5.0602329  15.7564628  40.1756907
   4.5912528  16.9762230  39.4119954  84.0067538  37.5955844  59.5216036
  83.8054388  38.5260606  59.4220018  84.9624988  37.5526881  59.4908905
  85.8062475  81.3283634  48.3165503  86.2910503  80.5450249  48.0565834
  84.9771811  81.2653160  47.8423071   1.1178198  58.5716963  41.2059402
   0.3648693  58.4589195  40.6257868   0.7420833  58.5847998  42.0862103
  39.4470227  73.7533573  13.6692555  39.2004156  72.8327755  13.5801251
  39.6897161  73.8482050  14.5903047  11.9532335  36.6741157  60.6265831
  11.9110966  35.8920336  61.1768579  12.8674531  36.7212272  60.3469133
  46.5322638  59.6689224  37.4232483  45.8606625  58.9910173  37.3481798
  46.8106413  59.8311329  36.5219021  21.7718601  16.9771838   3.1954786
  21.6288948  17.9064465   3.3751029  21.5724230  16.5397894   4.0232119
  61.4390158  34.2158890  46.8484497  61.4767885  35.0216103  47.3638296
  62.2611284  33.7668824  47.0453119  69.4955050  72.8942745  38.3207107
  68.5864019  73.1221013  38.5152817  70.0017165  73.6470508  38.6261773
  37.1298623  64.0167809  60.4438400  36.4177942  63.8838005  59.8181343
  36.7446089  64.5568132  61.1338997   1.3513929  31.5689325  29.1705537
   1.7282365  30.9200573  29.7648454   0.4603083  31.2581539  29.0105009
  13.9330471  45.1902485  44.6496058  14.0932858  46.0989141  44.9043226
  14.2736626  44.6732378  45.3796148  12.8035843  38.9212060  44.8668003
  12.3710763  38.5599494  44.0930700  12.5094056  39.8313761  44.9025917
  15.6989884  49.8951530  31.9819903  15.5531943  49.4763565  31.1337066
  15.7175040  49.1703367  32.6069140  14.0926647  51.6153669  51.0730028
  14.4924617  51.8296242  50.2300978  14.8098528  51.6856575  51.7030287
  66.8525850  20.1007485  48.6250353  66.4600563  19.4095647  48.0917215
  67.7582502  19.8188639  48.7536573  25.0464481  64.0350345   4.8180278
  25.6747818  64.1150335   4.1003736  24.9524674  64.9261884   5.1545413
  19.1104281  17.5045705  51.5775537  18.9926267  18.4493637  51.6761494
  18.5327125  17.2655165  50.8527613  67.9840279  38.4084861  28.5156377
  68.5841013  38.1961219  27.8007634  68.2321394  37.8118770  29.2218431
  11.8757141  31.3293791  60.8816862  11.5973616  30.5313396  61.3310003
  12.6662230  31.6029096  61.3469887  77.0994406  40.1074934  40.4087782
  76.9826042  40.9601259  40.8278227  76.2266922  39.8747063  40.0919962
   1.2191514  65.7527065  56.5529108   0.5123946  65.9955883  57.1510220
   1.5505707  64.9236250  56.8978977  20.3945041  59.6324253  32.9872417
  20.0136280  59.8223782  32.1298718  19.9518692  58.8337469  33.2743263
  15.5364001  36.3481283  50.7568216  15.9157395  35.6621695  50.2074671
  16.0997236  36.3744545  51.5302610   5.9168875  58.7023306  14.1223133
   6.5713269  58.0577898  14.3915868   5.1912189  58.1790447  13.7820101
  23.8046050  15.0557137  43.4517241  24.0444851  14.8801851  44.3616056
  23.4060884  15.9257579  43.4726667   7.8958410  41.1065531  56.4572048
   7.2172278  40.4551029  56.6342068   8.5860771  40.6176996  56.0090685
  17.1783447  51.0964346  60.0397158  17.0918167  50.5199385  60.7989216
  17.4089360  50.5102968  59.3189478  31.8967530  34.2723439  10.6402333
  31.4444155  35.1067511  10.7642873  31.9614160  34.1738591   9.6903165
  38.7367796  68.5860347  49.3181753  38.2171868  69.3772625  49.4603491
  38.6081659  68.0689405  50.1133537  86.0473556  43.3372211  49.8756218
  86.4292812  42.4795723  50.0621653  85.8281974  43.6941481  50.7363224
  76.3778519  47.3883629  59.2873287  75.6333184  46.7870522  59.3052816
  76.1822164  48.0321884  59.9680996  76.9696522  37.9841936  11.8990739
  76.4740229  38.1523780  12.7005036  77.2390342  38.8517988  11.5975316
  24.0798807  50.1501036  18.3813226  24.9169636  49.8106956  18.6980677
  23.5043716  49.3855524  18.3592045  28.7453961  49.9807835  27.5589871
  27.9953432  50.4452276  27.9303980  28.3577967  49.2739487  27.0428610
   8.1402934  35.0409484  32.0272923   8.1640267  34.2989182  32.6314950
   8.9360803  34.9487853  31.5034032  11.1550999  16.2393892  59.5171928
  10.6132209  16.7540622  58.9191008  10.5306506  15.6991589  60.0013876
  23.6703324  32.7013183  51.0487652  23.6406970  32.7675271  50.0943184
  23.9453578  31.8002200  51.2179232  67.7427458  47.9731035  37.0957470
  67.6598024  48.6983109  37.7149582  68.1111109  48.3721304  36.3075113
  11.4319265   9.0911001  18.2752728  11.1134744   9.9780864  18.1077170
  11.3566124   8.9847237  19.2235565  75.2728688  39.5273209  29.0218544
  75.7002258  39.0399075  28.3175635  75.9535825  39.6345663  29.6862030
  84.7838720  13.5592556  69.5278883  85.3945121  12.9122615  69.1746902
  83.9178821  13.2188427  69.3033600  10.6443071  37.1628094  52.1952820
  11.2777078  36.9545722  51.5084982  10.5511343  36.3486886  52.6900148
  26.8333650  39.6138573  63.9820623  26.7608809  40.5310297  64.2462063
  26.0294890  39.2071986  64.3055487  60.0635480  32.8022671  19.6247327
  60.0067734  33.3185816  18.8207257  60.6258440  32.0624566  19.3950868
  24.7953296  50.1836586  69.4117260  24.1732478  50.7461929  69.8730326
  25.6542826  50.5400944  69.6384096  21.9393587  42.1909904  53.4646654
  21.1352468  42.6550865  53.6975765  21.9754934  41.4537573  54.0741014
  38.6484844  78.8870004  13.2025464  38.4109485  77.9785374  13.0167993
  38.5862637  78.9609197  14.1548570   7.3469603  46.4612818  16.4637101
   7.8722972  46.7165232  15.7053530   6.5514064  46.0842180  16.0880089
   5.6881166  53.4751967  34.3007691   6.4298106  53.9716939  33.9549192
   4.9404860  54.0656892  34.2080243  75.3945016  48.3657932  46.7674732
  76.0594558  47.6772690  46.7693806  74.7708070  48.0982924  47.4425125
  78.9040410  44.1185808  44.3630457  79.5727253  43.4982967  44.0726328
  79.3902385  44.9182510  44.5639658   5.7952124  27.9920554  45.1963520
   5.4940909  27.1119380  44.9706268   6.7484128  27.9155660  45.2386665
  11.4809251  54.0405130  59.4585037  11.1545479  53.9076710  60.3484821
  12.3020959  54.5187426  59.5734310   6.8245441  19.3649530  44.3683529
   6.8600255  18.6997366  45.0557089   7.0458430  18.8922894  43.5659504
  73.6278271  47.8605366  50.0563717  74.3280172  47.4239492  50.5415106
  73.8226485  48.7937403  50.1424360  11.5658689  61.7666197  41.8760967
  10.8639646  61.1283398  42.0032310  12.1257174  61.6634226  42.6456118
   6.6441876  38.8207793  60.3210306   5.8421600  38.7561607  60.8395004
   7.0011491  37.9326296  60.3203392  39.1634238  68.4320763   7.3439057
  38.2399190  68.6656836   7.2501119  39.1782284  67.4781255   7.2664960
  13.1352663  31.8793689  36.9262362  12.3220491  32.3686229  37.0508814
  13.0226946  31.4381706  36.0842729  83.2548428   2.7909248   9.4032796
  82.5796605   2.8980319   8.7332852  83.7954641   3.5770767   9.3263372
  73.4039652  15.7083786  37.0654941  73.3979177  14.7547650  37.1480489
  74.3085861  15.9233761  36.8381834  85.3547811  63.8320187  20.3265794
  84.6357798  64.2747907  20.7773812  85.6603241  64.4684843  19.6802171
  42.8636097  13.7354505  68.1602812  43.0070424  14.6740627  68.0391741
  41.9745898  13.5855567  67.8387213  40.9270096  25.3326631  45.9205151
  40.3786850  24.6413565  45.5494738  41.7619514  24.9027157  46.1055756
  78.0750060  30.3081775  51.9436264  78.1577009  31.2595081  51.8775415
  77.9044008  30.1464748  52.8715134   3.5910875  52.6579571  64.9273586
   2.6679692  52.5006390  65.1256895   3.8150218  53.4390640  65.4332829
   8.3839750  61.3259840  42.0208073   8.4913373  61.9742346  41.3247585
   7.4418873  61.3093853  42.1894073  57.3160314  10.1934302  62.4563980
  58.1575536  10.1696002  62.9119253  56.7838549  10.8026707  62.9681110
   0.0348775  51.4474392  11.6750312   0.7290618  52.0383072  11.9669461
  -0.5703349  51.4047050  12.4153852  11.2998343  43.8415813  62.2908068
  10.9178698  42.9695272  62.3901224  11.1890566  44.2507410  63.1490326
  31.1829634  76.8777851   1.5126164  30.7398753  76.8188862   0.6661923
  32.1067000  76.7295173   1.3102325  77.6093345  47.2272205  22.3238015
  76.7738187  47.6397467  22.5428224  77.3889625  46.3093376  22.1652055
  79.5924687  41.8243027  47.1809578  80.0190603  42.0950890  47.9939318
  78.8134568  42.3775339  47.1234560  43.4872389  49.9431536   5.1076730
  43.1127668  49.6215144   4.2875798  42.7657175  49.8966125   5.7349475
  11.9774735  22.4924469  54.0249729  11.3251817  22.2174692  53.3806610
  12.4974203  23.1558204  53.5712957  18.8594032  56.4929155  32.1834786
  19.7006810  56.3354806  31.7548783  18.3082259  55.7614902  31.9051774
  28.4982157  19.9688137  46.2497139  27.5710320  20.0279880  46.0193586
  28.5880923  19.1099131  46.6625643   2.4338032  50.6291914  37.1212721
   1.8652900  50.5532789  37.8876019   2.4210709  51.5615559  36.9050193
  26.2945676  23.0414486  56.1470699  26.1702180  23.1830025  55.2085972
  25.4224992  23.1571150  56.5243578  68.3861327  36.4406586  62.8578138
  67.5623345  36.5728045  62.3886395  68.3789265  37.1055317  63.5463810
  76.2755596  16.7839551  38.9044237  76.4941573  15.8522487  38.9236951
  75.7593357  16.9253170  39.6980000  68.2104754  45.2083492  24.9015284
  67.5633454  44.9937010  25.5733776  68.7365722  44.4135904  24.8131156
  21.2021518   3.3806145  70.1654911  21.2235236   4.2018631  70.6567430
  20.3350854   3.0168453  70.3446579  27.0264788  22.1430365   6.3128932
  27.2384586  21.7182509   5.4817136  26.0860566  22.0013157   6.4213069
  70.3608882  35.2036810  44.1467619  70.2672147  35.8258176  44.8681545
  71.2135875  34.7940826  44.2929268  64.7396469  17.0539427  65.2010441
  65.6120896  16.6692948  65.1166487  64.7059273  17.7234137  64.5177412
  62.2988560  72.3765384  48.7298632  62.0128428  71.7177605  49.3626642
  63.1809663  72.6152091  49.0147305  14.4565082  10.4256487  61.5878868
  14.7411585  11.2208319  62.0383215  14.2657375  10.7116544  60.6945562
  17.1841824  17.8250706  39.9220991  17.4955618  18.6927807  40.1796961
  17.9651463  17.2723091  39.9500513   2.0831107  36.5837407  41.3050747
   2.3770079  37.4945307  41.3228798   1.2775753  36.6020584  40.7883453
  19.8313308  44.0658712  38.4614182  20.6405973  43.5675240  38.3475351
  19.1609681  43.4011698  38.6195850   0.6047703  13.7080352  18.3864530
   1.3078238  14.3083637  18.1383546   0.9653522  12.8364723  18.2233937
   7.4442357  65.3271008  62.5959110   7.7177435  65.4180717  63.5086823
   7.0637071  64.4502020  62.5461578  46.6280341  73.6713079   8.4251197
  46.7763734  72.8919367   7.8895743  46.6183758  74.3944863   7.7981027
  41.6940403  69.9213696  56.0788965  41.9418383  69.0191126  55.8770084
  40.7469845  69.9459696  55.9421015  18.7140846  65.4218388  58.4281683
  18.9032340  66.2741756  58.8205576  18.6409402  64.8258972  59.1736412
  61.7699695   1.3548697  62.0156384  61.3040710   0.7066382  62.5438118
  61.2037778   1.4974440  61.2571335   7.2855240  72.1621656  38.9990544
   6.4972222  72.0617867  39.5326614   6.9579506  72.2757816  38.1068563
   1.1967351  24.2732811  68.9818764   0.3720972  24.0458775  68.5523558
   1.5807900  24.9474788  68.4213495  73.9017320  52.7691810   7.9461892
  74.2366756  51.8767993   8.0339511  74.3340660  53.1114070   7.1637614
  25.0420880  17.6033771  40.9422970  25.3936791  17.8577888  40.0891304
  25.7969618  17.2585809  41.4192820  82.8813260  37.6026630  69.5514965
  82.1169054  38.1204700  69.2989683  83.2475751  38.0675030  70.3038406
  66.2465858  26.3276672  67.9978800  65.5144238  26.7002726  67.5066185
  66.0025525  25.4121423  68.1338644  71.4688874   9.9269216  13.2570775
  71.2255359   9.8955457  14.1822942  71.3421298  10.8421390  13.0069764
  55.5117559  53.0220127  11.1957622  55.4809093  52.2077894  10.6934524
  56.4073467  53.3400393  11.0816741   7.0592970  48.5702848  50.3623772
   6.1321944  48.4288740  50.5539942   7.2103620  49.4909716  50.5762625
  15.3300166  16.9924617  51.1249256  14.7002494  16.5319073  51.6794682
  14.7901404  17.4710596  50.4958725  39.5161808  59.2014257   4.5796474
  39.9081576  60.0554386   4.7619851  39.8145688  58.9846102   3.6963637
  17.4427283  62.0971680  29.9974537  17.5271595  62.8683138  29.4367099
  16.6908717  61.6234875  29.6416855  82.0525885  11.3559692  16.1310037
  81.6092730  10.6264083  16.5639527  81.9433499  12.0931070  16.7317803
  24.7498417  41.8764496  46.0235977  24.2975783  42.6831388  45.7767344
  25.4829645  42.1689749  46.5650702  16.7795753  58.5586166  56.4682531
  17.2382903  58.6680937  57.3012161  17.3792684  58.9195681  55.8153248
  65.1578683  15.3276985  10.0338014  65.4788995  16.1803500  10.3273233
  65.9431560  14.8623054   9.7457631  52.1895862  17.8217638  57.3554182
  52.5840474  18.6458529  57.0699072  52.9201794  17.2040213  57.3847580
  11.2222171  26.4565086  13.1032920  11.2189043  27.3567629  13.4285033
  11.9666672  26.0457587  13.5429621  21.9265008  63.8730955  51.8929052
  21.2146401  63.2439470  51.7760229  21.5077662  64.7287130  51.7990446
  17.5355721  48.0482388  28.4198952  17.5095916  47.1669817  28.0471444
  18.4305370  48.1442642  28.7455463  65.7630540  19.1780488   0.7544168
  65.9635896  18.5828082   1.4767106  66.0149343  18.6938684  -0.0319354
  81.9899305  35.5810189  52.2365427  81.1176508  35.3010798  51.9590616
  82.3567360  34.8166370  52.6808453  19.3788946  73.4221077  24.9231935
  19.9485314  73.2285213  25.6676865  18.5632277  73.7289524  25.3191328
  74.7148991   7.7636354  25.0215371  73.9645863   8.3578174  25.0071557
  74.3449164   6.9055669  24.8140081  26.8735170  49.9913740  33.5485315
  26.4065981  50.6585455  33.0454397  27.3457098  50.4842472  34.2196083
  27.5721264  77.9778481  24.3800926  27.9017186  78.3241987  23.5508513
  26.7315817  78.4180498  24.5063400  47.7114213  25.2024286  11.5734132
  47.4586833  24.3193929  11.3039716  48.6488909  25.1381032  11.7557462
  74.6172702  56.1330318  55.1886559  74.6772801  55.6693459  56.0238934
  73.7828946  56.5999937  55.2333546  38.3599639   8.5376967  58.4771109
  38.3957380   9.4920863  58.5410643  37.5827515   8.2929553  58.9793777
  27.1012378  40.7567978  21.5920901  26.8956566  41.4666080  22.2004843
  26.4701390  40.8613396  20.8800387  53.1674385  10.4817809  50.4049397
  53.5993863  11.1831797  50.8924770  52.2453595  10.5507411  50.6524181
  41.8686533  16.3435973  60.9203720  41.6793549  15.5268897  60.4584408
  42.7984715  16.2846316  61.1399031  19.2746460  48.6455393  51.5469122
  19.3050456  49.0251827  52.4250793  19.4953036  47.7232409  51.6769314
  24.4960237  69.7635651  68.2570791  24.9687314  69.1217518  68.7870312
  25.0752926  69.9341822  67.5144053  51.5122629   3.0793131  24.2005801
  51.9403363   3.1918276  23.3518600  52.2082901   2.7710856  24.7809005
  79.4632221  22.6160877   3.7707027  79.9009062  23.1418960   4.4401773
  78.5478163  22.5877015   4.0490182  25.1396728  40.5461693  49.6980619
  25.8143950  40.5852461  50.3758955  25.4208899  39.8362684  49.1208363
  20.6272984  21.9327617  60.6452465  20.4598355  21.8989897  59.7034121
  20.1966000  21.1519742  60.9932423   1.7521402  34.6562696  43.1505108
   1.8908904  35.3871655  42.5482082   1.3993759  35.0621247  43.9423895
  38.5791970   6.2899626  41.7532587  39.1645718   6.7696894  42.3392868
  38.1026537   5.6911791  42.3282337  61.7919636  13.0582826   6.2628778
  61.7808504  14.0030973   6.4159473  62.7128411  12.8525274   6.1019977
  42.9098272  11.9936836  44.0026855  42.3153973  11.8661165  43.2633543
  43.4299231  11.1906886  44.0331650  17.7584660  43.3452082  42.4258900
  17.7401805  42.6702642  43.1043816  16.8473792  43.6269951  42.3437548
  48.1940174  70.3051758  64.7335863  47.6122904  69.5993948  64.4512653
  49.0583372  70.0450563  64.4149685  58.9891380   1.1848037  17.9622109
  59.4432860   2.0270173  17.9366143  58.3145398   1.2558286  17.2868569
   9.4520396  62.0803118  28.0711198   9.9534768  62.2065210  27.2655988
   9.9737167  62.5114489  28.7480259   1.5189704  50.1377916  64.0106630
   1.4893302  49.2498493  64.3669128   1.3810490  50.7049561  64.7693014
  23.6348987  17.9945397  33.3845425  23.4515429  18.1518877  34.3107462
  24.4682884  17.5237024  33.3819866   3.5710493  40.4630375  36.7380762
   4.4153827  40.7834530  36.4207983   3.0057120  40.4724646  35.9657192
   7.4993914  54.1183090  49.6101952   7.6314735  53.2616997  49.2039776
   8.0543137  54.1017389  50.3899479  19.5942128  33.3783031  53.2965946
  19.8402965  32.4533200  53.3057022  20.4107809  33.8451457  53.4740925
  13.7754524  40.7483196  54.0807438  14.5214212  40.2795315  53.7065744
  13.1078362  40.0741196  54.2071486  13.0703735  68.4247732  56.8679667
  12.4823332  69.0967321  57.2128105  12.6772237  68.1675243  56.0340071
  14.9370253  39.9987602  61.5877151  15.2245569  39.5580506  62.3872948
  15.5676997  40.7083321  61.4652967  15.5848623  33.9172904   0.7056840
  15.4298569  33.4292667  -0.1030414  15.4907776  33.2656162   1.4004548
  18.5731864  39.6193027  65.2331781  18.8223314  39.0903568  64.4753027
  19.4056499  39.8881292  65.6217241  48.6862677  77.3643371  25.3800058
  48.0668377  76.7178135  25.7184505  48.3535802  78.2038563  25.6974316
  58.7698915  56.4909999  18.4208901  58.3263044  55.7170932  18.7680657
  58.9353459  57.0371501  19.1893800  21.5487671  17.9778314  60.9811020
  20.7897663  17.5099623  60.6328917  21.8804336  17.4113274  61.6777372
  82.1977545  28.8798539  18.8832410  82.9718996  29.3805377  18.6258538
  81.5213395  29.1481321  18.2613690  78.6607492  21.9103193  67.3347330
  78.3327853  22.1993876  68.1862688  78.0369436  22.2689772  66.7034912
  23.4367085  72.2115898  41.4659262  23.1183720  71.3444853  41.2148857
  24.0161657  72.4706841  40.7494497  12.4604237  30.7541609  50.6570578
  12.0420396  29.8984408  50.5625629  11.9509745  31.1961579  51.3362694
   5.3456117  37.4180572  19.8660405   5.7547713  38.2769887  19.9711831
   4.6469403  37.5620859  19.2278035  24.9598145  30.6083393  68.9492512
  24.0824223  30.3387046  69.2207527  24.9210000  31.5645385  68.9290190
  86.3167692  22.4049346  11.6925843  86.6298033  21.9046562  12.4462159
  86.9353343  22.1958606  10.9926541  15.4691720  13.7934387  35.1188254
  14.9369299  14.2489755  35.7710791  15.3939128  12.8681648  35.3521371
  81.3885737  35.6106298   3.8914187  81.5618897  36.3702695   3.3354123
  80.8479477  35.9531562   4.6032031  36.7314810  13.2157649   6.2861311
  35.8425331  13.2261027   6.6409498  36.8229914  14.0601195   5.8446467
  17.9048944  45.3934574  36.1084771  18.1857824  45.6370497  35.2264357
  18.7205601  45.2594519  36.5911412   7.9602815  19.5674913   4.4862636
   8.3101679  20.2963703   3.9738782   7.2893072  19.1799657   3.9242633
  67.5559140  40.2010982   2.7240880  66.8780536  40.5274646   3.3158811
  68.2388640  39.8648612   3.3043893  23.1528783  33.1893134  44.3897676
  23.9335704  33.7172604  44.5571613  22.7521563  33.5918975  43.6193275
  43.9372624  11.5000169  10.9269078  44.7120357  12.0057218  10.6815084
  43.9849807  11.4364545  11.8808015  64.5819163  26.3297558  23.3131671
  64.1127395  25.5019999  23.2086515  65.2375912  26.1500025  23.9869714
  60.4469574   8.1752126   1.0694345  60.6610057   7.2439973   1.0124381
  61.2730206   8.6225335   0.8857043   8.7834162  39.1580081  27.5779176
   9.6638054  39.4139171  27.8529787   8.8382071  39.0988183  26.6241217
  43.3893025   8.2940424  64.7169018  42.4603474   8.1372298  64.5475388
  43.8342083   7.5415267  64.3270206  20.4358315  54.7910261  14.8446524
  20.4732084  54.1414690  15.5467284  19.8336780  55.4604387  15.1695013
  49.1651321  78.6271266   1.4508613  48.8978291  79.0373067   0.6283458
  50.1051069  78.4774617   1.3494809   4.6187174  23.3364320  68.4083557
   4.5022452  22.9893804  67.5239277   4.1039333  24.1433525  68.4187317
  74.8962259  27.4904084  36.0922742  75.6846380  27.8163958  35.6582570
  75.2139914  26.8122125  36.6883516  16.0149693  33.8710713  54.8107195
  15.6860876  34.6691394  54.3970060  16.2316513  34.1364288  55.7045126
  84.9687076  56.1746852   4.7608407  85.7850242  56.3351505   4.2874368
  84.9117423  56.8933742   5.3905042  21.6737437  68.2946777  50.2851343
  21.0117865  67.6627779  50.5657530  22.1571898  68.5057545  51.0838556
  16.8543387  65.8891920   1.2945493  15.9543586  65.9397916   1.6165860
  16.7673457  65.8774022   0.3413852  16.1577487  39.6289182  64.2396736
  17.0591247  39.5689273  64.5561409  15.8682418  40.5017710  64.5052767
  10.2769697  38.4215093  48.4424448  10.4460382  37.5273156  48.7392092
   9.6986836  38.7901711  49.1102076   2.9028589  40.0833035  29.3167949
   3.1152764  39.8404956  30.2179933   2.3255950  39.3840742  29.0100741
  30.7657361   7.5611824  66.5289164  30.3055072   6.7276752  66.6273355
  31.3808465   7.5831550  67.2619867  51.8817920  46.0089080  11.4511617
  52.5445063  46.5488880  11.0205014  52.0882345  45.1145046  11.1797650
  20.5831337  60.7957935  39.1793728  20.2865028  61.5915585  39.6209645
  20.1759171  60.8360910  38.3140516  66.3860058  23.5238171  60.7218742
  65.9808850  22.6941705  60.9744549  67.0432925  23.2807016  60.0698757
  81.9720077  25.6241798  33.4731388  81.4731746  25.8047962  32.6764107
  82.7831521  25.2223897  33.1619453  84.0065285  53.7446642  21.1219883
  83.3112105  53.9389420  21.7504954  83.7327033  54.1858959  20.3178930
  15.5461776  36.9173479  12.5345910  15.2583408  36.0116029  12.6486349
  16.1898315  37.0534635  13.2298708  82.6045572  39.2040372  47.8261709
  82.0202171  39.0967870  47.0756531  83.4398865  39.4717121  47.4430180
  86.7670436  42.7989769  68.6874771  86.0389070  42.1839094  68.5994720
  86.3498151  43.6372042  68.8862896  18.7635016  37.9942536  44.0941906
  19.3209231  38.1609344  44.8542786  18.0243564  37.4965692  44.4437695
  28.3012366  66.4997292  70.6862593  28.4270144  65.7905912  71.3167667
  29.1883039  66.7802477  70.4611921  71.5967083  59.4500617   9.4464429
  70.6425572  59.3820170   9.4118531  71.9000531  58.5432688   9.4904645
  55.7382997  78.7357058  67.5290442  55.5312063  78.1374823  68.2470083
  56.3555922  78.2493665  66.9825506  20.1511885  41.2203471  25.7496961
  20.2138306  41.2433116  26.7045625  19.9701382  40.3033130  25.5435212
  58.9709776  17.9668538  13.1980546  59.6875483  18.5972659  13.1250032
  59.3364874  17.1487205  12.8614553  14.3589497  27.2378182  63.1188297
  14.2321491  28.1836200  63.1937361  14.9803972  27.1358228  62.3979759
   8.1660563  29.5415330  55.1489496   8.5181385  29.1610765  55.9536409
   7.2658777  29.2190194  55.1054239  16.5428984  56.6304636  59.3837166
  17.4197996  56.9822645  59.5370579  16.6570270  55.6806135  59.4151306
  28.0766845  69.8474598  58.3075619  27.3416209  69.2345953  58.2899284
  28.2846498  69.9986362  57.3855352   5.3408104  62.0691872  38.1407142
   5.6280929  61.5385342  37.3976731   4.3874007  61.9840860  38.1414127
  12.3830736  39.8833609  61.0810995  12.3568833  38.9535975  61.3071251
  13.3145249  40.1038790  61.0818338  59.4554806   6.9123285   7.0980771
  60.2346670   7.4681918   7.0873769  59.1511343   6.9439666   8.0050500
  21.1475635  41.2669134  62.8355217  21.1796236  40.3104353  62.8544569
  20.7443738  41.4764118  61.9930363  77.2660542  66.1534357  34.4197536
  77.9806042  66.2400627  33.7887621  77.6856184  65.8184624  35.2122140
  42.1289635  65.3256702  64.2984104  42.4011755  64.7939587  63.5504723
  41.6913366  64.7082949  64.8845530   8.3030599  24.5029902  58.5151196
   7.7226186  23.7822247  58.7596941   8.3815712  25.0281000  59.3115664
  78.6637240  61.4410114  24.6151543  79.0463680  60.8127975  24.0026474
  77.8786701  61.7610598  24.1707563  38.5725785  63.6199359   3.9874442
  37.6443333  63.7556819   3.7972720  38.6271173  62.7090887   4.2766126
  16.6755545  29.0267730  65.7779026  16.6735363  29.6177888  66.5308475
  16.7243743  29.6069574  65.0181437   5.3868639  31.0553694  53.3315897
   5.9757155  31.8067503  53.4016800   5.9541029  30.2942300  53.4546328
  15.6248152  33.6329627  60.0300455  15.9071088  33.5898185  60.9436560
  16.1835825  33.0017424  59.5766449  77.8173261  35.8453774  43.8952255
  77.3298281  36.4144063  44.4908619  78.1265795  36.4309216  43.2040453
  83.1468564  58.9401340  61.9061422  83.9910507  59.0892744  61.4803219
  82.9819548  58.0044365  61.7899036  81.2849236  16.2257068   2.3394568
  80.4043699  15.9193103   2.1227058  81.6839815  16.4260499   1.4927896
  17.6317441  47.4712372  22.9221892  16.7949402  47.9359579  22.9272604
  18.1147039  47.8394747  23.6620402   9.3939924  64.0544415  49.5359135
   9.3496490  64.0938711  50.4912758   9.0885252  64.9141169  49.2462873
  75.7070291  73.9081812  43.0100679  76.3608181  73.7362099  43.6877251
  75.7129561  73.1205511  42.4661636  52.8185749  54.1255379  15.9939003
  52.7334976  55.0099373  15.6377697  53.2426167  54.2490625  16.8431115
  62.5287092   4.0029256   2.3385509  63.4678519   4.1811054   2.3884948
  62.2073982   4.1609733   3.2262500  32.9782680  75.6973008   6.5891583
  33.6238286  76.2766436   6.1843808  32.1705103  75.8617166   6.1026128
  36.0603690  44.5512676   0.0976251  36.4123440  43.6611509   0.1030787
  35.4488730  44.5715427   0.8337595   7.6853919  47.5430155  66.1591482
   7.9313010  46.9224596  65.4730940   6.7918944  47.8044605  65.9365702
  22.1528077  37.0411921  50.6403160  21.8370223  37.9395533  50.7375717
  21.3645339  36.5019751  50.7043457  43.9825189  54.9432079  16.5817292
  44.7119701  54.6263114  17.1143754  43.9290822  54.3223790  15.8551248
  32.3895929  60.9796718  13.7128289  32.7418071  60.1912514  14.1258271
  31.5059466  61.0633997  14.0711434  67.5804746  77.4011326  47.9213142
  67.7823042  77.0658302  48.7948513  67.6535356  76.6374683  47.3488522
  82.8695020  66.4818811  29.6571112  82.3888284  66.2653255  28.8581824
  83.6573469  65.9397364  29.6170211   5.1301098  37.4273515  68.4170961
   5.1543248  38.2378674  68.9257288   4.3371880  36.9813752  68.7147760
  70.3828191  72.6922560  48.0933285  70.2272892  72.5153828  49.0211010
  71.0536289  73.3750629  48.0888462  78.8561464  21.7476623  19.2768796
  78.1174803  21.3150422  19.7051843  79.4145632  22.0380990  19.9980290
  22.9489493  53.5583925  41.4554548  22.8973389  52.6393270  41.1929893
  22.5096011  53.5898256  42.3052883  12.2123468  26.5423751  45.6430101
  12.1473897  27.4935246  45.5574083  12.8485763  26.2847495  44.9758720
  62.6181317  75.8897690  38.4343370  62.6762820  75.3470734  37.6480039
  62.9569960  76.7426542  38.1623300   2.1538074  52.3829079  68.7106562
   1.2029266  52.4532318  68.7949896   2.4762005  52.4014711  69.6117353
  26.8569088  55.4921484  66.5220451  27.3701692  55.7394314  67.2912312
  26.7389512  54.5460367  66.6068649  14.0975464  68.5962013  10.8192666
  14.6366620  69.2378596  10.3568204  13.2431102  68.6480860  10.3909238
   6.5667075   2.6516506  52.7189684   7.0391870   3.3248916  52.2293329
   6.0798383   3.1371361  53.3849239  34.6989727  64.1934538  63.8955879
  35.0120234  64.2191792  64.7997856  35.0626183  64.9824190  63.4936905
  15.5232036  47.9669714  61.6117287  14.5943654  47.8211403  61.4322186
  15.6703639  48.8844776  61.3820457  16.1957264  49.5888424  70.5511808
  15.3105342  49.7693348  70.2348089  16.2877607  48.6390114  70.4764462
   7.5178100  11.0161226   1.1281999   6.6279079  11.3551633   1.0314782
   7.6778198  10.5292718   0.3197415  52.1751833  82.1760300  12.2905477
  52.4678207  81.6047076  13.0006059  51.7736650  81.5826920  11.6557439
  12.4182391  61.6315079  54.8731899  11.6339862  61.5218163  55.4109144
  12.4574709  62.5713015  54.6957636  57.8803373  35.0108183  55.0946808
  57.5708270  34.7974146  55.9749603  58.4740115  34.2945708  54.8693419
  61.5189395  40.1921336  11.1710389  62.0002965  39.9286907  10.3867467
  61.4049307  41.1377303  11.0757573   4.4512174  37.7485871  61.6212654
   3.7333569  38.0525970  62.1766806   5.0174779  37.2521210  62.2121096
  20.1096296  28.8526464  69.9919891  19.1723955  28.6812544  70.0839186
  20.3474069  29.3196535  70.7929897  80.3453470  27.1914785  22.8225835
  80.1237441  26.4420001  22.2699483  80.9791494  27.6901548  22.3069795
  86.7216611  39.3074965  26.2840772  86.9146180  39.3625879  25.3481483
  86.5032815  40.2045298  26.5368128   6.1021520  23.7071578  13.4352525
   6.4075209  22.8455989  13.7193234   6.6602303  24.3262451  13.9058908
  43.7975645   1.3140906  69.5531178  43.4789503   0.9329928  70.3713369
  44.6134770   0.8470572  69.3731117  68.3293617  12.1500842  10.4992517
  68.1048573  12.9804485  10.0793393  68.5135413  11.5558879   9.7717698
  14.3910767  34.1405456  32.6482232  14.0039231  33.3637492  32.2445710
  15.3323055  34.0407102  32.5055535  36.5944840  45.5487602  13.9392694
  37.0500542  45.5312412  14.7809156  35.8880354  44.9101608  14.0359624
  23.7632513  68.0330372  36.4534521  23.3388972  67.9428625  37.3066974
  23.4099579  67.3116827  35.9328151  32.2166419  71.2509966  67.1662569
  31.4609671  71.1145687  67.7377272  32.0008230  72.0391893  66.6678572
  50.3293920   0.5822218  65.3643513  50.0003696  -0.0383817  64.7140980
  51.2764645   0.5944861  65.2260113  17.6867962  16.6748083  54.6470833
  16.7996681  16.3252652  54.7310781  18.2566023  15.9355617  54.8593760
  31.9695020  56.3036728  61.8720484  31.1883783  56.2668276  62.4240637
  31.6473746  56.5996599  61.0206652  17.3576428  33.0067842   3.8078387
  16.4747502  33.0206077   3.4383328  17.5709130  33.9285390   3.9531787
  34.7569060  42.6723671  29.7877789  35.5769897  42.9056072  30.2228570
  34.4116879  43.5048532  29.4652534  48.4678072   5.8521859  25.0572331
  47.9938037   6.4768188  25.6062253  48.2369334   4.9950998  25.4154714
  15.8565605  47.7027559  48.2080555  15.4890156  47.5647020  47.3350811
  16.0376012  48.6419153  48.2459354   3.7907006  31.3555353   7.9428275
   3.2441140  31.7827527   7.2833093   3.9181925  32.0228879   8.6170800
  86.4752732  47.6726580  45.1343393  86.8776433  48.0597544  44.3568516
  86.9933658  46.8862677  45.3058147  30.4587507  70.9109497  22.7255011
  29.5521021  70.6044817  22.7081585  30.4098415  71.7813540  23.1207705
  84.1660119  31.5205400  23.7969811  84.7498847  31.3635747  24.5390637
  84.5291973  32.2941844  23.3659204  66.5171171  33.0544011  18.7160810
  67.0723290  32.6753156  19.3974526  66.6700584  33.9971750  18.7795098
  39.8952580  80.8530001   8.0530675  39.2258954  80.4635600   8.6156686
  40.4144550  80.1088766   7.7481969  16.7911267  58.8704967  46.6906500
  17.6128232  58.3799934  46.7119360  16.1305153  58.2440567  46.9862890
  38.0979037  76.8945885  70.7915974  37.9096723  77.7420712  70.3883886
  38.9113212  77.0352697  71.2761497  42.8345013  64.2987970  26.6145642
  42.1419192  64.8965839  26.3331254  42.5656450  63.4446100  26.2764581
  85.5474997   2.2232474  54.7313309  85.7059193   1.2941779  54.5640707
  84.9030304   2.4789275  54.0713978  60.6944971  36.1178609  57.6411406
  61.2040829  36.3939592  58.4029309  61.3175594  36.1414119  56.9148688
  12.1192563  65.2882385  27.4900198  11.8027103  65.4262066  28.3827662
  11.3355207  65.0584507  26.9908333   5.6579400  33.4778898  37.0003923
   5.0393892  33.6843269  37.7011140   5.7652427  34.3018405  36.5251859
  27.6317240  50.7500713   4.9715074  28.5416127  51.0469787   4.9581845
  27.1208645  51.5344875   4.7716506  51.5222788   4.7691859  47.9728222
  51.6182900   4.2375315  47.1826601  51.8881870   4.2273940  48.6719656
  86.4537955  25.7919634  31.7744327  87.2857094  25.3459204  31.9331765
  86.1792136  25.4861678  30.9099507  19.2936112  32.3418634  21.3368543
  20.1622606  32.7093856  21.1737474  18.7249447  32.7816026  20.7048066
  27.2354580  48.0087535   5.3349670  27.4703432  48.9313857   5.2359088
  26.2912871  47.9839485   5.1795514  66.8869723  70.6315868   7.4711497
  65.9410525  70.6810348   7.3332294  67.1924437  70.0061099   6.8141110
  86.2753177  65.0094192   1.2451203  86.7736531  65.3232925   0.4905494
  86.5358902  65.5880515   1.9617255  24.4253899  14.5920818   6.8344005
  25.1354719  15.1205461   7.1987374  24.5310093  13.7336318   7.2444518
  13.2337475  22.4050236  67.2842169  13.2480085  22.6201510  66.3516140
  13.3159804  23.2500625  67.7262354   4.7835335  50.4175329  68.1058073
   4.3053091  49.5891905  68.1429958   4.1097343  51.0882902  68.2167721
  22.6138616  81.0139751  47.7988052  21.6975832  80.7920456  47.9643822
  22.8406978  80.5217838  47.0097971  21.9455219  26.9256561  29.7392877
  21.9473387  27.1035497  30.6798108  22.2717262  27.7331941  29.3421586
  66.2224317  61.9301156   8.3049996  66.4167476  62.0280937   7.3728641
  65.8013559  61.0732082   8.3731015  61.4306379  12.7621115  66.4714050
  61.7603088  13.4427870  67.0581055  62.1639443  12.5754107  65.8852005
  17.0391607  33.5158968  62.3851824  16.6770685  34.3537188  62.6735830
  17.9750967  33.6842990  62.2761106  81.1974049  27.3537843   8.3977635
  81.9030667  27.7279870   7.8702767  80.6139065  26.9425552   7.7600701
  84.1398407  35.2311771   3.1742986  83.3200980  35.6015842   3.5014852
  84.4636656  34.6917121   3.8956483   7.6642085  40.5624645  -0.1312129
   6.9498874  40.6883781   0.4933866   8.2434751  41.3106410   0.0133927
  81.2738276  19.4742505  24.4417985  81.4760733  18.8352840  25.1252111
  80.3173972  19.4984357  24.4119866  33.2336783  45.5206442  71.2059021
  33.1355715  45.1274586  70.3387165  33.4544683  46.4353752  71.0305500
  45.1816798  15.9717883  28.0170560  45.4286611  16.7390383  27.5007558
  45.2249015  15.2427138  27.3983383  19.7563434  53.4960079  65.4521704
  19.2109144  52.7934027  65.8058500  20.4270816  53.0439568  64.9403191
  51.8592716  73.5433439  14.5029004  52.3092342  72.8877810  13.9699872
  52.5363756  73.8813642  15.0889905   2.2930841  48.9206839  54.1517210
   1.6508210  49.5640612  54.4513845   2.3853190  49.0928698  53.2146597
  10.1957130  53.2759619  61.8736649   9.2464465  53.1704044  61.9367695
  10.5504906  52.4427319  62.1836472  15.0257803   5.4443567   0.2786239
  15.9075857   5.8090942   0.2036508  14.4591786   6.2080781   0.3878291
  74.1884781  48.9131801   0.8605798  73.4758878  49.4954364   1.1240562
  74.6084214  49.3646686   0.1284392  63.9013290  58.6590338  63.7790298
  64.0642929  58.2180691  62.9452276  64.4393349  58.1824303  64.4111919
  51.6245849  16.4630143  17.0402463  51.4227439  17.3789613  16.8491109
  50.7817972  16.0766761  17.2783311   4.5388938  12.9540508   8.1584008
   3.7523533  12.5599878   8.5356267   4.2271544  13.7553470   7.7377112
  15.5616903  75.2647638  49.4312048  16.1396050  75.9604406  49.7447014
  14.9497056  75.1185417  50.1525402  47.2964144  14.7062529  46.2789774
  47.1950174  15.0042094  47.1829557  46.4128232  14.7462882  45.9130573
  13.8968897  66.1200571  58.1942749  14.7985327  65.8770847  57.9839468
  13.7733018  66.9702864  57.7722979  59.9455074  30.8616750   0.4690106
  59.0826159  30.7517116   0.8684571  59.9822464  31.7876594   0.2293428
  15.8205485  62.3341846  51.4140034  15.5378878  63.2356071  51.2598324
  16.6530943  62.4203396  51.8784094   8.4479344  24.5477843  43.4759665
   8.3642668  23.6223650  43.2461214   9.2427748  24.5916414  44.0075111
   2.1471429  77.4474335  60.3941011   1.2420774  77.3471785  60.6891203
   2.5627161  77.9794502  61.0726929  33.8588072  15.5041473   3.4633287
  33.2678915  16.2471168   3.3406623  33.3222557  14.8403709   3.8966210
  25.5997778  12.6823728  18.5689195  24.8992706  12.8122918  17.9296716
  25.2348305  12.0638625  19.2017682  85.5235720   6.5954817  59.4426012
  84.5929814   6.8119181  59.3843699  85.5433226   5.6414832  59.5182371
  12.8390110  47.1935844  62.2837353  12.0133293  47.5061846  62.6535559
  13.1731093  46.5746069  62.9329491  19.2686583  37.8259008   2.4563964
  19.4693590  37.0909231   1.8769486  19.5127417  37.5167005   3.3287795
  69.5850563   8.6490859  61.8047857  68.8449312   9.2517985  61.7327499
  69.7672940   8.6046732  62.7434301   1.3166000  45.3929584  12.0325597
   0.6605078  45.7716434  11.4474328   0.8603359  44.6749275  12.4712785
  86.8895031   3.7572687  11.0334619  87.3238326   2.9088895  10.9448846
  86.0765911   3.6631744  10.5369218   3.1803037  13.4159820  42.4936135
   3.4496475  12.5080983  42.6330026   2.9943563  13.7481801  43.3718522
  60.9730128  11.7715423   8.5539563  61.1415202  11.9794147   7.6349195
  60.0576811  12.0158069   8.6908324  83.7569142  50.4794757  10.1437409
  84.6077848  50.0567596  10.2602132  83.2047010  49.8025195   9.7525628
   2.7503658  16.0723131  12.9446919   1.9475509  16.0085599  13.4620507
   2.8954579  17.0129316  12.8426202  56.4344597  22.2038878  61.9658995
  56.4106846  21.4122809  62.5035143  57.2172809  22.6696814  62.2599363
  43.8886738  71.2370825  58.4706450  44.0910339  72.1217585  58.1662893
  43.1156731  70.9815645  57.9672432  55.2200795   1.0105551  52.3508406
  55.2017236   0.9619559  51.3950491  55.9480286   0.4435957  52.6055527
  36.9714165  74.3580294  69.8638487  37.4404478  75.1417494  70.1502562
  37.5183749  73.9922047  69.1686964  10.5499316  37.9372661  12.9770787
  11.1634279  37.6390951  12.3055490  10.6354357  37.2950952  13.6817296
  27.9675480  10.5208529  69.3961906  27.5508297   9.9463881  68.7538815
  28.1168147  11.3398589  68.9237738  45.9427679  80.7691840  10.9265264
  46.4206004  80.1513270  10.3732045  45.9248031  81.5806798  10.4192002
   5.3447915  24.2298953   6.5964206   5.8853985  24.7836320   7.1597560
   5.9401013  23.5453813   6.2910064  55.4362417  21.6628970  69.9017954
  55.2853227  22.5295676  70.2790928  55.1092911  21.0533751  70.5634737
  72.5948000  64.0992550  25.5821641  73.1970263  63.8406972  24.8845227
  71.7617846  63.6934403  25.3421052  44.0858901   6.0338439  40.2440548
  43.4945345   5.9129752  40.9869671  44.9401391   5.7496394  40.5691957
  31.9635201  50.6544781  65.8627129  32.6780462  51.1248589  65.4332638
  31.1903048  51.1955643  65.7027245  53.7680721  76.0000038  48.4236765
  53.4134436  75.3034925  48.9762497  53.5680628  76.8071270  48.8977814
  39.9434663  19.9450880  10.0837358  39.8622562  20.8969885  10.1431020
  39.1607310  19.6101862  10.5212243  75.4542207  80.8333588  50.3488111
  75.1787769  81.2570858  49.5359087  75.7833015  81.5491676  50.8924532
  13.8291252  63.4452105  58.4605074  13.8991749  64.3924761  58.5788965
  12.8989792  63.2564497  58.5847187  30.2812266  73.5630846  17.3108375
  31.0808563  73.8265228  17.7662742  30.2630591  74.1080427  16.5241230
  15.4801679  64.2640591  53.6535215  15.3408146  64.5409584  52.7479076
  14.6145642  64.3229198  54.0578699  71.8511439  11.1402071  43.3565378
  72.3282338  10.7809199  42.6085186  72.4260140  11.8233717  43.7015438
   7.4680686  63.9131784  67.4186277   6.8647826  63.1728983  67.4839258
   7.7273989  64.0912724  68.3226538  78.2176996   6.0309045  20.3246720
  78.5399795   5.8388154  21.2052854  78.1680346   5.1764457  19.8961194
  45.9209204  58.4440374  55.3945398  45.7344055  57.6186943  54.9470472
  46.5984488  58.8583994  54.8602295  19.7258151  34.1937566  69.8508263
  20.5192351  33.6982346  70.0537300  19.0616894  33.8337517  70.4386711
   9.5719564  33.0475259  42.1170521   9.2459327  33.8509727  42.5225353
  10.5042779  33.0313826  42.3332644  40.8948040  58.8497353  64.5607424
  41.3935995  58.0389261  64.4606209  40.4010391  58.7285900  65.3717613
  83.5210275  55.1331234  65.2800465  83.6240580  54.4788742  64.5889759
  82.5755509  55.2688742  65.3423166  36.2251163  57.5967789  38.9218593
  36.7147398  57.6742125  38.1030154  36.6513228  56.8780184  39.3887186
   8.9502007  48.1869841  60.2864218   9.7881699  48.6488581  60.3131533
   9.1817427  47.2643518  60.3930473  70.5308593  27.1626298  18.9761575
  71.0167635  27.1302717  19.8002179  69.9990726  26.3667552  18.9802678
  78.7718988   0.9988611  17.5224526  79.3970538   0.3939597  17.1230634
  77.9596115   0.4964750  17.5859197  82.1666146   9.0672653  23.6390908
  82.4849392   9.3664901  22.7874024  81.6642524   9.8070924  23.9804395
  12.0872927  53.6674213  38.7336230  11.9007242  54.1180658  39.5572376
  11.4823914  52.9256392  38.7241077  18.3209538  70.2222729  20.0729966
  17.4954581  70.5507708  20.4291940  18.4961736  69.4241381  20.5715084
  67.2946334   9.6731986  44.2677498  68.2237983   9.8208655  44.0914536
  67.2353387   8.7404479  44.4743967  79.5651532  79.6544484  18.6423238
  79.8216200  79.9426869  19.5183213  78.6897755  80.0206379  18.5164102
  37.9067540  61.8500662  49.9903059  38.8161469  61.8649721  50.2886534
  37.5838304  62.7346468  50.1619816  33.9503217  81.4555359  49.7165251
  34.2434430  80.9657669  48.9481211  33.2016659  81.9642067  49.4050789
  27.0089985  25.4789750  22.1772607  26.7403341  25.2274816  21.2936338
  26.8983103  24.6828048  22.6969655  56.7508507  77.9305744  70.8789873
  56.7404222  78.7739563  70.4264021  57.4193621  77.4211836  70.4209042
  74.4225312  24.2572440  50.6007004  73.6882544  24.6559180  50.1336622
  74.1836357  23.3336199  50.6787443   8.7841059   4.5493715   6.3516982
   9.5828940   4.0719478   6.1275561   8.3991719   4.0480487   7.0705398
  56.8648434  80.5054760  55.7381392  56.9228220  80.7697582  54.8199749
  57.6602364  80.8560753  56.1389685   7.0388581  29.1396301   5.0376256
   6.6091944  28.9289539   4.2086299   6.9744540  28.3349864   5.5520471
  23.0957103  59.2079973  38.9632750  23.3994007  59.0899229  38.0632401
  22.1979809  59.5276690  38.8731527  41.0004950  76.3957167  38.4660983
  41.8453026  76.5745211  38.0531144  40.3689671  76.8897009  37.9432416
  27.6036765   4.8740901  30.5436778  27.8354697   5.7483042  30.2302146
  26.6501925   4.8940123  30.6255507  16.9153429  53.9094322   0.6734450
  17.2922207  54.0703552   1.5384896  16.1385132  54.4678562   0.6429751
  28.8915610  64.9899101  32.3533010  29.1989017  65.5377293  31.6310358
  29.6106911  64.3787432  32.5131702   7.9097415  48.5786407   6.0473664
   8.2864953  47.7850025   6.4273961   8.4906269  48.7938468   5.3176482
   5.5678011   6.6871298  17.5678921   5.0756574   7.0323790  16.8230224
   6.0325027   5.9276045  17.2166038  68.0218220   1.4888991  51.7558432
  67.3545862   0.8614195  51.4778137  67.7528739   2.3167170  51.3575888
  24.9849129  79.5534229  33.9275360  25.4441214  78.7148714  33.8807011
  25.6265521  80.1951981  33.6231422  58.6093407  43.6282890   7.1408160
  59.2410868  44.2728965   6.8220456  57.9889866  44.1382186   7.6617415
  82.9131842  17.8424995  25.8103211  82.9938412  17.1132200  26.4250405
  83.6710239  18.3970325  25.9958108  19.4149125  80.3596687  29.4012260
  20.2607942  80.1792812  28.9911318  19.6251702  80.5286407  30.3196335
  43.2722617   1.8716849  30.1588082  42.6533497   1.2329520  29.8049688
  43.0941046   2.6745642  29.6690369  65.5366516   0.3219069  64.2951345
  65.2088523  -0.2937852  63.6396217  65.2185417  -0.0241338  65.1289749
  29.8870636  14.1454284   3.2128652  30.4500271  13.4169404   2.9509290
  29.2605807  13.7565439   3.8232072  45.6495440   1.5076483  40.2308369
  46.0048473   2.2703303  39.7744298  45.5763412   0.8356131  39.5531631
  17.9409815  49.7210281  19.6137555  17.5270249  50.5510776  19.3773683
  18.4202744  49.4599120  18.8274129  14.6669626  47.1578646  67.3553610
  15.6159472  47.2501564  67.4398708  14.4028282  46.6734695  68.1375504
  74.0340996  63.7735462  41.1976814  74.1497087  64.5617199  41.7283916
  74.8543406  63.6897516  40.7114601  28.3212639  24.4933145   6.9015201
  27.6356579  23.8576619   6.6962798  29.1018416  23.9617078   7.0574697
  20.8255172  58.5957956  64.9023199  21.6823292  58.7422228  65.3031492
  20.8419275  57.6781416  64.6305132  39.8721313  58.4907150  67.2147036
  38.9175749  58.5125113  67.2823811  40.1547480  59.3462658  67.5378084
   4.1406799  21.0401095  69.6829319   4.4723535  21.8708170  69.3421173
   4.9269558  20.5396403  69.9009562  37.4086809  81.4709949  36.0108376
  36.4626074  81.3750076  35.9014654  37.7669263  80.6213951  35.7538033
   2.7737142  40.8811633   7.7376636   2.7090574  40.7451980   8.6829455
   2.2811295  40.1541297   7.3568614  28.1610680  72.9007578  69.7670937
  27.5836706  73.2762575  69.1023779  27.6748896  72.1513462  70.1109600
  34.4748521  73.8061428  69.0158701  34.0352511  74.3575764  68.3686447
  35.2975225  74.2602301  69.1982126   1.2568618   5.4978340   2.2752746
   1.8461300   5.1609247   1.6003736   1.4857794   6.4240472   2.3524793
  72.5106383  23.8316668  59.4245815  72.3667384  24.4521368  60.1391077
  73.4409190  23.6133517  59.4806528  76.9378471  76.3580084  56.6433382
  76.7885923  76.2887144  55.7003880  77.8235674  76.7127228  56.7202091
  79.1956163  52.4987762  15.5273660  78.8126541  52.3123329  14.6701558
  78.8472462  51.8147724  16.0992082  27.3798871  65.4505491  49.7431278
  27.7633643  65.3428507  50.6135130  26.5624714  64.9537420  49.7783899
  45.2609587  73.7183142  54.2837429  45.4858255  73.3707809  55.1468086
  45.4213190  72.9903889  53.6832094  39.1552569  37.8300350  12.8451665
  39.2191435  36.8957965  13.0435117  39.2624356  38.2626169  13.6922963
  38.3883262  75.6891441  67.3322582  38.5878825  74.7970819  67.0482969
  37.4320412  75.7306862  67.3370790  67.0182640  39.0632264   0.1801761
  67.1080548  39.4626777   1.0453971  67.3009361  39.7452800  -0.4290263
  15.4963672  80.9663486  29.2958689  15.3517127  81.3630676  30.1548958
  16.2656164  80.4094601  29.4157028  84.8696899  78.5093594  37.4145794
  84.4438934  78.8153887  36.6137838  85.8014679  78.4864044  37.1966505
  35.0065887   3.0770434  41.3587284  35.6112022   2.5189818  40.8696079
  35.4177416   3.1812228  42.2168255  74.8496234  22.1659946  62.4020147
  75.1705265  21.6386294  63.1335497  73.9215815  21.9416285  62.3339796
  45.7515395  10.8226077  23.5109742  46.4741529  11.4467876  23.4441789
  45.3020001  11.0624473  24.3212922  67.6863813  67.9185772  62.2656441
  68.2678509  68.6627769  62.4214935  68.1700087  67.1628189  62.5990582
  77.7995884  65.1750517  57.6641750  77.0832389  64.8564053  57.1150494
  78.5931807  64.9334955  57.1865845  84.4021154  28.7539975  23.4585412
  83.8524605  28.1984393  22.9058488  84.1434599  29.6474378  23.2325109
   5.7563783  39.6700446   1.9570811   5.1842905  39.8892085   2.6925500
   6.5842534  39.4161384   2.3649867  80.3599191  67.1121280  17.8162988
  79.4843603  66.7441432  17.9355176  80.2222133  68.0593078  17.8055318
  42.2441984  41.3152950  24.4758828  41.6181065  40.8972900  23.8846906
  42.4370695  40.6461208  25.1325639  19.7939516  62.4579971   0.2344544
  20.0764776  62.8191154   1.0746940  19.7905041  63.2084148  -0.3597562
  69.3665314  65.3186131  62.0144033  68.9643335  64.5015669  61.7196083
  70.3050709  65.1312399  62.0309401  71.9730581  11.8611972  15.2452310
  71.8316115  12.7838008  15.4574330  72.6805115  11.8694608  14.6004994
  41.3444853  69.4421244  59.6280909  41.1808443  70.1842594  59.0461206
  41.4351082  69.8342371  60.4965734  42.3379303  33.3698194   7.9660924
  41.5536905  33.7981431   7.6229556  42.0405413  32.9266326   8.7606843
  67.4447203   6.8534792  19.4610441  68.1569791   6.3612307  19.0528715
  67.1477104   7.4553622  18.7785780  13.6072231  49.3131320   2.8302033
  14.0264631  49.7995536   2.1203692  13.4469629  48.4438770   2.4628623
  83.5458542   7.0807092   6.9684918  83.9984465   6.5193813   6.3389667
  82.7014495   6.6520040   7.1078618  29.8071313  76.4581490  41.8459463
  29.1946888  77.0396280  42.2965336  30.2125788  77.0094919  41.1767197
   5.7390906  39.5594470  27.5499948   6.3758446  38.9947288  27.9880174
   4.9851252  38.9916770  27.3906262   1.9721533  29.5036142   8.3875068
   2.6816870  30.1356332   8.2719739   1.7332174  29.5780055   9.3114121
  42.8729963  78.3823061  49.1050482  42.7975607  79.0415716  48.4151840
  43.4426641  78.7853384  49.7602367   8.9471699  13.7992705  38.3352876
   9.5906998  13.0946482  38.4101748   9.2106319  14.4358767  38.9997792
  73.2845593   6.9900549  59.1081858  73.4080744   6.9768847  58.1590796
  73.9459801   7.6039923  59.4272995  39.8493338  64.1851234  60.1014614
  38.8951159  64.1420937  60.1634932  40.0256538  65.0415134  59.7119284
  83.1356144   7.4485053  59.8501968  82.9598618   8.2565058  59.3680286
  83.0918980   7.7049674  60.7713652  65.2666688   2.9506434  54.3522644
  65.0716424   3.7703169  54.8065042  64.6760273   2.9478396  53.5990238
  32.2604656  67.8205729  70.6453180  33.1008244  67.4537992  70.3705359
  32.0543647  67.3628330  71.4603186   9.5352722  39.2188300  61.5369940
   9.9445606  39.1309679  60.6761837   8.5959364  39.1594923  61.3627529
  84.9615670  20.2602519  37.0227218  84.0922928  19.9969328  36.7206383
  85.4766512  19.4537104  37.0025134  44.2147923  65.5466461  68.9988184
  44.4243050  64.6174335  69.0931559  44.1448212  65.8688259  69.8974466
  51.9308663  14.7372950  63.3624601  51.4605165  14.1142500  62.8085470
  51.8372584  14.3880023  64.2487240  56.7580557   8.0376280  58.5981989
  56.5231324   8.9346636  58.8356209  57.0261979   7.6338233  59.4235897
  56.3337303  27.6226367  49.9564552  56.6943026  27.0219553  49.3042326
  55.7469678  28.1922472  49.4589806  36.9083691  56.1084509  67.4837685
  37.4943113  55.3873158  67.2538328  36.8061304  56.0406065  68.4330702
  33.0134425  25.7890261  68.0926132  33.3306909  26.4013327  68.7564421
  33.6424476  25.8664263  67.3752642  60.2085066  58.0529785  61.7647743
  61.1456299  57.9172564  61.6247272  59.7853327  57.4312735  61.1726332
  26.4725828  75.7061577  39.4886303  27.2711682  76.0083628  39.0560031
  26.6599798  75.7906532  40.4234982  38.1558205  57.4907653  31.4003213
  37.8549887  56.6414230  31.7233689  38.9615751  57.2936313  30.9226831
  55.4407907  16.0328234  66.9230509  55.5536318  15.4727400  67.6910448
  54.5439768  15.8647479  66.6337299  34.4832969  57.5769663  62.5616550
  33.5568047  57.4590683  62.7712822  34.9316430  56.9003534  63.0690098
  30.6903795   7.5596465  56.3326073  30.3202261   7.5260008  55.4505157
  31.5543726   7.9544772  56.2148905  15.9812260  68.6973429  38.8531709
  16.3188303  68.0027485  38.2876682  16.7090142  69.3135023  38.9362526
   6.2139917  20.1848734  63.1185627   6.0564495  20.2030886  64.0625334
   5.5491091  20.7687129  62.7534628   2.7977372  59.5274131   4.5054467
   2.3665167  60.1947658   3.9716704   3.3340265  59.0340011   3.8848241
  46.0940206   0.5675829  52.6349688  45.5472923   0.1085986  53.2726669
  46.9711531   0.2085722  52.7690649  27.9394078  77.7875614  43.2612419
  27.1469116  77.6088715  43.7674570  28.6537504  77.6828575  43.8897228
  21.9493717  18.7793292  58.3863926  22.0750481  19.7248114  58.4670019
  21.9413346  18.4609641  59.2890596  49.0162850   0.6729353  46.8039417
  48.3257461   0.8971823  46.1801577  48.7745357  -0.1950323  47.1270657
   5.9571011   3.5856443  23.4228452   6.4874353   4.0883737  24.0411027
   6.4156087   3.6735826  22.5872262  77.7582992  44.6008079   6.0610374
  77.6654804  44.6752612   7.0108159  78.4775353  43.9811866   5.9385188
  40.7602501  67.3428011  62.7581787  41.2345982  66.5949631  63.1214523
  40.7340717  67.1751451  61.8161345  49.1200090   6.9299448  56.5993977
  49.5190597   6.4641608  55.8645296  48.1802464   6.7804659  56.4958096
  69.4628668  13.7010706  46.5294361  70.1600600  13.5375727  47.1645927
  69.8320914  13.4223593  45.6914520  74.4099474   6.5910758  36.4154077
  73.8214112   7.0074786  35.7857513  75.2792168   6.9174613  36.1828589
  79.4407559   5.1147593  70.8466339  79.0848112   4.8763503  69.9906588
  80.1012278   4.4456042  71.0261965  76.8312300  75.8751933   3.7162097
  76.9544900  76.5494125   4.3843968  76.0150314  75.4401080   3.9626821
  79.9426294  36.9908969   7.6049121  79.0793491  36.5816991   7.5454314
  79.8670889  37.6042812   8.3358605  57.1322752  78.2009952  12.4555715
  56.9129674  78.9479511  11.8986257  58.0817351  78.1115405  12.3733743
  77.0004750   1.9692553  22.1714783  77.9487276   1.9072379  22.0565867
  76.6450167   1.2876357  21.6011429  71.1859512  55.0780869  58.1142855
  70.2326918  55.0700569  58.2006693  71.3441992  54.8902941  57.1891260
  34.5326686  68.3901119  68.0055141  35.4650927  68.4852552  67.8111935
  34.2739320  69.2406654  68.3602619  49.5637131   8.3354510  27.0552397
  49.9108219   8.1386031  27.9252958  48.6613286   8.0171145  27.0797253
  46.3277340  73.3965635  37.7264738  45.6707716  73.9542103  38.1431985
  46.3415623  72.6024675  38.2607555  45.9566057  17.9370917  56.1111212
  45.1477254  18.2188166  55.6838322  45.9425438  18.3742655  56.9625378
  21.9215561  19.2830627  17.8450044  21.6337420  19.7922580  18.6027082
  21.4098955  18.4753911  17.8908475  17.5624561  55.0175333  64.2606068
  18.3783555  54.8582220  64.7351170  17.0436299  55.5623007  64.8524523
  39.7310638  75.1035452  61.7812920  40.3994513  75.7818031  61.6840649
  40.1188898  74.3258333  61.3800573  36.5331638  19.0148581  50.6008959
  35.6289786  19.3281401  50.6240606  36.4844287  18.1763304  50.1418400
  19.3236709  57.5332499  51.9782114  19.7891462  56.6973400  51.9495773
  18.9099956  57.6066208  51.1181402  86.6190029  16.4517276   1.1656983
  86.0595060  17.2114198   1.0042460  86.3387037  16.1252229   2.0207198
  41.6337252  79.2315578  53.1303692  40.9971046  78.5682201  53.3966923
  41.7279243  79.7951078  53.8983297  58.0828619  54.4360876  48.3844376
  57.4956131  54.9149179  47.7995491  58.3791375  55.0917721  49.0157318
  53.5558725  10.7868994  44.2645025  53.1284666  11.1792124  45.0258493
  54.3869019  11.2557448  44.1883183   3.2416416  12.7512206  65.8581257
   2.3982883  13.1139887  66.1290169   3.0187536  12.0915164  65.2013540
  20.9461927  43.4777021  69.3126440  21.0745716  44.4262314  69.3058872
  20.0214505  43.3596182  69.0955257  71.8328154  79.1145897  63.8378716
  71.2916815  79.8946476  63.9600039  71.6625011  78.5810041  64.6140862
  78.4264803   9.2830409  26.6303492  78.7832642   9.4691123  25.7618380
  79.0562535   8.6789073  27.0235991  57.2558689  23.2891501  65.1743078
  56.7006302  24.0043391  64.8637438  56.7164088  22.8290118  65.8173370
  53.3234835  68.3058977  57.1619320  53.7888241  67.4818707  57.3057079
  53.2155085  68.3574390  56.2122393  21.4779234  72.5930834  68.5795546
  21.5648961  72.9503441  67.6957941  22.1769714  73.0156231  69.0785742
  21.4542937  62.7349615  58.8830423  20.8379102  63.3689785  59.2495537
  21.5550709  62.0748758  59.5688677  71.7773855  39.1011302   9.1801961
  72.6642645  39.4608276   9.1972096  71.2077356  39.8697440   9.1492780
  73.9977885  37.6430071  54.9250269  74.9343872  37.5567568  54.7473288
  73.9439631  38.3134593  55.6060696  16.7561233  41.8860292  61.3298798
  16.1894894  42.5929785  61.0210323  17.5650024  42.3250198  61.5930033
  44.0631032  28.7007655  54.5017815  44.7320152  29.3644656  54.3335962
  43.2782805  29.0365923  54.0687609  42.9343964  17.5525586  14.0907891
  42.8178860  18.2751291  14.7076734  42.7207924  17.9295175  13.2372697
  83.2242494  81.1933613  66.9758415  82.3544657  80.8454704  67.1725273
  83.0634662  81.9022846  66.3530970  62.3741722  64.8793268  70.4675293
  62.2853112  65.5434370  69.7839451  62.8240037  64.1518974  70.0377274
  54.6958781   3.1160010  35.1545620  55.5998397   3.4216631  35.2297902
  54.2016316   3.6816252  35.7478762   1.4452673  20.4619063  56.0713053
   0.4936720  20.3630579  56.0408115   1.5832544  21.3600195  56.3722754
  44.6959877  69.1976595  46.4267683  44.1069984  68.5314035  46.7809248
  45.4707670  69.1547489  46.9872141  65.1071119  63.2563686  49.7151375
  65.5086517  63.9131451  49.1462421  64.2515755  63.0882263  49.3201590
  32.2257233  73.0169535  56.8746662  32.1973848  73.9729691  56.9130182
  32.0618629  72.7361727  57.7749681  68.1097507  52.6044559  50.4725027
  68.9069986  52.9750490  50.0939703  67.4087477  52.9010344  49.8921013
  84.9976254   1.3707579  43.8914919  85.0154305   0.5651129  43.3749151
  85.6941939   1.2562026  44.5379496  36.5230393  77.7884340  34.3140364
  37.1334648  77.0806599  34.1074824  35.7229900  77.3416233  34.5906448
  75.5136061  16.1745803  12.8831132  75.3094197  16.0814063  11.9525941
  76.1054946  15.4465501  13.0725129  82.7037359  25.1905744   2.6076968
  83.5415364  25.3240125   3.0510028  82.3434067  24.4000261   3.0094798
  83.5856105   6.1069743  42.1699460  84.3612886   6.6152780  41.9329293
  83.9326406   5.3341167  42.6154645  69.8373890   4.8076190  43.6055565
  69.4761277   4.6371115  44.4754124  70.7043028   4.4021643  43.6225557
  61.0220051  21.3221301  58.1901932  60.7513047  20.5498446  57.6936722
  60.2067709  21.7922247  58.3652020  58.0490828  77.5664234  44.6949005
  58.4706783  78.3864594  44.9518681  58.2148695  77.4962091  43.7547827
  47.9150486  63.1384468  14.9464130  47.4432039  63.0363035  14.1198766
  48.0236244  62.2449732  15.2722180  71.5582943   4.7691668  66.4307737
  71.8081379   4.2811240  65.6461573  72.3071719   4.6756972  67.0195675
  70.4035032   5.8787219  29.5389779  69.8107672   5.1656930  29.7766526
  71.2787307   5.4997699  29.6202596  85.6303740  12.6786746  42.7237654
  85.0155354  13.3183611  43.0829334  85.9889269  12.2337378  43.4916830
  64.5377398  11.3659323  56.0367250  64.1766668  11.4760722  55.1571083
  63.9148713  11.8138350  56.6091299  52.2949911  22.2543685   8.7252076
  52.1129538  21.7852657   7.9109366  53.2460715  22.2061508   8.8219197
  53.8166857  59.4225883  69.2392969  54.7432661  59.5997620  69.0771437
  53.5481930  58.8646841  68.5093021  36.0556294  14.8278920  11.9642861
  35.8899761  15.3730314  11.1951287  36.8805100  15.1590745  12.3194249
  41.8318176  81.3664246  40.0499916  41.9832706  80.4402542  40.2383804
  41.4140892  81.3704777  39.1887617  42.0857823   3.1917895  65.0529385
  42.7069903   3.0403460  65.7652569  42.3527539   4.0304221  64.6765614
  76.7192889  26.1387842  14.2911466  76.7938460  25.6615083  13.4647782
  76.5815902  27.0493858  14.0302308  76.2506819  28.3728255  47.0058203
  75.6261921  27.8633250  47.5222158  76.1049414  28.0872859  46.1038971
  60.8542514  11.3879431  41.3203859  60.0470686  11.3997973  41.8347263
  61.3565517  10.6566752  41.6797972  72.7817393  14.5376433  57.2482967
  72.2966862  14.2742575  56.4662552  73.2527161  13.7482203  57.5151968
  42.3340727  40.1407211  15.6803163  41.5539528  40.4066341  15.1935514
  42.5828434  39.3010585  15.2939065  12.9442930  66.3527632  36.7543244
  12.9461062  65.4086065  36.9117880  13.1103587  66.7392969  37.6141191
   1.7143298  48.2235687   6.0371383   1.2188793  47.7492969   5.3694327
   2.0191551  49.0145175   5.5924972  32.7693582   5.2247656  46.0956812
  31.9112522   4.8008955  46.1105776  32.6706022   5.9856928  46.6679335
  23.0582666  65.7208729  46.2497854  23.9636660  65.9896469  46.0940790
  22.8345299  66.1110640  47.0947266  50.3851175  51.4019775  67.3331165
  50.5091190  52.3487043  67.4007034  49.4416666  51.2761450  67.4345684
  66.4827383  50.4506366   4.3515475  66.8280555  50.9706180   3.6258681
  67.0204908  50.7010238   5.1027854  45.1649058  13.7922228  26.3509679
  45.2031291  12.8367365  26.3934803  45.3106392  13.9969004  25.4273343
  77.3162317  75.5478334  59.2213869  78.2619858  75.4370117  59.1239262
  76.9897842  75.6194878  58.3244324  12.8822304  20.9577529   9.6664365
  13.3869339  21.7695968   9.6173223  11.9685818  21.2414424   9.6348889
  14.4327307  58.5798836  54.9931526  14.4947648  59.2138910  54.2787170
  15.3380978  58.3178568  55.1601315   6.6448880  25.5359237   4.1483195
   6.2082316  25.2531593   4.9518140   6.2771012  26.4009588   3.9675410
  51.1905909  18.1439818  28.8015604  50.2672935  18.2558001  28.5751772
  51.5140581  17.4964751  28.1751919  78.8681746  10.4026927  58.6008787
  78.0434084   9.9175681  58.6262941  79.5097638   9.7678126  58.2822561
  39.0054750  69.3899679  62.0699930  39.8020601  68.9491320  62.3655272
  38.5154581  68.7123346  61.6042376  76.0243702  73.1720638  67.3947716
  75.6291628  73.6396646  66.6589785  76.9595528  73.1524420  67.1915865
  78.2757998  34.3700255  61.5329170  78.4418440  34.4065608  62.4748945
  77.3269844  34.4679678  61.4529848  68.6764432  14.1603772  16.7556127
  69.3887294  14.6636789  16.3611920  67.9304124  14.3044441  16.1734422
  26.3390398  60.5378962  62.7960730  27.1454000  60.6608868  62.2951841
  26.0964608  61.4193392  63.0797005  24.8169495  77.4484031   6.4375241
  24.3779732  76.7116515   6.0124047  24.6745659  77.3045795   7.3730834
  66.5769577  19.1022719  44.8581171  66.3440419  19.9852217  44.5710850
  66.0403371  18.9541949  45.6367970  76.4131546   1.1013735  60.9626913
  75.6201363   0.6422652  61.2393999  77.0538998   0.4055632  60.8159733
   9.0827585  15.4869021  50.7767677   9.4343592  15.5915583  49.8926544
   9.2691351  14.5755232  51.0023212  68.5053444  80.9126377  40.9211445
  68.0958271  80.2522182  40.3622389  68.5050106  80.5208778  41.7945004
   5.3939177  64.3524616   1.6633399   5.4960872  63.4839980   2.0526441
   5.4435302  64.1993110   0.7197745  50.8585263  21.2765540  59.3704605
  51.1847425  20.3849829  59.4925880  51.3824845  21.8075598  59.9702358
  39.3366623  68.8090277  46.5769005  38.6511803  69.1672897  46.0129881
  39.0227509  68.9692688  47.4668503  69.8808051  25.3704680  58.7166739
  70.6688738  24.8302401  58.7744522  69.1577101  24.7450388  58.7635612
  73.6411810  54.7636604  64.2082644  73.0645657  54.7173309  63.4456396
  73.2625628  55.4534960  64.7532511  51.5474821  37.0010965   7.6280721
  51.7921663  36.3706033   6.9506915  52.1183802  36.7919843   8.3673795
   3.1891705   7.4542396  21.4404710   2.7589489   7.0043533  22.1676095
   3.2748605   8.3604543  21.7365583  55.1104450  74.3515491  33.0006480
  54.2312670  74.3899870  32.6240778  55.1373100  75.0799513  33.6210871
  62.7479220  10.9694232  64.4799137  61.9449878  11.1003722  63.9755535
  63.1346488  10.1746596  64.1124582  65.7351328  22.9309385   5.2168735
  65.0245405  23.4250896   5.6256660  66.5301634  23.2698934   5.6282981
  79.2813302  61.4542644   1.2564071  78.7249184  61.9372051   0.6453403
  78.8893677  60.5820434   1.2991508  40.4721975  56.8451262  70.2474785
  39.8116565  56.1631441  70.1257372  40.5870104  57.2255421  69.3766546
  54.1021754   6.2798326   1.2212880  53.6065317   6.9322412   0.7263835
  53.6959673   5.4444902   0.9901650  50.0567032   9.9690443  10.6721814
  49.4945265  10.7375246  10.5740865  50.9366347  10.2890306  10.4732736
  30.4171730  44.9073665   0.6589492  30.1532770  45.4360263  -0.0941150
  29.7600437  45.0988452   1.3280900  21.5309883  21.6550700   7.1167119
  21.6292359  21.8654458   8.0453237  21.1584116  22.4473398   6.7297586
  11.0140325  11.4848392   2.8994067  10.2965428  12.1112363   2.8041823
  11.8060995  12.0214145   2.8685983  53.1734467  28.4362830  52.9069948
  54.0791750  28.7443961  52.9378796  53.0832148  28.0445136  52.0383120
  11.4506746  18.3449496  35.5690980  11.1677481  18.9664877  34.8983717
  10.8853746  17.5828398  35.4431510  56.2996912  78.3020163  42.1767187
  55.6609392  77.8949594  42.7619886  56.7664099  77.5653839  41.7820358
  53.7177086  13.2434596  66.4108133  52.8383494  13.0258597  66.1016035
  54.2740298  12.5483550  66.0592842  65.0186396  68.6887121  67.0226192
  64.1897917  68.2734156  66.7843437  65.4308367  68.0713654  67.6269388
  65.9447337  37.8335227  69.8220825  66.1593056  38.3460845  69.0426731
  66.7899061  37.5161780  70.1402140  39.5014549  63.0461948  23.8415177
  40.1458002  63.1242149  23.1379827  40.0053574  62.7379577  24.5947202
  62.6997185  72.7169514  58.3330965  62.3532724  71.9564295  58.7998009
  61.9467020  73.2990742  58.2314873  35.9661413  59.0013378  31.6805680
  36.6082979  58.2997672  31.5725549  36.4926840  59.7927348  31.7931493
  55.1841116  14.0726603  20.0931621  54.4985366  14.6008528  20.5020976
  55.0898862  13.2075919  20.4919219  84.9605942  25.2203310  18.3469915
  84.1391993  25.2560748  18.8371563  85.5277682  24.6546496  18.8709724
  36.9247723  80.2802181  51.6718769  37.7938986  80.4311275  51.3002872
  36.3408256  80.2574158  50.9137774  63.3847261  15.6272257  57.6757765
  63.3701468  14.6701659  57.6823664  62.5676346  15.8762492  57.2438240
  57.4923229  76.8951702  66.3887310  56.9745779  76.1085224  66.5600872
  58.4004784  76.6121054  66.4953184  32.8817345  13.7902372   8.6170991
  33.7642313  13.5082643   8.8577779  32.3034407  13.1594817   9.0459998
   4.5656181   3.0726851  27.6488376   5.0215221   2.9617442  26.8145251
   3.9441086   2.3454035  27.6807189  58.5114313  60.4539935  15.1453050
  59.0243651  60.3439205  14.3446763  58.8420225  59.7775905  15.7364400
  64.6014500  72.8071928  51.5567541  64.6565914  73.3600426  52.3362112
  64.6033716  71.9125271  51.8970537  64.3611551  18.2053793  38.6014867
  65.2836633  17.9718817  38.4981060  64.0701723  17.7012099  39.3613362
  12.1549631   5.2439345  51.1208105  11.7013002   6.0797347  51.0119677
  12.9276586   5.4571665  51.6439819   1.2811304  13.1652964  39.5511937
   1.8526245  12.4039591  39.4512200   0.7235933  12.9497469  40.2988052
  45.2278328  68.1967878  44.0337229  44.9754810  68.5543537  44.8850107
  44.5859480  67.5073624  43.8637114  84.5383453  66.5167427  64.7076654
  84.4204521  66.8108940  65.6108856  84.0637112  65.6867504  64.6621943
   3.8832069   0.9236659  55.2652597   3.7220360   1.1358489  56.1846256
   4.7502447   0.5181159  55.2614880  82.4535561   9.8123587  56.5051842
  81.6236067  10.0182284  56.0750294  82.5087643  10.4353560  57.2297955
  86.4792633  20.6162394  47.5255585  86.6960669  21.5157259  47.7708149
  85.5579567  20.6534804  47.2685814  12.6175857  42.8992499  49.2464542
  12.1869875  42.7261389  50.0836229  12.2321153  42.2640456  48.6429930
  70.2353621   2.9014433  46.7884731  69.6605873   3.6419524  46.5947771
  70.9017277   3.2620753  47.3733950  46.7849982   0.5524100  31.9838142
  47.5429285   0.6451453  32.5610256  46.9631887   1.1490096  31.2568021
  52.3741532  12.9783190  56.3076782  51.7691183  12.5613345  55.6942511
  52.5233961  13.8500823  55.9416294  51.0948302  28.1717603  12.6462300
  50.7051636  28.0407111  11.7818101  51.9479777  28.5670202  12.4669488
  21.5280747  46.8963432   8.3525068  20.7456517  46.8994331   8.9038998
  21.3676023  46.2025309   7.7128977  35.2559042  62.6602439  31.2028821
  34.8501057  62.4242929  32.0370801  34.8004538  62.1231250  30.5545743
  37.4723161  39.4628831  18.1266721  36.7408538  39.8866300  18.5757001
  38.1070626  40.1655964  17.9869493  43.5109591  78.0491396  59.1964197
  44.2379080  78.3243903  58.6378384  42.7585339  78.0058908  58.6063242
   8.2289100  41.2979746  32.9572582   8.0008954  41.2244272  32.0305276
   8.7335253  40.5061626  33.1433320  77.0968103  35.2593970  14.5943666
  76.2504458  34.8887682  14.3442988  77.7242946  34.5552540  14.4310367
  66.2042093  34.8781347  36.4974976  66.8373811  35.5670166  36.6994119
  66.7201614  34.1980100  36.0645366  62.5937748   7.9603708  54.9083757
  63.0695128   7.1317840  54.9662447  63.2728028   8.6157447  54.7482586
  71.0355233  79.2155700  34.4215989  71.2329065  80.0996467  34.1122770
  70.6017994  79.3480178  35.2645564  49.2386818  42.9806171   8.2379325
  49.1273213  43.6016501   8.9577563  49.8939276  43.3866750   7.6704772
  73.1750643  31.1274672  40.7326603  73.8511633  31.4602232  41.3229132
  73.6471653  30.5597234  40.1235485  67.0153189  16.9245720  38.7071967
  67.2757101  16.8800950  37.7871680  67.1995497  16.0503662  39.0507889
   4.2099309  53.2782136  21.1375093   4.8027086  52.5438129  20.9778214
   3.5824012  52.9444634  21.7786407  83.2618308  21.8407226   8.9280456
  84.0722981  21.3406277   9.0243793  82.6554101  21.2344432   8.5027099
   8.5533165  75.9312903  32.3612571   8.2336067  75.7865112  31.4707208
   7.9138731  75.4896252  32.9200673  81.4580029  28.5696983  54.0559292
  81.1574357  29.2950654  53.5084486  80.6918722  28.3295178  54.5770693
  13.1609726  59.1353427  57.2948599  13.7854957  59.3416463  57.9903030
  13.7035608  58.8244044  56.5701866  61.0490646  79.1792067  36.1302042
  60.8044543  79.5396372  36.9825459  61.7723503  79.7322856  35.8349180
  65.2286447   4.5873086  15.1318677  65.7720805   3.8660304  15.4491551
  65.8395446   5.3153770  15.0180753  82.0677140  28.1894398  40.0852060
  82.2050845  27.2440481  40.1451540  81.2361896  28.3396363  40.5349159
  52.3649483  65.5567097  29.8964453  53.0808847  64.9580907  30.1093364
  52.6669007  66.0237609  29.1173935  74.8292422  33.5207796  38.3477640
  74.7812950  32.7779818  37.7459478  75.3078866  33.1846261  39.1054773
  80.3477627   2.6807675  53.8920736  80.9624975   2.8229314  54.6118784
  79.7083884   2.0603772  54.2421389  83.6997627  59.8027526  53.4626627
  83.5697364  59.9457060  52.5251722  83.4867429  58.8791214  53.5959148
  74.4965803  70.6883847  31.7256474  75.1503300  70.6930732  32.4248052
  74.8100566  70.0267350  31.1090565  56.0570083  71.2129497  35.8539987
  55.7385362  70.3130805  35.7829952  56.1508936  71.5060114  34.9476147
  72.1134091  57.8272883   3.0132278  72.4902106  57.5749639   2.1702655
  72.7752734  57.5742940   3.6567815  17.5612676  23.2400823  14.6559715
  16.7234159  22.7808237  14.5983636  17.5987959  23.7706399  13.8601494
  16.3521969  49.2784929  54.0530157  16.0184371  49.1674376  54.9432421
  15.9890616  48.5381365  53.5669756  56.3438395  79.1164579  16.8488634
  56.7845462  78.2685285  16.7938566  57.0115405  79.7507899  16.5880370
  64.7252059   9.8445791  40.9926987  64.2339658  10.6024826  40.6756878
  65.6027936  10.1842117  41.1679649   7.4830669  41.7124224  48.7866402
   7.4757868  41.9803429  49.7055483   7.3322904  40.7674980  48.8114595
  17.9564667  39.6051311   4.6396908  18.2264745  40.5210829   4.5736632
  17.0023561  39.6308684   4.5672727  68.2298672  17.4337518  55.7342529
  69.0825903  17.0379376  55.9143257  68.4371304  18.3000159  55.3837395
  57.5319099  22.3024297  13.3067882  57.2772002  23.0694461  13.8196623
  58.3634448  22.0233750  13.6900747  43.0577470   5.2145307  21.1218293
  43.4222007   4.7437970  20.3722890  42.3668540   5.7616012  20.7481893
   1.2319181  22.2666526  57.9410505   1.9344251  22.7656007  57.5241995
   0.4473614  22.4954462  57.4426985  34.8833239  64.4373707  10.5063661
  34.6483022  64.3341903   9.5842202  35.4573858  63.6942104  10.6918271
  85.6803771  35.1823401  41.0118866  86.5084756  34.7022963  41.0052824
  85.7004037  35.7054901  40.2105474  66.2509465  28.0980968  50.3144646
  67.0919525  27.6842594  50.1203585  66.4401531  28.6983013  51.0357046
  75.5352449  34.4706702  61.1035633  74.6631765  34.8028898  60.8905888
  75.7214164  34.8263359  61.9725132  28.7338853  33.5671496  28.5475636
  28.9173317  32.6416254  28.7087655  29.0425277  34.0133834  29.3361354
  78.0682981  33.2225442  37.7125669  77.7164119  33.0422139  38.5842824
  78.0635696  32.3728347  37.2718811  84.1815194  22.2571540  62.2296715
  83.3450967  22.6512504  62.4772930  84.8211768  22.9595900  62.3465300
  49.6114206   0.4122476  33.0997729  49.1863513   1.1253153  33.5763049
  50.3037691   0.1104635  33.6878300   8.0670166  70.4853856  31.9490099
   7.4066329  71.1102282  32.2485018   7.9130959  70.4070639  31.0075188
  34.3299174  20.2153349  48.1949329  34.1061997  21.0219741  47.7306986
  34.7333694  19.6593702  47.5283289   5.4105471  66.3055713  69.5329253
   5.3350948  66.0541113  68.6124323   5.7192181  67.2113283  69.5092529
  58.6894726  24.3347120  39.1669178  59.2644548  23.6602235  38.8054013
  59.1420626  24.6387553  39.9536514  12.3164070  12.2479129   8.9968038
  12.7381742  13.1034338   9.0769690  11.9405007  12.2477400   8.1165045
  72.6358627  58.1076657  35.9940958  72.4520611  57.3759972  36.5832591
  72.2786628  57.8311860  35.1501775  65.9222054  44.9155188  29.2494416
  65.1579809  44.5541191  29.6984196  66.5413594  44.1868162  29.2061400
  26.6340804   1.6209754  33.4740186  26.3394952   1.3460334  34.3422675
  25.8367968   1.6371211  32.9445744  20.7496357  29.1156220  20.1197076
  21.0799527  30.0137091  20.1434302  20.1262045  29.0704942  20.8446407
  78.6615180  74.5271437  49.3899202  78.1620955  74.7899800  48.6167908
  79.3461966  73.9518647  49.0486002   0.4830824   4.2440867  41.4498997
  -0.2014949   3.9822236  42.0655394   0.3226946   5.1749724  41.2951136
  51.7332529  72.0014082  24.6751428  50.8334672  71.6807138  24.6137166
  52.2119372  71.4996039  24.0153813  21.6858125  19.1708279  42.4489498
  22.3791385  19.0347457  43.0947161  21.7542839  18.4179902  41.8617678
   4.1031277  30.8367610  30.5653310   4.0228161  31.3605833  29.7682166
   3.9368460  31.4556217  31.2763810  63.1409764   6.9201791  34.1147375
  62.5215387   7.6039696  34.3696070  63.8272357   7.3850197  33.6359882
  45.9890019  76.5438431  57.6301908  46.6667782  76.4548062  58.3002090
  46.1000871  77.4330812  57.2938156  48.5233116  30.2762580  11.6214228
  48.3310556  31.2040806  11.4857185  49.4788933  30.2242684  11.6015780
  18.4232080  32.4902654  45.1031876  17.8231168  33.1726623  45.4039431
  18.8001704  32.1316814  45.9066486  81.1597365  11.1979854  45.3194761
  81.3413286  10.5615664  46.0110188  80.2286422  11.0849202  45.1283979
  15.9329795  80.2113943  32.3150611  16.3073587  79.6858897  33.0221081
  16.5357399  80.9488414  32.2197461  67.6428437   7.3546004  55.4052496
  68.0316615   8.1888306  55.6681395  68.0681586   6.7051071  55.9651566
  19.3574739   7.2166157  36.4433765  19.7966588   7.3068821  35.5976796
  19.2417765   8.1158406  36.7503619  68.4491252  38.8910818  61.1612797
  69.2544829  38.8200021  61.6737032  67.9617822  39.6015525  61.5783644
  40.3699159  63.7210011  12.1133637  40.0556969  63.5332262  12.9978073
  41.2795197  63.9931010  12.2350776  83.7921118  72.5312441  56.7112303
  83.9059281  72.1689497  55.8325815  82.9364251  72.2088539  56.9942427
  22.1965337   8.9540195  60.3365421  21.6209865   9.2192060  61.0539389
  23.0718589   9.2150408  60.6227350  22.6413035  81.4857765  52.6100016
  22.1036910  81.0322035  53.2592106  22.9976272  80.7858120  52.0629025
  83.6628454  27.8797889  25.9268737  83.3961936  28.7040901  26.3338828
  84.0429532  28.1390667  25.0875139   3.8372499  47.0672703  62.3093748
   3.3788019  47.4560738  61.5644646   4.7473231  47.3435020  62.2012234
  66.9018953  71.9677072  32.0881701  67.6233029  71.6086220  32.6047564
  66.4907395  72.6109087  32.6656413  77.9759037   3.7743506  46.7907333
  78.7771153   4.1891953  47.1104145  77.5831615   4.4269678  46.2110138
  71.4745378  47.2707367  57.5614357  71.8497908  48.0321121  58.0038404
  70.9354186  46.8472004  58.2294178  40.6023252  55.8228055   8.5980590
  41.0016227  56.5597276   9.0603812  40.6921065  56.0445134   7.6712306
  16.5641272  22.9304671  37.7311897  16.3740361  22.0518398  37.4023867
  17.4550426  23.1108856  37.4312663   2.9488260   2.8892615   6.3946456
   3.7287128   2.4292074   6.0842294   3.0989248   3.8037413   6.1550021
  34.8444129  22.8796832   6.3259919  35.1248527  23.0628745   5.4293187
  34.1515113  23.5179870   6.4953692  76.5177750  77.5150802  34.1181111
  77.3213457  77.4878918  34.6375012  76.8105864  77.3812317  33.2166815
  53.4555422  63.8408946  15.8261657  52.7962398  63.6443197  16.4916813
  53.5735028  64.7893452  15.8786857  62.9540282  70.4137694  62.9450130
  62.9798161  71.2493133  62.4787188  63.7924432  69.9995386  62.7407980
  11.2280369  28.9385414  62.0562458  10.5682564  28.2950211  62.3147106
  11.7322516  29.0982771  62.8540468  80.1677680  10.3868294  55.1413250
  79.7291857   9.5672917  54.9127769  80.0041329  10.9624779  54.3942738
  50.6597953  47.9642283  13.3657241  51.2108158  48.3367263  14.0540934
  51.2594628  47.4367415  12.8380978   7.3168546  17.1662569  22.1505594
   7.7550858  16.9050086  21.3406610   7.1479321  18.1019711  22.0403957
  83.9955686  60.8739586  59.0408282  83.0485342  60.8181579  59.1682796
  84.2828177  61.5382536  59.6672718  73.2091486  38.0634308  21.0529494
  73.0208504  37.9667163  20.1194477  72.3716247  37.8954506  21.4848828
   3.9111492   6.3005739  36.3289499   3.8332820   5.3970230  36.6351581
   4.7973621   6.5624928  36.5784645  48.4337092  56.0153083   6.6966661
  47.8515876  55.3300384   6.3683780  49.1216922  55.5415312   7.1640475
  64.6952342  56.1176907  45.2976942  65.3877615  56.1200511  45.9584761
  64.9844807  56.7556368  44.6453190  24.4034055  68.1739930   9.4941075
  24.7429800  67.2845248   9.5929368  23.9431948  68.1627945   8.6548694
  69.6171188  47.3855543  44.1571951  69.2071652  47.8281879  44.9003267
  70.4411506  47.8540802  44.0242004  38.3950168  19.6249751   7.6259740
  38.8197822  19.1729335   8.3549913  38.9898873  19.4989327   6.8867333
  28.6326694  17.6874399  36.1836720  27.9779577  17.0192230  35.9810162
  29.4721174  17.2580767  36.0187221  31.5411352  77.1538459  50.1832628
  31.6389488  76.5627789  49.4367313  32.4357747  77.4167647  50.3994179
   9.5430589  17.1836102  57.4767780   9.8740900  17.3664784  56.5974569
   8.9392799  16.4504588  57.3577356  50.2667087  63.7881540  33.5362792
  49.6896087  64.4036483  33.0842233  49.6880650  63.3084141  34.1289449
   6.4930123  40.2643061  41.2503862   5.5821431  40.5510616  41.3161135
   6.4685237  39.3348670  41.4779329  71.5387034   9.3037510  39.6148205
  71.9233322   9.9106693  40.2472305  72.0429396   8.4969461  39.7199130
  83.8071182  23.7266588  52.8843355  83.1493789  23.0333662  52.9387140
  83.5038483  24.2891669  52.1717024  69.4551754  71.5343527  14.2886003
  69.9020863  72.3103455  13.9504655  68.5241104  71.7267207  14.1775163
  72.6462292  65.9819495  32.4093914  72.5317620  65.5929576  33.2764626
  73.5831975  66.1693357  32.3527431  10.1247978  15.2046061  28.7116265
   9.3343663  15.6902957  28.9473319   9.8475891  14.6262777  28.0010462
  78.4028601  57.9660856  40.2479076  78.0372142  58.8052069  39.9678874
  79.0452956  58.1967436  40.9189558  75.6833279  32.1183395  63.3531427
  76.6399765  32.0883393  63.3655739  75.4330861  32.1629596  64.2759752
  78.6331583   6.2766044   3.3716376  79.0190554   6.9482534   2.8093226
  79.3768502   5.9054630   3.8464101  29.3904209   1.8348224  19.7044694
  29.5630646   1.8241838  20.6459117  30.2554488   1.7602971  19.3014765
  32.8030202  33.3756355   2.8168424  32.3396212  32.5630037   2.6140578
  33.7160200  33.1097964   2.9263528  81.4232444  60.0062214  32.7650642
  81.5433144  59.0722238  32.5934076  81.8506574  60.1515018  33.6091280
  69.9288105  63.1683992  36.4999819  69.5203351  62.8929030  37.3206425
  70.8612143  62.9920625  36.6255188   9.9196720  67.1983158  36.6716790
  10.7899689  67.5641178  36.5135527   9.9907732  66.7715000  37.5254965
  35.5626822  26.6439009  61.7875433  36.0402727  26.4313483  60.9856939
  35.9323740  26.0587811  62.4487495  17.6279569  23.7819099  45.7830906
  18.0317211  24.4194221  45.1942015  17.2693491  24.3089771  46.4971161
  12.8757333  31.0211908  67.4157143  12.8617620  31.1092102  68.3687544
  13.2738018  30.1647150  67.2600937  32.1048388  40.1189419  19.3342431
  32.7369255  40.5641727  18.7699159  31.2804526  40.1600300  18.8495477
  78.7630438  32.6300097  69.4429207  78.6338418  32.6786304  68.4957266
  78.1726521  31.9332957  69.7297335   2.9787523  20.6125307  19.8793149
   3.2990384  19.7185004  19.9991453   3.3263436  21.0941052  20.6299806
  86.0214050   6.5475082  66.2316418  86.5598219   6.5047300  65.4413843
  86.6253634   6.8313235  66.9178772  67.0376491  20.9951758  41.2428713
  66.9872391  20.9214425  40.2898502  66.5323329  21.7814732  41.4493275
  81.0193216  44.0295267  53.9489174  80.6149280  43.2230425  54.2687225
  80.4117411  44.7217703  54.2094517  75.7909512   8.6404490  27.4705434
  76.7128872   8.7985778  27.2674155  75.4297542   8.2649928  26.6675496
  18.8644969  24.4926715  60.8539629  19.4229066  24.3958974  60.0825739
  19.4131923  24.2066002  61.5842581  12.3665965  28.3664322  53.9715958
  11.5245771  28.8190627  54.0201807  12.2038782  27.5138927  54.3752480
  22.1409320  77.7542146  21.5767312  21.3286829  78.2466589  21.6949797
  21.9766998  77.2011845  20.8129144  54.2234515  80.9750669  46.8587255
  53.3081173  81.0101522  47.1365070  54.7179019  80.8879544  47.6736879
   4.6352672  76.0245942  38.6903334   5.1463627  75.4032325  38.1717563
   4.3816518  75.5329936  39.4715118  59.1771769  80.2537330  44.7019482
  59.9948092  80.6318130  44.3782711  59.0224426  80.6963756  45.5364275
  80.2799540  41.2740183  61.0994482  80.2887415  41.0232496  60.1757240
  80.5647724  42.1878576  61.1022663  85.8238935  80.2092147  24.2099524
  84.8695277  80.1649257  24.2687440  85.9973716  80.4340515  23.2958484
  74.5583725   6.4040887  39.8795438  73.9008438   6.2421143  39.2030430
  74.1053509   6.2209010  40.7026148   0.1912260  67.4880349  25.7354665
   0.5686235  68.2318889  26.2050271  -0.6356836  67.8200470  25.3858685
  62.8365517  46.3785133   5.6467422  63.2124281  46.7682186   4.8573907
  63.5518051  45.8674005   6.0254367  75.0763106   4.7527984   8.9263948
  75.1117110   3.7962536   8.9265092  74.1419244   4.9579004   8.9594253
   5.8878058  25.7232881  40.5419254   5.2691448  25.0618792  40.8518124
   6.7497718  25.3479242  40.7217836  14.2162299  21.0669661  56.9816589
  15.0072253  21.4481211  57.3628092  14.5348597  20.3421474  56.4437485
  10.4748297  28.5164404  42.5059843   9.5290816  28.5244346  42.3585796
  10.7827806  27.7371812  42.0432186  51.6282559  42.0715534   0.4083760
  51.1271835  41.3111582   0.1134904  51.2247205  42.8135965  -0.0419156
  68.8785553  32.0582954   1.5102513  69.7675085  32.2787432   1.7884620
  68.9997292  31.4548186   0.7772000  33.3171749   4.5182085  10.8347666
  33.8951421   5.2508748  11.0478055  33.7937832   4.0230480  10.1685143
  66.9939947  37.0377612  24.5511818  66.3116979  36.7051625  25.1343465
  67.7787935  37.0756888  25.0978851  70.0306582  69.3856763  51.9890165
  69.9623441  68.7165843  51.3079309  69.5626711  69.0146553  52.7370548
  38.8692594  27.6791716  57.8759718  38.3278561  27.1596742  57.2816372
  38.3438587  27.7569962  58.6722946  65.5791699  78.7220805  57.3687887
  65.5471044  78.6956691  56.4124918  65.6124007  77.8026118  57.6328039
   5.8538789  13.8003540  28.9027762   6.6315788  13.5963273  29.4221878
   5.5457056  14.6368527  29.2513895  62.4251079   4.3100873  20.0907159
  62.0391845   5.1365137  19.8003483  63.2127070   4.5686322  20.5693340
  47.1505869  32.0245466   5.9287198  47.3413587  32.0947573   4.9933513
  46.8787194  31.1148272   6.0500844  34.7349257  72.0266560   5.0422032
  34.4677347  71.1671857   5.3680165  35.5183071  72.2417716   5.5484326
  73.0846858  30.3868628  58.2711554  72.5664341  30.6698918  57.5178003
  72.5034093  30.5100036  59.0216112  28.2484746  26.3972759  33.8148689
  27.5118136  25.7917738  33.8981080  27.8675985  27.2610474  33.9731836
  48.4906912  12.2532988  11.3651872  48.5035038  12.5408483  12.2780848
  47.5681162  12.2957778  11.1136222  81.5575647  79.4362388  58.0642462
  82.4134635  79.0103596  58.0163479  81.1952686  79.3455667  57.1829128
  14.7775555  25.0012183   3.2918292  14.0962791  24.3483472   3.1310418
  15.3635967  24.5851421   3.9240226  72.4346864  56.9329739  33.7563419
  72.2537064  56.0577917  33.4135127  72.5799131  57.4700212  32.9774189
  74.0970897  45.1329231  54.3632460  74.8721849  44.6072674  54.5611000
  74.2268121  45.4201460  53.4594154  28.3353472  48.2216406  25.5612874
  29.1828156  48.0126190  25.1684260  27.7865744  48.4831762  24.8219085
   6.9517440  20.3114557  70.1079893   7.2527063  21.1924434  70.3305197
   7.5420272  20.0256848  69.4107580  21.7657590  51.3923693  19.0580249
  21.8688107  51.4889812  20.0047445  22.6422405  51.1715412  18.7429893
   8.8019603  41.2076139  23.8388014   8.4754825  42.0501900  23.5230279
   8.3691579  41.0844374  24.6836329  65.0133461   1.6292922   3.7473090
  65.8505560   1.8928544   3.3654149  64.7169954   0.9040181   3.1974109
  43.7490368  78.0205253   3.3016666  43.0039323  78.2187299   2.7344211
  43.6016477  78.5508875   4.0847524  24.8446131  44.2683029  65.0660753
  24.0046549  43.9336967  64.7518444  25.4965544  43.8319778  64.5175934
  23.1831622  36.6977096  45.3447151  22.6397943  36.4708400  44.5900536
  24.0433478  36.3315201  45.1392412   8.6844677   3.9552671  25.3811741
   8.2544822   3.3852383  26.0186791   8.9089376   3.3747959  24.6539211
  22.4586963  51.3532506  52.3136520  22.0066738  51.8243395  51.6136646
  21.7602825  50.9045040  52.7901793  62.1711137  68.7789356  22.2322321
  61.5013760  68.2064616  22.6063395  62.1794569  68.5606359  21.3002944
  33.8494563  19.8922122  50.7614374  32.9102898  20.0058150  50.9073639
  33.9581966  19.9884355  49.8153162  23.3223701   5.4787982  22.5905943
  23.9011526   6.1553884  22.2392130  22.4559283   5.7058072  22.2529888
  20.6648588  35.7405710  43.1086731  20.1511192  36.4816499  43.4297752
  21.0098672  36.0355306  42.2659397   2.3818968  73.5203266  19.7416615
   2.1920657  73.4571886  18.8056004   1.7432678  74.1513968  20.0735283
  82.8271719  24.4034028  20.0470138  83.3868274  24.2973232  20.8162761
  82.0236212  24.7963643  20.3877759  22.7048516  15.4545856  27.6207614
  23.6120272  15.6398118  27.3779511  22.5430822  14.5720434  27.2873235
  27.4916839  79.7083535  50.0123739  27.8258419  79.7878899  49.1189289
  27.4655246  78.7654765  50.1752567   6.1014748  38.3292246  64.0281248
   6.5679759  38.8548160  64.6780157   6.7232519  37.6438904  63.7832928
   3.2089549  41.0574389  49.1482735   2.3805997  41.3613796  49.5193291
   3.8196629  41.7779541  49.3035841  72.3505556  28.2819414  44.8604584
  71.4138865  28.2756305  44.6633768  72.7454829  27.7579379  44.1635466
  45.5670547  10.7030094  53.1110382  45.0695562   9.9444115  53.4164190
  46.4758635  10.4974556  53.3302307  18.7655687  26.1024332  68.5882330
  18.1436801  26.2844515  69.2927599  19.6255195  26.1878157  68.9998484
  30.6197500  19.1262805  38.1056285  29.9681854  18.5970092  37.6456618
  30.1038861  19.7371864  38.6318493  76.9950759  38.0456781  31.4034176
  76.9538676  37.1427083  31.7183399  77.9064816  38.3051157  31.5385652
  76.0829472  16.1949587  20.0755787  76.0581851  15.2999139  19.7371805
  76.7192137  16.6439414  19.5189726  27.5115585  78.8508185  58.0814362
  27.6138305  79.6565380  57.5748920  27.3487091  79.1494494  58.9761639
  79.1957199  25.2392626  38.3178592  79.3755221  24.8678613  37.4541664
  79.4242388  24.5408297  38.9312124  32.8912950  27.3687959  39.5296550
  32.6818490  27.3270631  40.4627275  32.4133873  28.1344628  39.2109203
  85.9629661  30.0246096   7.6043957  86.4574765  29.3131852   8.0112928
  86.4143465  30.1868463   6.7760438   4.5423555   4.1820911  33.9561319
   5.3406888   4.7090429  33.9212441   4.4763499   3.9075735  34.8707461
  18.4993470  48.4923983  37.9214048  19.0910792  47.7566481  37.7640748
  18.2829845  48.8169146  37.0472717   6.2428296  46.7392492  69.2335606
   6.2166005  46.3312340  70.0990486   7.0449334  47.2615767  69.2392159
  52.7058672  14.1161311  12.8267717  53.6051774  14.1761982  12.5044918
  52.6384925  14.8125947  13.4799421  19.8392177  35.2002478  51.2886620
  19.4329464  34.6165967  51.9293880  19.2558229  35.9581971  51.2513638
  11.0270321  42.1066999  42.4046612  11.9794464  42.0919132  42.3102188
  10.8728004  42.6225996  43.1960440  15.0819337  17.9634225  64.1679096
  14.2219388  18.1509435  64.5440435  15.5725360  17.5573933  64.8825312
  49.8024845   7.3878384  65.6442022  49.4919205   7.9007685  64.8980856
  49.5734358   6.4844775  65.4257822   1.4449748  -0.2307568  56.5664053
   1.5546604   0.6308497  56.9686937   2.1276502  -0.2710406  55.8966541
   7.4789286  16.9822192  32.5942755   7.0441717  17.5412571  33.2382417
   7.6950693  17.5721061  31.8720913  20.9543610  44.6044302   6.9793540
  21.2936378  43.8102150   7.3920822  20.5792427  44.3028784   6.1519587
   8.0054164  47.1995258  11.0298121   8.7744504  47.7241135  10.8070409
   7.8089142  46.7110872  10.2304065  53.4919315  71.6347205  20.0558949
  53.9697807  72.2856860  19.5419550  53.4436466  70.8675980  19.4854355
  21.5572953  25.1303053  68.4142256  22.0456171  25.9459949  68.3027697
  22.1315408  24.4558883  68.0514050  79.3145751  74.7654920   9.0434444
  78.4907841  74.3629467   8.7685716  79.0501379  75.4832440   9.6188897
  34.5938778  18.9024651  36.2699819  34.7857594  18.0245101  35.9404230
  35.4492068  19.3279243  36.3302135  38.3543944  17.2902024  65.4767942
  38.5696912  16.6391981  64.8089027  37.4234009  17.4695241  65.3451538
  71.0814429  52.0131496  12.7871736  72.0145560  52.0950345  12.5901254
  70.6416941  52.2905663  11.9834931  16.9430315  35.1697302  48.6354113
  16.7085731  35.9954309  48.2117605  17.8290582  34.9840879  48.3244038
  30.7493019  23.0785227  46.7162514  29.9658775  22.8201199  47.2017431
  30.8107495  24.0247822  46.8468285  71.1143243  39.7658753  30.6991434
  71.8460285  40.3662300  30.8420205  71.5094041  39.0028882  30.2772498
  26.5487504  49.4221735  11.9015884  27.3938990  48.9915276  12.0300364
  26.7722750  50.3195667  11.6546965   8.9109546  17.9489160  41.8283939
   9.0791756  17.3617804  41.0913658   8.2378721  17.5021076  42.3417711
  56.0558081  18.6558867  51.7400169  55.8354425  19.0409124  52.5882053
  55.5461264  17.8464329  51.7047453  24.7023177   5.8148026  30.4176450
  24.8320293   6.5428394  29.8098874  23.9747524   5.3175747  30.0439548
  11.5362608  36.9940090  26.0810280  11.0094249  36.5487385  25.4173946
  11.1583924  36.7136264  26.9145942  27.1166229   1.5064539  69.2765808
  27.7615929   1.1023782  68.6960888  26.5073490   0.7988604  69.4871283
  22.2253227  47.3534155  27.9144311  22.7054358  46.6206932  28.3002329
  22.9034519  47.9864550  27.6785636  70.5176019  31.5816736  40.9577417
  70.3117239  32.0896721  40.1730251  71.3999581  31.2454653  40.8007574
  38.4000432  72.6672547  28.8997865  39.2256366  72.2399180  29.1278410
  38.4169184  73.4938084  29.3822336  15.4840553  34.6882844  37.2655106
  14.6724308  34.6322989  36.7611670  15.3461528  35.4255843  37.8601575
   8.1182081  21.0007429  47.0234537   7.1656054  20.9152365  46.9851303
   8.3942240  20.3279710  47.6458883  84.9352484  51.2824535  32.9669833
  84.7990116  51.5202856  33.8841009  85.7171785  50.7304287  32.9763103
  28.9139152  29.3344188  36.9355702  28.6424732  29.3353343  37.8534746
  28.1096029  29.1563177  36.4481330  78.2796144  23.9645358  69.5990270
  77.5436186  24.5599862  69.4576645  79.0399384  24.4397374  69.2638822
  12.1850741  45.0640774  10.2476251  12.9264367  45.6481838  10.0881529
  11.8835378  45.2942324  11.1264515   0.0579642  17.7502751  25.1470613
   0.8274508  17.6821721  25.7122922  -0.5723864  18.2555437  25.6604743
   1.6521855  26.7101097  70.5404234   1.4350207  25.7899809  70.3906441
   2.6081631  26.7398548  70.5022860  84.1576457  28.0260205  54.5770311
  84.4323189  27.7348375  53.7075520  83.2348710  28.2575703  54.4716549
  19.8799121  51.9527960  44.2685270  20.1214004  52.8778124  44.3160534
  19.5366955  51.8400908  43.3821106  82.8163886  46.6999483  18.1199074
  81.8766838  46.8484783  18.2253861  82.8753858  45.9499693  17.5280654
  21.2153006  47.6466846  40.1581287  21.2590122  46.8783474  40.7273197
  20.5311871  47.4355030  39.5228148   2.5268430  32.5590444  36.0610867
   2.1613227  31.8397379  36.5760875   3.4466323  32.3234797  35.9397244
  82.0823571   0.3825187  22.1540689  82.0239079   0.5178602  23.0998492
  82.3018211  -0.5442000  22.0578432  60.3670884  50.8420757   4.4321092
  59.5368433  51.3125769   4.5066340  60.1871276  50.1354680   3.8119872
  46.8703651  18.4130836  64.0671301  47.7008963  18.4674799  64.5398760
  47.1078444  18.5469007  63.1495619  26.2026238  33.8361430  14.2389262
  27.0898485  33.4817290  14.1801369  25.9863639  34.0904427  13.3418226
  14.3516386  30.2071857  41.3510942  13.6833966  30.7551765  40.9395266
  13.8936532  29.7690725  42.0684099  18.0965388  26.6618347  39.7664165
  17.6065671  27.4619484  39.5767450  18.9845264  26.8465614  39.4604993
   2.2386001  19.6041989  44.4072199   1.4343113  19.8487055  43.9494371
   2.0683523  19.8222196  45.3235817   4.7482258   8.2140625  51.5984440
   3.9119840   8.6519790  51.7570639   4.6949992   7.9180473  50.6897211
  27.4730015   7.7015126  29.2323923  26.5370011   7.6661050  29.0352058
  27.8824472   7.9566956  28.4056711  21.6414642  36.8298054  40.7638979
  22.5263715  36.4658451  40.7903719  21.4114332  36.8328595  39.8347569
  10.4723215  47.2508907  44.7535563  10.6887996  47.1400404  45.6793451
   9.7943932  47.9265928  44.7453451   2.4886020  28.7796831  18.6426878
   2.0079102  29.3879151  18.0812395   2.7100825  28.0471087  18.0677855
   3.0311480  41.3367271  62.8266764   2.6085943  41.8576384  62.1437931
   2.6319033  40.4702806  62.7485132  46.9343090  24.1978216  42.3496819
  47.7920866  24.3301535  41.9460297  46.3847589  24.8865223  41.9756222
   1.1568279  13.4207129  35.1564670   0.6572729  12.8118157  34.6124816
   2.0650037  13.1317282  35.0673819   5.5342412  31.1748409  18.5387468
   5.7990652  31.8261766  19.1882551   4.5831588  31.1179495  18.6306071
  20.3625822  61.9909954  56.3663721  20.6502318  61.6799736  57.2247171
  19.4406128  62.2166443  56.4900112  68.4508788   1.1604101  68.7803984
  68.9199197   1.7859605  68.2282066  67.6282203   1.0020323  68.3173895
  32.7742743  23.2025027  70.2028656  32.9160714  22.6255679  69.4523525
  32.2227287  23.9069533  69.8626089  68.1884408  34.3082356  50.3944492
  67.2998881  34.5254993  50.6764126  68.2840216  34.7433901  49.5472574
   5.6263280  44.3624544  67.8400469   5.9989005  45.2144670  68.0669737
   4.9419051  44.2185974  68.4935760  42.5942921  24.8840928  61.2530899
  43.3061289  24.6034288  60.6779814  43.0329585  25.3343344  61.9749546
  77.5829863  81.0128907   5.1694949  77.0070505  80.7618693   4.4473298
  78.4594273  81.0220651   4.7847922   1.3359976  45.1126289  49.3189335
   0.6782284  44.5348167  49.7058535   1.1506616  45.0916958  48.3800793
   3.7482166  28.9046311  20.9135056   4.4294003  28.2510281  20.7553172
   3.2102212  28.8862586  20.1220155  68.6370611  12.2179639  28.2268071
  67.7551770  12.3026180  27.8643918  69.0702569  11.5825605  27.6568627
   1.2180737  40.9830236  13.9832580   0.8545274  40.5950928  13.1872821
   2.1254967  41.1873293  13.7572634  31.1887670  53.5521317  12.1436596
  31.5846515  54.3824530  12.4083734  30.4858971  53.8023186  11.5439808
  15.1738083  15.1005089  54.4554996  14.2885578  14.8709548  54.1728878
  15.6794488  14.2966199  54.3358231  86.1621450  35.3338814  30.2130747
  85.5253511  34.6992159  30.5415964  85.6295716  36.0416293  29.8501849
  26.0745770  39.7304191   0.4288323  26.0386262  38.9218033   0.9397920
  26.8737224  39.6494376  -0.0917832   5.6967992  37.3802209  39.5539498
   5.3716493  37.6974082  40.3965044   5.2134645  36.5682960  39.4009829
  19.1520321  69.2563438  31.0330367  18.3593416  69.4477272  30.5317926
  19.8428285  69.7435760  30.5839968  21.1018229   8.2146102  34.7589636
  21.6026616   8.8798892  35.2309775  21.7251515   7.8440404  34.1341662
  56.3058024  68.0893373  54.7681141  56.5296096  68.5982512  53.9889145
  55.3503772  68.1270312  54.8125315  22.0241070  28.3356309  47.1685410
  22.4510789  29.1385198  47.4673605  21.7331719  28.5359144  46.2788916
   6.6758871  66.4470295   6.1325915   7.3863054  65.8949713   6.4593442
   7.0343376  67.3343924   6.1508496  11.2853551  51.1320972  63.1502247
  10.6043136  50.5128860  62.8875637  11.5649271  50.8284998  64.0138817
   1.6422297   9.1668648  14.4720507   1.0218871   8.9213210  15.1584291
   1.1927947   9.8516989  13.9768314  34.5640163  69.1877635  57.1218233
  34.6861159  70.0401385  56.7037575  33.7458544  69.2758210  57.6107912
  74.5899057  23.4718084  15.9833694  75.5373132  23.5434389  16.0996485
  74.2248737  24.1180801  16.5877855   6.6493332  11.7218864  46.1958027
   6.1917752  11.2971818  45.4701996   6.6463375  11.0690129  46.8957853
  41.3795567   7.4440992  41.3576078  40.9053850   7.2117364  40.5592346
  41.0864973   8.3325154  41.5602541  84.8274923  63.5703516  55.3574944
  85.1006388  62.6777554  55.5693769  84.1979813  63.4652233  54.6441221
  70.3489327  74.4197380  41.9665194  69.5293080  74.1175519  42.3578405
  70.1534509  75.3028082  41.6531420   0.1936748  60.8892202  53.0845165
   0.5397143  61.1965084  52.2466230  -0.5602049  60.3486538  52.8485441
   9.2174047  29.6414685  35.5080390   8.4538120  29.7965026  36.0640264
   9.0283906  28.8131928  35.0670576  35.9976864   9.2993075  34.7136664
  36.3216972   8.4368575  34.9733353  36.6629839   9.6340322  34.1123581
  26.2040162  61.3084987  19.7292169  26.0835192  62.1828655  20.0996144
  26.2109295  60.7256225  20.4884561  10.9835124  37.5734115  63.4784126
  10.5692065  38.0156350  62.7374554  11.2141776  36.7074609  63.1420231
  19.2535448  36.7568418  68.2101695  19.1731453  36.3057491  67.3697634
  19.3034267  36.0523912  68.8563108  11.3288915  23.8459992  37.5595808
  12.0899308  23.7724924  38.1354690  11.6093242  23.4404778  36.7391276
  16.2413752  66.7383194  37.0779419  15.9761190  66.0211325  36.5021706
  16.5771639  66.3041973  37.8621721  27.0913267  65.5447340   0.4836290
  27.1131325  65.8242941  -0.4315773  27.8316522  64.9439049   0.5682399
   5.7261431  47.1173286  43.6479092   5.9089285  47.9775286  43.2699156
   6.1644673  46.5002108  43.0620146  18.6038387  37.9717946  37.5062752
  17.7142644  38.2134676  37.7641177  18.6890554  38.2941198  36.6090155
  46.7594444  68.5133349  20.5322027  47.7112888  68.6094820  20.5635118
  46.4566290  68.8523923  21.3745666  69.6173310  62.6098919  46.7346382
  70.0839436  63.3888006  47.0376253  68.7051796  62.7671099  46.9785500
  74.8489547  15.7298915   9.3013890  75.5175114  16.4147966   9.3142350
  75.1916004  15.0720422   8.6963542  26.4964867  16.8764222  13.5174382
  26.7941475  16.5383422  12.6728487  26.0092497  16.1507678  13.9076388
   8.3818817   7.9618567  51.5148783   7.9189062   8.7855840  51.6677141
   7.7558291   7.2842896  51.7702055  72.1862317  12.5740974   2.2679790
  71.2896419  12.5215261   2.5990279  72.7350784  12.4645488   3.0445083
  76.9276511  21.1403632  31.6469359  76.0307180  20.8571696  31.4693332
  77.4649387  20.3739810  31.4464045  65.0360131  27.5499701  53.5221577
  64.3113946  27.9669189  53.9883232  65.7847261  27.6426411  54.1112852
  82.1319174  -0.0673201  17.7651525  82.9993715   0.0771480  17.3871517
  82.0889985   0.5387414  18.5048008  26.6865325   6.4792693  42.9858398
  27.1465564   6.2482959  42.1788311  25.7604790   6.4734089  42.7437210
  16.6807699  31.2553310  54.8882866  16.3766766  32.1326256  54.6556664
  16.1233652  30.6660390  54.3800879  48.3980714  77.1519016  63.5818052
  48.7820082  77.6446365  62.8565168  47.7168798  76.6171770  63.1740284
  19.4367766  32.1886754  37.1380877  19.1616917  32.5634789  37.9747987
  19.4095623  31.2423038  37.2790623  51.2057734  12.0712864  26.1435890
  51.2253475  11.1608064  25.8488417  52.0917606  12.3948801  25.9806633
  15.7582653   6.2933487  41.4451838  16.5831578   6.5618646  41.8497658
  15.1172364   6.3400656  42.1545029  74.9140644  47.0904732  22.5806427
  74.3451261  47.3082161  21.8423128  75.0502777  46.1458349  22.5076103
  36.9257998  52.3255396  11.1054599  36.0694623  52.1046114  10.7392514
  37.5132704  51.6510057  10.7647049  76.4080178  41.6995478  37.2269535
  76.5139854  42.4869347  36.6930723  77.2495615  41.5963697  37.6712370
  40.7152200  67.2137789  12.0735677  41.0209561  67.3721937  11.1804517
  39.8471988  66.8254260  11.9642385  86.0344392  29.5198536  55.8074856
  85.2032211  29.0760040  55.6392384  86.2844429  29.8892283  54.9605560
  79.6932649  15.8374107  21.1125565  78.8969224  15.8889866  20.5839634
  79.7436076  14.9199796  21.3809180   9.8960948  50.8205509  41.2732887
   9.0629226  51.2652445  41.1173964   9.8489904  50.0288630  40.7373381
  18.0887747   9.9438208  46.8486309  18.7454319   9.3182373  47.1547031
  17.3381007   9.4026440  46.6039944  67.0323002  21.8266821  53.0257034
  66.7970192  20.9076977  52.8978634  66.3976478  22.1496606  53.6653376
  17.4404216  23.8721538  40.1645803  17.6336467  24.7809505  39.9343944
  16.9770956  23.5252905  39.4021869  40.4701233  69.2613649  14.5058179
  40.4493475  68.7535524  13.6946917  41.3984299  69.4452572  14.6495652
  28.8158274  44.7667551  18.3741844  29.3359613  45.4571390  18.7853587
  29.1047549  43.9614058  18.8033330   4.5262980  32.4168324  25.5704761
   4.9274480  32.1791863  24.7345138   3.5948417  32.5108480  25.3710222
   6.9017237  44.6172905  50.1786566   7.6335484  44.0201855  50.3339815
   6.9332069  45.2307892  50.9127283  39.8417020  62.0045900  62.4293280
  40.1670361  62.8682804  62.1755028  40.4924583  61.6763687  63.0498266
  85.0343997  61.0556269  56.0422897  84.4890093  60.2948141  55.8424187
  84.8354288  61.2595272  56.9561100  49.5609545  56.5712984  67.7395738
  48.6257933  56.5725227  67.9437868  49.6163009  56.9631596  66.8680162
  35.4591346  56.2885046  24.2272592  34.7776866  55.6406021  24.0481424
  35.5365705  56.7859697  23.4131551   9.1981053  22.2129202  62.8623152
   9.8038071  21.9858885  63.5678768   8.9981520  21.3774180  62.4401951
  18.6294210  50.6512499  46.6615677  18.9973247  51.1605930  45.9394550
  18.1313074  49.9546576  46.2339306  32.9705381  69.0574837   2.6246497
  32.0906901  68.8416481   2.9337004  33.5550785  68.6674547   3.2745886
  19.1645610  46.2481785  26.7163944  19.9810600  46.3288260  27.2094035
  18.9506102  45.3161335  26.7581725  44.5363283  39.4452977  13.1250048
  44.0926552  39.3422413  12.2831237  44.5358562  38.5668039  13.5051131
  75.4365444  70.0632477  55.2215147  76.0743320  70.5472279  54.6968985
  74.8294293  69.6942663  54.5800352  30.5205536  59.6200609  40.0637913
  30.2775908  59.8145247  40.9689903  31.1920524  58.9417982  40.1364660
  54.5548201  56.6383839  14.2839158  53.7101936  57.0874786  14.3178236
  54.7710276  56.6048717  13.3520555   1.2506694  32.7315521  53.5229301
   1.6795433  32.6863956  52.6683760   1.9339594  32.4869895  54.1470575
  82.2085458  79.3720102  19.9931860  81.9502770  78.4871101  20.2510262
  82.2596305  79.3378544  19.0379608  17.0012164  59.0254068   9.8387080
  16.4403486  59.2987537  10.5646169  17.7284527  58.5654402  10.2579784
  76.0880410  52.6037121  17.3825312  76.8153697  52.0007658  17.2286558
  76.5012061  53.3930016  17.7326107  12.6773906  48.5446787  43.0895185
  12.2490251  47.8080559  43.5255480  12.3205459  48.5376930  42.2013474
  39.6265984  30.4002833  24.2157602  38.7750602  30.6321120  23.8451266
  39.4258857  29.7495556  24.8884416  15.4463530  71.9815397  29.1144967
  15.3752887  71.6534662  30.0109053  15.1262248  72.8823137  29.1630363
  53.6584568  60.3048277  38.2455850  53.7111616  60.5847645  37.3317528
  52.7527857  60.0151539  38.3554935  38.5266876  46.1040354  31.8913126
  39.2536783  45.5049324  31.7216229  38.4789109  46.6508436  31.1071277
  42.1493673  58.6903906  35.6732750  42.2543049  58.1396484  34.8974514
  42.8301191  58.3889151  36.2748718  42.0254040  10.2235115  14.7621715
  41.8859196  11.0342431  15.2515471  42.9314518  10.2798414  14.4586253
  12.9408574  42.6374674  30.3274441  12.8931248  41.9526863  30.9945464
  13.4067464  42.2290039  29.5978284  45.0563478  22.1592855  30.5507636
  45.7259941  22.8107953  30.7589507  44.2931557  22.4284935  31.0619307
  12.5443923  58.4150887   6.8909264  12.0203614  57.9844570   7.5663370
  13.3675444  58.6321831   7.3285609  18.6000252  57.5600958  66.7238235
  18.9026594  58.2322073  66.1131573  17.8587341  57.9632998  67.1756506
  33.1226754  49.1630077  33.7170506  33.4872150  48.5828590  33.0486441
  33.7656856  49.1455364  34.4258976  69.1255617   4.8960341  17.6426840
  69.9408770   4.3946970  17.6303244  68.8440943   4.9181307  16.7280698
  26.8716431  39.4079494  18.0347598  26.6775370  38.5052276  18.2870448
  26.1895895  39.6315932  17.4014997  46.7895079  61.6403484  39.9355912
  45.9739876  61.6966486  40.4335785  46.8190193  60.7351160  39.6258903
  37.9523158  55.3543091  40.0906134  38.7982440  55.7015324  39.8076415
  37.7357125  54.6892214  39.4371819  55.6635237  52.7455664  40.8077240
  55.3194237  51.8635464  40.9486914  55.9790611  52.7379656  39.9040604
  39.3147683  72.0193052  44.9181747  38.6906695  71.3404799  45.1749420
  40.1362610  71.7594957  45.3351593  50.6713152  64.2844439  50.7755184
  50.6704473  65.1586056  51.1654854  49.7499800  64.0250206  50.7671118
  86.5525532   8.6444701  16.5146899  86.4210320   9.5924891  16.5013182
  86.1504031   8.3584155  17.3348582  46.0086203  78.6752939  15.4530942
  46.5802050  78.2443953  14.8176014  46.0050392  79.5948029  15.1871586
  22.9951739  49.2254972  32.8597188  23.4894013  49.1597319  33.6768150
  23.5682893  49.7179413  32.2721219  25.9535122  52.4097061  32.7962184
  25.0172830  52.5177908  32.9636335  26.2605953  53.2892275  32.5762773
  34.2611885  52.9740953  27.0235205  35.0660253  52.6420212  26.6257834
  33.7209654  53.2444763  26.2810349  19.5941949  70.9027386   1.3829970
  18.7454629  71.2853479   1.6054712  19.8731697  70.4572296   2.1829516
  60.1641655  51.3954210  17.6154602  60.7042313  50.8367968  18.1744730
  59.3215656  50.9437418  17.5680232  22.6765609  77.3466158  13.7990296
  23.0208230  77.2072506  14.6812379  22.2880006  76.5057087  13.5579419
  81.2546444  17.6224936  60.5697107  81.4515496  16.7463721  60.9011889
  81.9902563  18.1603373  60.8626747  53.9884281  70.1231527  39.0844107
  53.7769032  70.7974052  39.7300649  53.2313251  69.5375252  39.0928555
  57.6088905  80.2645969  39.5558023  56.9044924  79.7029018  39.8791432
  57.2597790  81.1528301  39.6292233  52.1481895  76.9763470  27.5177145
  52.2984982  76.1043692  27.8828073  51.2837744  77.2267771  27.8437614
  73.2944012  36.0585356  19.0919924  73.3454180  35.6163764  19.9394143
  74.1970110  36.0709691  18.7735999  61.8362808  68.2773495  41.3289833
  61.7877293  68.4610939  42.2671270  61.0120773  68.6127615  40.9762573
  28.3952689  50.3447819  31.1158156  27.9188514  50.1365519  31.9194937
  29.2573667  50.6325531  31.4161611  39.2491460  77.1977472  47.5586510
  39.7516322  77.9159164  47.1739769  39.9006557  76.5208864  47.7420139
  44.0701056  72.9305601  28.3680296  43.4090137  73.4169674  27.8754902
  44.7709322  73.5647774  28.5191655  38.3883262  52.0085716  35.8331966
  39.1400814  51.5887117  36.2513065  38.1041646  51.3825655  35.1671624
  44.0347862  45.5909777  39.4267488  44.8065758  46.1355066  39.5818758
  43.7125587  45.3772116  40.3023672  44.6075201  47.2423220  22.9159665
  45.1888275  46.5360785  22.6339483  44.8460340  47.3983717  23.8297462
  56.4780569  63.3583450  30.7800269  56.7253256  62.5277615  30.3735518
  55.6697083  63.6117983  30.3344131  30.7681155  42.8103781  19.8685348
  30.3590822  43.0824804  20.6900477  30.9820557  41.8869638  20.0018406
  69.9987698  51.3614178  26.6701031  70.3554201  51.6466761  27.5113273
  70.0486755  52.1381950  26.1130071  44.5165873  77.4038649  27.7548814
  45.1228762  77.1181726  27.0714879  43.6657476  77.4450397  27.3183012
  67.4797297  14.7978152  30.6041694  68.1602669  14.3540896  30.0979996
  66.9248748  15.2151717  29.9452424  56.8637371  11.8495883  49.1441631
  57.0301819  12.7311743  49.4778252  56.9867087  11.2791480  49.9029160
  63.2809925  80.5272198  66.0777283  63.6157179  79.9858475  65.3628159
  62.9167652  81.2986946  65.6436777   9.1137005  12.4614466  15.4108667
   9.0503956  13.0515040  14.6598315   8.2818390  12.5702609  15.8717370
  48.8220549  62.2079229  35.1948476  48.6992455  62.2756100  36.1417198
  48.1959105  61.5383816  34.9193716  63.9106298   5.3411711  59.3624878
  64.4015599   4.5234145  59.4430923  63.0554104   5.0748290  59.0250015
  77.2856284  34.0825145   5.0994094  77.5308359  33.4997098   4.3807681
  76.4285315  33.7649028   5.3835519  39.7570848  58.2862329  21.7844319
  39.7834277  59.1122913  21.3015580  39.1173148  57.7531862  21.3124251
  15.9831740  37.8100364   3.9075072  15.2684237  37.8486650   3.2720025
  16.6945626  38.3025234   3.4980996   5.3310991  58.6393833  35.8801389
   5.4718900  59.4710922  35.4277301   6.0084272  58.0596066  35.5318189
  79.4256115  23.2513846  40.2834082  79.9831868  23.3297957  41.0574865
  79.2836094  22.3099173  40.1848888  39.0484834  68.3988285  43.2631207
  38.3768725  68.9246273  43.6975288  38.5969043  68.0009270  42.5188208
  68.7731147   2.0514716  19.5804179  68.6280108   2.5086153  20.4087877
  68.5972858   2.7107085  18.9090538  46.5701818  79.2428160  49.4661617
  46.3303518  78.3275747  49.6112394  47.3319435  79.3828487  50.0286055
  56.1804104  20.8233775  34.5813322  55.5843163  20.8724345  35.3286600
  56.9686127  20.4074324  34.9305582  33.4297562  73.7733364  32.5060296
  33.6676407  73.7244654  33.4319091  34.2073417  73.4627151  32.0422339
  40.8366585  63.5534334  65.9170723  41.2907267  62.8402853  65.4682112
  39.9216032  63.2740402  65.9460688  72.9052211  22.5405328   1.9556935
  71.9646157  22.5748079   1.7815717  73.3107365  22.5798957   1.0895331
  61.1598587   0.5266417  33.4897304  60.3708172   0.9600104  33.1644106
  61.8424774   1.1949004  33.4290433  78.0697251   1.9163550  57.4693871
  77.6481533   1.0587824  57.5250101  77.6055527   2.4535216  58.1114388
  69.8982001  27.7853621  52.3378944  70.8038330  28.0876578  52.4062681
  69.8717833  26.9868601  52.8650713  31.0817696  29.5993392   0.5520280
  30.7695891  28.8309495   1.0298999  30.9714152  30.3247897   1.1666663
  47.3284006  63.3204126  19.0635908  47.1662283  64.1629457  19.4879293
  46.9828224  63.4280777  18.1774676  36.9325787   1.6543997  28.3215642
  37.6807112   1.2869586  28.7922215  36.9727636   1.2500418  27.4548984
  73.2520676   2.4605502  25.4134107  73.8370562   1.9104422  24.8924518
  73.2163191   2.0302714  26.2677026  44.0047336   4.3793715  37.7392554
  44.7174096   4.0971125  38.3125424  43.9733541   5.3300417  37.8464174
  81.1446285  62.6188326  36.7993093  81.6858959  62.0784235  36.2237883
  80.2570057  62.2809887  36.6801047  44.3741512  68.0251265  36.2892199
  43.6829281  68.6216164  36.0017490  45.1455116  68.2942533  35.7904220
  72.4790621  55.4084873  37.2575784  72.8677607  55.1875210  36.4112234
  73.2270050  55.5020142  37.8475451  57.9454136  74.4408894  30.7248306
  57.4479198  74.9868870  30.1160479  58.2891178  75.0562620  31.3724566
  32.3018980  73.3070421  60.3927565  32.4443936  74.1880083  60.0466013
  32.2444439  73.4284830  61.3404799  73.9968443  12.4486483  47.5041962
  73.8153458  11.5168417  47.6267815  74.7702790  12.6149310  48.0430651
  86.1305809  13.4518946  37.2881103  86.7060662  13.2421816  38.0236840
  86.7254877  13.5974158  36.5524888   8.3182360  42.3967112  42.5881100
   7.9667402  41.5108336  42.6770067   9.2398239  42.2673644  42.3641109
  13.5785700  18.3998172  18.3369000  13.0562140  17.9774873  19.0188249
  13.7877775  19.2624204  18.6951955  25.3137636  74.1469145  68.9633179
  25.3904796  75.0184822  69.3515348  25.0231385  74.3092012  68.0658627
  65.9083963  10.4207743  36.6390467  65.4500342  11.0781802  37.1624470
  66.3942266   9.9009741  37.2793698  26.9155240  72.6915312  51.5443420
  26.3860583  73.4398031  51.8200111  27.7896619  72.8773403  51.8872547
  35.6680298  59.2260981  60.8016348  35.4327750  58.5716200  61.4593172
  36.2467122  59.8326540  61.2636375  74.0128851  69.1671658  22.3183775
  73.3186436  68.5101843  22.2670364  73.9491415  69.6479750  21.4931560
  22.2468758  80.3955555  34.6338344  23.1062269  80.4280853  34.2134905
  22.3646474  79.8000526  35.3739285  24.4401169  79.6261120  43.8977289
  23.8664412  79.5751429  43.1331825  23.8948298  79.3298292  44.6264982
  18.5389185  60.6001472  43.2266092  18.9538300  60.0692940  42.5467014
  17.6000500  60.4738379  43.0894852  35.3117776  79.8636246  41.6927576
  35.1842093  79.0325832  42.1502876  34.6228957  80.4334927  42.0346928
  42.0358419  49.7962257  69.4297154  41.7393016  50.3531715  70.1495151
  42.2982931  50.4104396  68.7440838  20.8650805  44.2248313   4.0888532
  21.4590145  43.6232154   4.5377811  20.8289076  43.8990943   3.1895049
  50.7530165  56.2554598   0.2484821  50.0218487  56.5764809   0.7762793
  50.5894375  56.6073465  -0.6265313  70.0717354  22.7391566  23.4583616
  69.5049763  23.3473147  22.9838610  69.4685173  22.1158827  23.8631988
  68.0636168  75.2462482  45.9806728  67.9772282  74.6655464  45.2246618
  67.6811266  74.7530937  46.7064333  81.0078621   9.0009631   3.8636404
  81.8615437   8.5680808   3.8718382  80.6679917   8.8436450   2.9827493
  65.3409481   7.5286234  40.0524950  64.9890828   8.3193911  40.4612827
  64.8750663   7.4622954  39.2189574  49.5866632  61.8621874  48.9326572
  50.4681921  61.9060802  49.3030834  49.1490746  62.6471901  49.2620897
  68.0262781  19.6317328  27.3583150  68.6993266  19.2532958  26.7926073
  68.2465101  20.5621756  27.4031711   0.9751249  45.0673342  46.6808748
   1.5269304  44.9444914  45.9084415   0.1632143  44.6057892  46.4710712
  74.5743275  10.2340640  35.4677129  74.1408015   9.9269999  36.2639523
  75.3663636  10.6716860  35.7797909  44.5130539  71.9225836  44.3825150
  45.2349043  71.3044882  44.4970942  44.3637705  72.2813177  45.2573061
  72.5841332   4.9031390  11.2040710  72.8775597   5.7870711  10.9831715
  73.2599593   4.5664538  11.7924070  64.7267557   4.7917593  50.4353809
  63.8822055   4.3420351  50.4621410  65.0759125   4.5941390  49.5663214
  45.1225829   8.7174262   9.4271594  44.3911505   9.1071452   9.9060726
  44.7967148   8.6166132   8.5328007  36.8275785  17.1523210  69.2339577
  36.5102148  16.2865373  68.9771865  37.1780586  17.0271083  70.1158406
  45.6975174  54.3872690  18.6317801  46.0058355  55.2888346  18.5403955
  45.0778913  54.4187593  19.3606877  75.4447461   9.0123213   9.2294246
  76.1420632   8.9527071   8.5764116  75.0591040   9.8771990   9.0897393
  15.5907488  79.1337299  48.7277794  16.0999167  78.4133720  49.0993452
  15.7308018  79.0638971  47.7834606  46.0879469  60.9395981  17.0585167
  45.3183508  61.0465574  16.4994860  46.8043089  60.7631397  16.4486682
  39.9613930  47.8277175   3.4732612  40.7837177  47.8031986   2.9839547
  39.6329380  46.9294517   3.4348186  62.4419928  25.5584621   5.2915120
  61.9936037  26.2447047   5.7857281  61.8818760  24.7883701   5.3887522
  45.2298450  65.9415007  38.1243873  44.8325109  66.7836714  37.9027915
  46.1601067  66.0572529  37.9308820   6.4919782  17.0411623  46.5293884
   6.6554190  16.0980261  46.5328217   7.3577906  17.4338759  46.4181280
  78.6985636  68.1880808  68.7141657  77.9509783  68.6997366  68.4050465
  78.3619785  67.2954226  68.7922955  26.5249993  36.7128818  18.3465512
  25.7921530  36.3660877  18.8553746  27.3030449  36.4554899  18.8411553
  43.5885715  64.0616751  36.8858194  43.9369440  63.1701565  36.8775201
  44.2099857  64.5566893  37.4197030  75.7554245  15.0694121  33.5036993
  75.8504153  15.6724394  34.2409682  74.9349928  14.6075095  33.6762404
  53.0718899  76.1712027  60.1826668  53.7925577  75.8089685  60.6980848
  53.1841660  77.1195889  60.2473879  52.0834422   1.5080489  21.3422632
  52.5822950   2.2808970  21.6069841  51.3085890   1.8612708  20.9051490
  68.8671303  64.7966576  49.7463083  68.6744833  65.3091478  48.9611530
  68.8827419  65.4403210  50.4546070  77.0602751  10.5258788  15.5906212
  76.2042952  10.5498351  15.1628888  77.5396729   9.8380888  15.1287198
  69.5582914  50.6813097  69.0056515  70.3950453  50.8856487  69.4231606
  68.9072847  51.1398697  69.5368290  75.7495308   8.4125269  43.4521008
  76.6376305   8.7642802  43.5135746  75.5892182   8.3297957  42.5120544
  39.7920251  63.3305788  15.1110101  38.9227915  63.1624842  15.4748905
  40.2272606  62.4781990  15.1268959  55.0330210  64.0560484  33.0226946
  54.1395760  63.8289070  32.7650261  55.5877399  63.6070061  32.3848224
  24.8440911  22.1385162  12.1819623  24.4919945  22.8032176  12.7739366
  24.9922157  21.3750665  12.7400144  19.0777756  40.6990115  12.0393117
  18.4987665  40.0083606  12.3617776  19.3713309  41.1535327  12.8289159
  86.7489624  14.4635905  21.7893267  86.1620140  14.5683135  22.5381613
  86.5020466  15.1687754  21.1910152  62.1908403   7.9676760  57.7909184
  62.1510101   8.0704726  56.8400860  62.1230913   7.0234717  57.9327869
  76.5290499  18.6457480  42.2823238  75.8477593  18.0916251  41.9015026
  77.2741557  18.0578936  42.4067259  43.6175299  67.4452353  48.8706493
  43.8085699  66.5084743  48.9176750  43.9034224  67.7907276  49.7163057
  41.9441557  69.5590973  48.8064289  41.2196112  69.3088436  49.3797016
  42.5979662  68.8714743  48.9326763  42.8042936  81.7870045  50.3748846
  42.2718525  82.1437740  51.0858345  42.9577303  80.8757782  50.6246090
  11.9778216  77.7206469  11.1692750  12.9075718  77.5832701  11.3507271
  11.8866777  77.5375319  10.2341843  85.4492760   5.5040682  30.1840305
  84.6577740   5.3938521  30.7109165  85.4778719   6.4404906  29.9877501
  30.7244396  41.6271591  14.5449269  29.9091315  41.3508415  14.9634433
  30.4660535  42.3464727  13.9686871  53.8262224  72.0803642  46.7238903
  54.5317984  72.4707413  46.2081385  53.6994171  72.6865482  47.4537516
  62.3788881  81.5613174  61.4346552  61.8485832  82.1939373  60.9500980
  62.7490139  80.9922695  60.7597971   5.5410100  29.7812335  15.9165128
   4.8382450  29.1528241  15.7508214   5.2898146  30.2114694  16.7338403
  48.7678719  68.3946896  17.1797419  47.9538298  67.9002428  17.2751021
  48.6315632  68.9323235  16.3996124  18.3617044   7.1963252  14.1259813
  18.2466055   8.1039370  14.4074547  17.4712301   6.8740023  13.9866865
  67.8909874  11.3991869  14.8820603  68.3283353  12.1839655  15.2123308
  68.5360432  10.7007826  14.9932432  30.1973915  79.0402651  44.7166443
  30.4560375  79.9125719  44.4192982  30.9990025  78.5202837  44.6595049
  86.1267519   7.0691336  49.2880821  87.0636845   6.8886794  49.2117691
  86.0651589   7.7268923  49.9807501  19.7183633  66.5717649  36.7713141
  18.7714911  66.4719439  36.8698072  19.9402392  66.0221910  36.0196686
  72.6378155  19.6905077  64.8808908  72.0920658  19.3905772  64.1539574
  72.5656128  18.9969576  65.5366373  68.1732273  17.3795832  28.7687588
  67.3134947  16.9904650  28.9289927  67.9816628  18.2239378  28.3605957
  80.8621788  19.6207465  58.3088303  81.3189316  18.8897456  58.7250566
  80.2119589  19.8960627  58.9550829  61.3863349  21.7956961  19.0929794
  60.5340696  22.2311057  19.0759015  61.6951990  21.8382300  18.1879795
  44.7025037  21.1960257  22.0573926  45.6559992  21.2289561  21.9799876
  44.4505024  22.0884455  22.2946858  18.9077975  39.0564220  18.5410150
  18.8233019  39.8250835  17.9768689  19.5183684  39.3282001  19.2262681
  63.0992055  21.2101305  67.4692154  62.4306107  21.8381060  67.1955967
  62.6033068  20.4579104  67.7924538  54.8265171  72.1639776  70.4129887
  55.3588867  71.4897442  70.8351564  55.2323389  72.9897261  70.6769466
  67.8625107  63.9314985  64.7840166  67.0377588  63.4470034  64.8198462
  67.9318094  64.2194080  63.8737774  22.5588156   4.1440047  39.0590858
  22.6798845   5.0636424  39.2953801  22.7536989   3.6624754  39.8630667
  48.1567383  60.3713083  15.2588284  49.0939474  60.1785898  15.2857721
  47.7338934  59.5176840  15.3524232  43.5781622  71.4826298  38.5722947
  43.5753393  72.4302340  38.7074804  44.3022823  71.1658239  39.1122198
  65.1636410  77.4179649  39.8456240  65.2239323  77.4276972  40.8008766
  64.2331696  77.5487471  39.6630192  70.0320197  44.9165095  50.6540871
  70.7006979  45.2973879  51.2233257  70.1799393  43.9724196  50.7092810
  51.5847158  61.6289759  42.3254871  51.3951206  60.9632063  42.9865742
  52.3103523  61.2638855  41.8191290   4.6877423  59.4107723  25.1898789
   4.4805601  59.6249723  24.2802501   4.8197779  58.4627247  25.1885962
  72.6283836  81.7260647  30.8658600  72.1105289  81.5299606  31.6466308
  73.5086918  81.4159107  31.0782051  52.6505971   0.8890856  35.5686522
  53.4051490   1.4726580  35.4890871  51.9790459   1.4225043  35.9937620
  80.0633908   1.4903201  70.3689528  80.9848786   1.5811957  70.1263905
  79.5863295   1.9351519  69.6684027  53.5308075  67.4241495  59.9155140
  52.7500725  67.7910662  59.5007133  53.8650227  66.7915773  59.2796040
  56.9514990  73.6932945   8.3016312  56.8529701  74.5660973   7.9211861
  57.5921488  73.8088274   9.0033805  28.4963251  13.7132681  38.7612939
  28.8377405  14.5348967  39.1142821  29.2483736  13.1211222  38.7627077
   0.6934000  16.7178095   9.4583714   1.0838152  17.3970736   8.9084578
   1.4411188  16.2298335   9.8033738  84.8602820  21.2118186  20.1355314
  84.5821905  22.0284689  20.5502391  85.7040549  21.0124339  20.5411530
  12.4434353  29.9420584  43.2507372  12.5393082  29.6980322  44.1713285
  11.6790367  29.4500960  42.9509020   6.3365484  44.2468108  11.1420310
   6.7710806  43.9576281  11.9443965   6.2399126  45.1930178  11.2496495
  71.7945194  80.4747200  48.8953733  71.9384480  81.3653374  48.5754967
  70.8843660  80.4708290  49.1917467  64.8462582   2.5763834  28.3114529
  64.4205666   2.0420683  28.9819193  65.4302001   1.9694651  27.8565931
  73.5345555   1.0292948  33.6716819  73.7294865   1.9216097  33.9580560
  73.8396645   0.9966982  32.7649975  78.3179713   8.6742724  37.4245739
  79.0470839   9.2850913  37.5319529  77.5793457   9.2258872  37.1669483
  85.1344395  40.5028343  47.0931673  85.5485153  40.5632496  46.2322855
  85.8302784  40.1920414  47.6723528  42.8872538  66.1833048  35.0395250
  43.6126423  66.5377665  35.5537248  42.7410030  65.3096485  35.4022384
  44.5237589  67.1348906  24.9385619  44.2577076  66.3110065  24.5303178
  44.7107410  67.7175188  24.2024803  41.9281292  72.3844957  32.8701401
  42.5317955  71.8691540  33.4051514  41.0984945  71.9097137  32.9203963
  74.5541001  28.8183154  18.0908036  73.6307764  29.0466155  17.9831851
  74.6158743  28.4861125  18.9863813  28.3627678  40.9075706  15.5212338
  28.9035536  40.4817359  16.1864026  27.8419758  40.1977413  15.1455434
  40.5460787  64.5382166   9.5050991  41.2529898  64.1682005   8.9763361
  40.5410910  64.0087605  10.3025186  53.6662102  78.7033939  60.2500820
  54.2903996  79.4185877  60.1271296  53.3065367  78.8472176  61.1253977
  11.8716169  67.4857235  54.6232224  10.9163499  67.4327803  54.5934439
  12.0890737  68.2173204  54.0455484  31.1676813  51.9417064   1.6164811
  30.2405192  51.7647903   1.4574082  31.5589930  51.9718425   0.7434400
  36.3004494  76.7880201  31.7388368  36.1495471  75.9716415  32.2152710
  36.6518283  77.3878860  32.3968101   7.7221078  78.6323977  17.7388084
   7.7612376  79.5127201  17.3650074   6.9620776  78.6526775  18.3203363
  17.5047779  75.0809574  51.7512131  17.8164065  74.4270372  51.1255074
  16.8976998  74.6022320  52.3155785  45.4616404  70.5137444  27.1848035
  45.1523256  70.4619074  26.2804413  44.9124956  71.1863852  27.5875735
  53.8639069  65.4090023  36.9846749  53.3238316  65.4637051  36.1962843
  53.2439709  65.2100658  37.6863432  47.7993870  77.7913570  36.4946127
  48.6369896  77.6196003  36.9249082  47.9590893  78.5704422  35.9619212
  20.4108214  76.1341143  34.4330430  20.1239276  76.7331028  35.1223445
  20.4402232  75.2767706  34.8576975  57.8852177  68.4555006  39.6380711
  58.5881901  67.8122520  39.5470047  57.2758055  68.2461262  38.9302468
  59.1507244  75.2699041  69.2889977  59.3753099  75.4234552  68.3712769
  59.8650980  75.6743097  69.7812986  59.6812487  72.6700592  29.4111037
  59.9947453  72.0608187  30.0795150  59.2351627  73.3582926  29.9046397
  43.4166908  75.7728148  44.3020773  43.2558155  76.4092112  44.9987507
  44.3705082  75.7175779  44.2437077  52.1445942  64.4473839  38.8666773
  51.3316870  64.7926569  39.2357230  51.8638611  63.7309361  38.2973623
  84.3554115  53.3816338  48.6031342  83.5224724  52.9371977  48.7609673
  84.1735744  53.9813232  47.8795719  67.2895885   4.2842329  51.2632084
  67.4229455   4.6967543  52.1165991  66.3470054   4.3499793  51.1100769
  85.5098105  19.6044005  55.9333563  85.1188898  19.1533411  55.1850510
  84.7733832  20.0414980  56.3609743  50.5478191  58.1211042  40.4217529
  50.1731968  58.3887863  41.2609434  51.4590454  57.9082489  40.6232357
  19.5298267  15.3071726  45.6705332  19.2451454  15.7880629  44.8933983
  19.8797632  14.4845713  45.3283310   4.3743015   5.3778399  50.9202862
   5.0783563   5.4404772  51.5657377   3.5754324   5.3094710  51.4431238
  78.1563950  11.7591990  12.0400500  79.0512276  11.9179858  11.7395604
  78.0206395  10.8215941  11.9033015  82.0382882  -0.0251638  50.8536577
  82.6017285  -0.5675184  50.3017378  82.6039601   0.6907309  51.1430454
  42.5680161  72.7289724  64.5448875  42.2416306  73.5939693  64.7928381
  43.3608770  72.6130104  65.0684834  35.5835533  75.9755182  67.2315264
  35.2629876  76.5006018  66.4982080  35.7344437  75.1077271  66.8568277
  78.6640931  11.4993227  19.7255147  78.2364941  10.6441916  19.7719061
  77.9959917  12.0819033  19.3643141  24.0080715  54.9039333   1.3918622
  23.1921841  55.4007404   1.3306459  24.2357422  54.9308746   2.3212035
  72.3666191  21.2356223  61.5717745  71.5941143  20.7606638  61.8781757
  72.0970869  22.1540869  61.5677214  70.2345419  18.1064356  22.8529310
  71.0339976  18.3164824  22.3702526  69.8539257  17.3686541  22.3764348
  70.7603073  77.1703768  15.6725490  71.1912918  76.5702724  16.2811196
  71.4679956  77.4974871  15.1172042  78.7102556  60.8392096  60.6513309
  77.9670334  60.4365444  60.2022076  78.3460617  61.6239834  61.0608768
  17.6404262  12.7653635  28.3454227  17.1318985  13.0147971  27.5737906
  17.5609375  13.5137785  28.9368463  24.5942808  12.6225317   4.5361686
  24.1190840  12.5347270   5.3624344  24.3466497  13.4870089   4.2081606
   7.4472833  55.0539244  63.9314651   7.7146173  54.7841681  64.8100948
   6.9408441  54.3135870  63.5973215  23.3169485  24.8486365  37.3866940
  22.8574396  24.9012030  38.2247376  23.7259413  25.7078875  37.2834873
  12.4566007  72.9215956  49.0047836  13.1629968  72.2769070  48.9645624
  12.7711511  73.6548567  48.4759903  80.1995182  51.3607264  47.6006603
  80.0461769  52.1674013  47.1087360  79.4728184  51.3173819  48.2221603
  11.8785692   4.4711913  48.4622717  12.3802877   5.0025500  47.8440714
  12.0482374   4.8716010  49.3149853  86.3728238  42.7952708  62.9359150
  85.5911780  42.3616541  63.2783222  86.6088391  42.2861804  62.1604443
  22.1544480  70.4707623  45.7528448  21.2577558  70.2816725  46.0292864
  22.0700860  71.2186909  45.1614761  70.9502221   2.1781863  23.8346934
  71.8046236   2.1790827  24.2662382  71.1174536   1.7961348  22.9731250
  82.2335625  19.9327506  28.5480428  83.0402041  20.2189196  28.1194758
  82.3292733  18.9838351  28.6294937  69.8367691  69.7089481  62.3757982
  70.0011158  70.0571871  61.4994669  70.2629471  70.3316116  62.9647732
  18.0917002   3.2002486  48.8792896  17.8207994   3.6067236  49.7024679
  19.0371013   3.0814398  48.9705706  42.9907131  62.1119452  67.9841328
  43.4382868  62.1278095  68.8300991  43.5472727  62.6368284  67.4088335
  54.1943860   7.7833498  62.4404955  53.5730005   7.0574988  62.4975252
  53.9392567   8.3733309  63.1497574   5.9852243   2.7166213  48.6112785
   6.0882831   3.6261881  48.3314657   6.8368078   2.4814070  48.9796686
   3.9873529  38.1620539  44.7708082   4.1790653  38.6586989  45.5663109
   3.5972143  37.3466624  45.0856972   0.9970499  25.8905066  61.6374922
   0.9479690  25.0563754  61.1705351   1.4245678  26.4851988  61.0212135
   8.6230779  66.1365604  69.8565912   9.0130926  66.4972353  70.6528473
   8.1525541  66.8727732  69.4656563  30.5512714  61.9285631  62.8072882
  31.1889553  62.6280403  62.6647425  29.8195243  62.1505737  62.2315359
   2.5770116  78.8578606  21.1733651   2.5996042  78.1271744  21.7912793
   3.2162595  79.4819784  21.5169907  21.9622827   8.2987822  51.5162516
  22.6792360   7.8271998  51.9403076  22.2626615   8.4333552  50.6174231
  74.3143702  20.4947031  31.4501905  73.7542820  21.2694109  31.4014935
  73.8570452  19.9058760  32.0504904  54.6226883  76.7315149  38.9940023
  54.3665028  76.0162687  38.4117436  55.5269194  76.9277382  38.7488627
  14.3157507  45.4632987  64.7756672  14.3829370  44.7430361  65.4025221
  14.6154285  46.2319697  65.2610302  68.0977106  10.6449164   4.2267635
  67.1544123  10.4833830   4.2446670  68.4894610   9.8018111   4.4546482
   8.4635712  11.4094485  26.4865661   7.5292326  11.2015570  26.4819551
   8.5768343  12.0193518  25.7575798  76.0441780  18.1092394  68.2488680
  76.7748261  18.6900843  68.4610081  75.3783417  18.6878336  67.8772163
  10.4850031  15.1314486  48.2039642  10.4999758  14.1767539  48.1364012
  11.0911203  15.4291094  47.5255442  44.1027451  65.8114624  43.0410671
  43.1464195  65.7843924  43.0102777  44.3758106  65.6634998  42.1356535
   6.8225790  29.5080698  39.8820758   7.5174452  28.8615073  40.0059748
   6.8422771  29.7043360  38.9454222  55.9114671   2.5451029  54.4921494
  55.5552173   1.9686926  53.8160801  55.9071946   3.4146918  54.0921164
  34.3953109  71.7827368  63.7785959  33.7405586  72.2075891  64.3326998
  35.1160002  72.4111509  63.7346172  14.8642565  24.4714201  23.2209277
  14.1462112  24.2872466  23.8264990  15.6104256  24.6686877  23.7870979
   6.2180401   1.5472067  39.0667963   6.9654108   2.0103873  39.4451284
   6.4021564   1.5221346  38.1278062  20.3212334  55.2992790   7.8625806
  20.1658322  54.8692386   8.7035020  19.4930912  55.7341068   7.6592811
  43.0181265  29.7225162  62.5916414  43.4988594  28.9321204  62.3458628
  42.4876499  29.9292060  61.8221579  64.0228463  10.1711977  43.6543179
  64.5334435  10.9209670  43.9598608  64.3699193   9.9845446  42.7820015
  41.4510418  21.4867561   0.4795392  41.6361262  21.9591110  -0.3321616
  41.7727257  20.5996244   0.3190835  28.9254475  68.2817459  64.3452978
  28.6305118  69.0924835  63.9306355  29.0341783  68.5106277  65.2683496
  30.3876711  14.7308100  49.0522051  30.8866144  13.9546336  49.3068600
  29.5786501  14.6728838  49.5604992  84.8895932   4.6045912  48.8316250
  84.1018868   4.8537386  49.3150282  85.3274632   5.4346121  48.6430740
  26.0822272   0.9267912  55.9055559  26.7756343   1.3812456  55.4271321
  25.6067300   1.6237554  56.3576357  34.8589445   6.0069407  33.0997539
  35.3541399   6.0400713  33.9182353  35.5231882   6.0825671  32.4147058
  55.0900602  68.1856966  30.6187963  54.9965858  67.8290987  31.5021586
  54.2430162  68.5910797  30.4332781  63.7264776  76.4072275  59.9183750
  64.5930529  76.0052204  59.8578405  63.9026642  77.3287630  60.1080179
  78.8563967  25.1322211  10.4136372  78.5292292  25.7225264  11.0924053
  79.7038365  25.5006255  10.1639450  15.9642721   5.5607165  34.8314643
  15.9266687   5.9190691  33.9446712  16.7721582   5.0476206  34.8483920
   4.4231344  13.3750189  61.5320253   4.0490652  12.5770796  61.9056368
   5.3690697  13.2630671  61.6263962  75.2394057  17.9183520  32.1854734
  75.4809571  18.1888140  31.2996221  75.8266068  18.4144248  32.7558565
  76.1470461  24.9335230   5.5446434  75.3014613  24.5032347   5.6714100
  76.2596226  24.9652136   4.5946148  84.8753357   1.6376246  32.1111250
  84.2135001   2.0411051  32.6727366  84.4520283   1.5658606  31.2556171
  46.5700461  57.5782745   3.7367614  46.0664059  56.9262283   4.2240222
  46.1241556  57.6432006   2.8922542  54.9647951  64.6748352  45.5919170
  54.9273252  64.9396038  44.6728277  54.0483809  64.6191311  45.8626747
  55.4045081  24.5825995  17.4227881  54.9333048  23.8315905  17.7835882
  56.1872650  24.2043246  17.0222497  22.3506761  48.5286273   1.7071694
  22.4552656  47.5925196   1.5369257  21.4505459  48.6159361   2.0208055
  33.7983967  29.7707479  11.3492902  34.6928431  30.0545900  11.1605485
  33.8752485  29.2543619  12.1515782  82.8948927  18.8748682  50.6724644
  82.2532750  19.5306433  50.3994751  83.1576348  19.1482104  51.5513754
  26.6949964   5.5983103  37.9435921  26.5036989   5.1206816  37.1364307
  26.4143301   6.4954890  37.7632499  66.1791849  75.9751129  57.9033136
  66.9882774  76.3437986  57.5488043  66.4638901  75.2120495  58.4062147
   3.4321810  19.6783103  52.3107719   2.9611421  19.2636717  53.0335665
   3.8240696  20.4610575  52.6980066  70.6352854  13.8433779  55.2234840
  70.5457259  12.8946818  55.1329851  69.9223805  14.0963877  55.8099794
  50.1694991   1.1737352   0.8748801  50.5079962   0.5231481   0.2597507
  49.6415545   1.7619425   0.3349479  36.3150336  55.3460471  27.4502023
  36.8436886  54.5490806  27.4901708  35.8975340  55.3998821  28.3098729
  71.7462302  19.8455752  57.6700211  72.5082922  19.9570311  58.2384157
  71.7948199  20.5795992  57.0575857  84.5399046  11.1274565  39.2808151
  84.2711211  11.8993128  39.7790337  85.2080155  11.4526022  38.6773682
   8.7635113  47.9549091  25.1498159   8.5816551  48.1413905  26.0708936
   8.8219048  47.0005195  25.1056703  65.1239920  74.9882364  17.7540231
  65.5934477  74.3173885  17.2582376  65.5291796  75.8125687  17.4847054
  77.2070980  15.2061690  26.1788678  77.2836876  14.2530859  26.2236905
  77.9695559  15.4841174  25.6712914  64.9639702  47.6799631  44.2657900
  65.6180716  48.3771849  44.2182589  65.4139948  46.9589615  44.7060919
  70.8323336  40.2125491  22.6447558  71.5526581  39.8726023  23.1756067
  70.3480864  39.4335402  22.3711109  17.5394369   6.7366446   3.6416945
  16.8926311   7.2769488   3.1878781  17.8490282   6.1232127   2.9752952
  15.4923321   7.0510710  32.2278023  16.1330105   6.7099799  31.6037703
  14.9845386   7.6883257  31.7255235  57.7393627  76.3103676  52.1785402
  56.9808006  75.9651136  51.7077827  57.7636719  77.2384977  51.9456911
   5.6631637  15.3191508  20.5928826   5.1492954  14.6660079  21.0678267
   6.2989593  15.6363429  21.2342763  55.6758642  65.8801842  18.1773412
  54.7597265  65.8951330  17.9003823  55.6571960  65.4765320  19.0450692
  50.6692886  77.1922350  56.2966633  50.8442974  77.2212601  55.3560495
  51.3125467  76.5726280  56.6409636  72.6964045  60.1872873  51.2867880
  73.4329653  59.7135162  51.6731215  72.8975058  61.1102057  51.4417458
  81.1849165  17.2055853  70.5351639  80.6264496  16.4398612  70.6693649
  80.6463576  17.9464949  70.8130884  18.8431956  62.2515838   4.2660173
  18.0827357  62.0177905   3.7337859  19.3120362  62.9008262   3.7417014
  73.9454985  37.6415194  60.1847696  73.6438132  36.7341269  60.2279520
  73.6215830  38.0403079  60.9924078  60.9555984  23.2453001  33.7884164
  61.6455460  22.6267279  33.5484791  60.5640579  22.8727664  34.5784473
  21.2622906  33.3242194   3.2917102  21.4335514  32.8631656   4.1128858
  21.3732697  32.6567714   2.6146348  68.4373880  50.6078948   0.9392630
  67.8723312  49.8362864   0.8997732  68.5343624  50.8806933   0.0268985
  27.9742457  25.1392095  29.6991380  27.9210497  24.8673885  30.6153806
  28.5849405  25.8762805  29.7030385  35.6368542  71.0746527  29.5011568
  35.3265619  70.9363794  28.6062646  36.3894987  71.6583776  29.4061828
  44.3520594  68.2393742  19.3024623  45.2338791  68.1529188  19.6646035
  44.4359303  67.9461384  18.3951533  68.3105373  68.4863901  54.2371798
  68.3067560  68.5594082  55.1915836  67.3883724  68.5495710  53.9884806
  35.5380322  41.9595401   9.6194585  35.7897164  41.3636367   8.9139255
  35.9967209  42.7754085   9.4189485  44.5967127  42.8745429   1.3585361
  44.3746926  42.5049846   2.2131522  43.9369847  43.5524146   1.2120088
  74.6583033  18.9031256  51.2922859  74.6580315  18.1967200  50.6463575
  74.1946555  18.5385169  52.0461607  70.7125903   2.8138865  40.2769279
  71.2310839   2.3478735  40.9328461  70.9872818   3.7271346  40.3590965
  77.8157568  44.2328394  61.7675543  77.3886681  44.9813689  62.1841240
  77.0932484  43.6863841  61.4583635  10.0998283   1.3283480  20.9548497
   9.4171739   0.6656493  20.8497334  10.8918978   0.9123553  20.6145477
  49.4447184  76.9682550  28.5224676  49.3671083  76.4713526  29.3368959
  48.5621881  77.3014545  28.3601594  42.4074507  78.8049793  39.5773554
  41.6138172  78.2807064  39.4700480  43.0986500  78.1628561  39.7390676
  83.0340672  74.1644430  47.4607563  83.5412502  74.5668602  48.1657743
  83.5822010  74.2669153  46.6827583  66.9845415  33.6085928  46.4372969
  66.1558724  34.0064658  46.1703920  67.3926115  33.3319033  45.6168365
  45.5294895  48.2262707  20.4783058  45.3639364  47.6205158  21.2007189
  44.7516632  48.1571436  19.9247360  62.5618410  54.1489649  36.8986154
  62.9875946  54.7692823  37.4903679  63.2459593  53.5149431  36.6836071
  20.6557394   0.4266489  37.0773077  19.8110891   0.1988543  36.6888404
  20.4709125   1.1933459  37.6197600  60.0753832  25.0848235  56.4221764
  59.8941923  24.4031371  55.7751131  60.0595403  24.6273840  57.2628450
  65.7063007  66.5153551  53.0344296  64.9809456  66.2091303  52.4900770
  65.3113461  66.6762161  53.8913822  59.3486762  23.4396685  51.0829020
  59.4032622  22.8461874  50.3338766  60.1733470  23.3105505  51.5513849
  64.7626209  80.6633377  42.2574949  65.3715563  81.4014149  42.2834253
  65.0537825  80.0876617  42.9646444  60.4626036  57.2689247  65.9167910
  60.1845455  57.2377443  66.8321848  59.7648478  57.7489281  65.4707384
   3.3312297  63.6786719  68.2678021   3.1173443  64.6114417  68.2471420
   3.5598182  63.4652682  67.3631273  74.2401791  12.7854479  25.7751012
  74.2827177  12.9635848  26.7146182  75.0445938  12.3022402  25.5862784
  77.5993586  81.6349792  44.4319677  77.5370407  82.5016975  44.8334026
  77.4973917  81.0248184  45.1624012  58.9404678  77.1713209  57.1418238
  58.7857771  77.7911472  56.4290047  59.6031523  76.5719843  56.7984915
  54.5358324  66.9339371  33.0115390  53.5938454  66.9355297  32.8415751
  54.7988176  66.0210657  32.8943443  30.8181406  11.1065329  20.2248907
  29.8991133  11.0436953  20.4850411  31.2159181  10.3005637  20.5541801
  59.5124102  66.4420891  50.2951479  60.0141954  66.8048239  49.5651722
  59.7139120  65.5064201  50.2827835  52.5255180   3.2187975  63.0314732
  51.8042684   3.7299288  63.3985853  52.7462125   3.6677969  62.2154284
  10.7550503   7.6571311  50.6989908   9.8736645   7.6688231  51.0721684
  10.6543899   8.0554045  49.8344231  64.3491268  74.3152952  53.9611101
  64.4978142  73.8394594  54.7782421  63.3964300  74.3657351  53.8832712
  44.2826201  37.0054071   3.3819039  45.0781895  37.5309818   3.4660180
  44.5938612  36.1411016   3.1129487  27.0075321  52.7268287  66.9283695
  26.5519142  52.2186443  67.5994853  27.1773290  52.0986530  66.2263702
  73.1838274  64.4299650  55.9034920  72.3310184  63.9959764  55.9280205
  73.3923912  64.4957209  54.9716043   4.9000526  27.7613772  61.8725204
   4.6173168  28.2654704  61.1095142   4.4145990  28.1420744  62.6043940
  61.6379452  81.5968800  33.3003688  60.9133196  80.9930801  33.4634113
  61.9543457  81.8323708  34.1725326  11.8244863  34.3242301  62.0856714
  11.1212374  33.7387312  62.3664999  12.4348188  34.3363417  62.8229475
  60.9669280   3.3880747  55.4600954  60.1665688   3.6691893  55.9035254
  60.8766771   2.4383200  55.3822947  73.3561802  60.6632376  39.7053099
  72.9382372  59.8101950  39.5875144  72.6771355  61.2967253  39.4733119
  71.9483995  48.2386494  43.1970024  71.6281033  47.9174280  42.3541164
  72.7782011  48.6684847  42.9898643   6.3010884  52.4589698   2.6594003
   5.3801991  52.6814620   2.5226863   6.7748238  53.0024402   2.0297607
  84.5400191   9.1638125  41.7851925  84.8441744   9.9838389  41.3962412
  84.4918871   9.3471182  42.7234411  19.0406024  68.5409498  40.7620955
  19.3034959  67.9435205  41.4622355  19.5919824  68.2963324  40.0188780
  28.5473156  73.1230545  23.6927891  28.9904094  73.6964607  23.0674028
  27.6837921  73.5189104  23.8105130  81.5209866  71.8370628  60.0352526
  80.6282997  71.8185377  60.3802204  81.9543362  72.5329256  60.5294275
  24.8707701   4.8552264  46.2301779  24.6072031   3.9934481  45.9075260
  24.0647245   5.3714026  46.2204790  20.6623674  17.7896536  64.3658209
  19.9304367  17.9162920  63.7621069  20.7433725  18.6267413  64.8229408
  65.7911682  79.4667768  25.6697035  66.0593033  79.2849541  24.7689939
  65.8856344  80.4149246  25.7609582  63.6148691  74.5838451  20.3771639
  62.9712296  75.2769709  20.5239391  64.1160440  74.8794270  19.6171081
  27.1135846  12.8195895  35.9283638  26.3998983  12.2550238  36.2252522
  27.8827430  12.5021780  36.4015174   5.0281502  30.1942194  47.4686813
   5.1037765  30.8601035  46.7852211   5.4184700  29.4098605  47.0831251
  20.7419182   4.3311060  13.4722340  19.8573757   4.6530856  13.2986081
  21.3145901   5.0538386  13.2154608  85.9461928   1.5138758  35.6495619
  85.1812649   1.9259490  35.2479267  85.7326508   0.5810202  35.6699800
  48.7596553  72.1637188  21.6944575  49.6420824  72.4551641  21.9238353
  48.8573330  71.7601036  20.8320284  57.6597932  81.8084658  30.7319689
  57.2679966  81.0518556  31.1681652  57.0921726  82.5419266  30.9687662
  35.2979803  17.2869909  33.1275630  34.4427729  16.8575168  33.1074929
  35.8417821  16.7655301  32.5371480  53.8214588   7.2458369  26.4898562
  53.5141230   7.1023595  27.3849487  54.7756147   7.2059846  26.5549517
  72.9565334  27.1712494  60.8279943  72.1248793  27.6416302  60.7703066
  73.5359799  27.7666426  61.3033676   9.2984319  27.2725153   4.7369057
   9.2769021  27.5198507   5.6613487   8.5507476  27.7277780   4.3496889
  30.0631547  15.9809566  26.9918823  30.3567314  15.0703669  26.9624090
  29.4788861  16.0687339  26.2387824  78.3407115  57.7668034  33.5962534
  78.3832597  58.2290637  32.7591538  77.4781608  57.9871260  33.9479542
  10.9946287  35.9264040  34.9439645  10.6415415  36.3391852  34.1558194
  10.2402329  35.8378553  35.5264425   3.5264802  62.9513144  22.9105306
   2.6435375  63.3179235  22.9578876   3.3967900  62.0528208  22.6070166
  15.9051728  44.4235897   9.1244435  16.0135305  45.3724575   9.1887683
  16.6632628  44.1296434   8.6193413   9.0204901  25.8245778  64.9998426
   9.6737033  25.1287389  65.0730085   8.2201952  25.3743577  64.7295380
  80.9169101  74.9352341  52.7220106  80.0309610  75.0787257  52.3892450
  81.4412450  74.7618042  51.9402027  77.8690838  55.5017601  23.7638998
  77.7003776  54.5747434  23.5953569  77.6801073  55.9348117  22.9314423
  40.9735750  80.6496534  11.7073476  41.8064820  80.4440268  11.2828279
  40.3707658  79.9770010  11.3905025  78.8420104  63.4991907  12.3263788
  78.6150788  63.7242435  13.2286453  78.8597249  62.5422179  12.3154378
  85.3878187  43.3758365   4.9414834  85.1585006  44.0193783   5.6119311
  86.3024139  43.5644542   4.7313088   0.0448680  66.6710114   3.6076277
   0.3866291  67.5612139   3.5241455   0.4676270  66.3248741   4.3935633
  33.7739658   9.1139734  36.1821413  34.5659971   9.1452312  35.6455398
  33.9845276   8.4984791  36.8843269  72.7120877  17.2663096   8.4736236
  73.5290432  16.9995717   8.8951285  72.8991366  18.1345157   8.1166013
  78.1801652  77.5561230  36.3621688  78.9630269  77.6260339  35.8158422
  78.4671449  77.8415911  37.2295690  47.5337683  72.8595312  63.7189255
  47.2985672  73.2486828  64.5612286  47.5081753  71.9156034  63.8756989
  46.0428882  45.2737636   8.6019786  46.0071910  44.8667452   9.4675954
  45.2630759  45.8276472   8.5654100  86.3851699  11.1032879  47.9357290
  86.0359790  10.2334297  47.7417088  87.0089297  10.9577906  48.6470556
   2.1876025  80.3058187  24.9534297   2.2453045  79.3950773  25.2423120
   1.3474416  80.3598491  24.4979739   7.5561649   0.8018148  32.4035454
   8.1420070   0.8290538  31.6470528   6.7759264   1.2780374  32.1195173
  40.8362579  22.3539734  38.5438824  41.2192869  21.5828180  38.1257439
  39.9146390  22.3332453  38.2861567  68.2336615  44.3434878  57.3174016
  67.8320383  44.6438025  58.1327192  68.5389494  43.4575932  57.5129048
   0.8177987   2.2115463  33.4053373   0.3062332   1.7007177  32.7779722
   0.3921771   2.0520128  34.2477298   8.3564776  19.5495701  35.1348495
   7.4119544  19.6645713  35.0305343   8.5122699  18.6321437  34.9105954
  32.1091247  21.0445523   9.1520089  32.7434659  20.3298616   9.0966874
  32.4826550  21.6470885   9.7951710   6.0252428  79.3815508  28.8506532
   6.0361695  78.9953296  27.9748964   5.3707409  80.0779670  28.7971425
  70.7481610   7.1817344  18.3051372  70.6292080   6.3030767  18.6657512
  70.7791996   7.0495760  17.3576128  35.2777290  18.7460721  45.8455276
  36.0424781  18.5104120  45.3203058  34.5433569  18.3191895  45.4042816
  46.8768024  20.2941728  24.8229599  46.4554977  21.1531186  24.7922444
  47.7935553  20.4693270  24.6105504  86.9047767   6.9863665  41.5887499
  86.5400102   7.3896885  42.3764753  86.8803054   7.6810539  40.9306908
  79.2899132  24.8636679   0.9655030  80.0995589  24.5676450   1.3815244
  79.4716740  25.7659665   0.7027228  56.0335563  73.9897020  64.8446499
  56.1137651  73.0907924  64.5256482  55.4115247  74.4019730  64.2451988
  36.7016220  10.8371735  39.8958111  35.8011055  10.5126953  39.8997569
  37.2397494  10.0493348  39.8186207  79.9494385  74.9824142  22.8521180
  80.0323509  75.8934551  23.1338310  79.3966221  74.5749038  23.5188723
  39.9699473  53.7216043  18.4321165  39.1242361  54.1437674  18.5830724
  39.8494983  53.2271385  17.6214218  46.6842066  63.5217034  30.6077647
  47.4325298  63.9416324  31.0319138  46.6872584  62.6269197  30.9477425
  10.1792634  28.3617520  10.6339991   9.3849397  28.7832093  10.3058922
  10.1888943  28.5642171  11.5694928  65.0386189  30.3012915  70.1805097
  65.7554268  29.8531444  70.6294889  64.3633388  29.6305974  70.0785359
  14.1070556  61.2036811  13.8773131  13.2189607  61.1378371  13.5263431
  13.9982557  61.6348588  14.7249460  11.2369871  79.1293784  22.3719358
  11.5805435  79.9453953  22.0081806  11.3450098  78.4893464  21.6684270
   6.5407347  79.3025165  56.2969732   5.7260251  79.7895827  56.4204550
   6.6640448  78.8294437  57.1199131   0.3161056  23.0322647  22.3629904
  -0.5109429  23.5137534  22.3827648   0.3198227  22.5290608  23.1772399
   6.2913269   1.1286666  14.6540010   6.1072683   2.0472005  14.4574046
   6.9243944   0.8631568  13.9869463   6.0125303  59.5335042  22.4709511
   5.1175832  59.8203217  22.2891974   6.5311527  59.8978817  21.7536688
  14.0434921   8.0745691  17.4492621  13.1613719   8.2762152  17.7614093
  14.2742908   8.8152319  16.8885624  41.0808372   2.1870895  34.4803882
  40.4142046   1.5487728  34.7341323  41.6804695   1.6965468  33.9182138
  86.1448168  74.3651324  31.4810300  85.8374070  73.8810687  30.7146025
  86.0890435  75.2848332  31.2216640  11.4898419  33.6379337  51.4695120
  12.0351684  33.7722373  52.2446346  11.9692016  34.0687966  50.7618380
  71.2007164  71.5969013  19.0298641  70.5057453  71.6033851  19.6880472
  71.9643556  71.9525986  19.4843578  48.3952175   6.6265090  70.6597680
  48.8279938   5.7805855  70.5442360  47.6622163   6.6065509  70.0445096
  43.2574724  80.5578170   8.1135410  43.8783776  81.1505329   8.5370940
  42.9124796  80.0220256   8.8277817  49.2242413  48.9326750  17.6953733
  48.5981583  48.4094535  18.1958628  48.8964092  48.9033495  16.7965424
  70.1480018  65.6260466  27.6192856  70.4525422  66.1530792  28.3580184
  70.2922618  64.7209059  27.8952241  52.7685547   5.7447666   7.9349989
  51.9384241   5.4691422   8.3237779  53.2119560   6.2262619   8.6334187
  17.4460912   3.9644760  45.3652430  18.0365205   4.0749663  44.6199799
  16.9985688   3.1355503  45.1954269  41.7783499  10.1207519  49.8797512
  42.6221800  10.3286886  50.2809286  41.7313290   9.1649801  49.9025774
  36.0112333  21.1535978  23.1832910  35.9182596  20.7175183  24.0302992
  36.9530845  21.2961984  23.0894208  20.2509999  10.8162582  10.3338850
  21.0059619  10.4499948  10.7944429  19.8500013  10.0653255   9.8962414
  30.0561072  67.9721097  25.9226544  30.0683008  68.2532314  25.0077470
  29.5930225  68.6724929  26.3822682  20.2318215   0.3360275  63.3429766
  20.7903504   0.8107667  62.7274275  19.9197590  -0.4215124  62.8480196
   5.6020927  78.8917010  63.2380819   5.8891606  79.3979079  63.9980698
   6.3201499  78.2809254  63.0720091  83.7548279  78.9887651  17.4528193
  83.1959819  78.4052890  16.9395173  84.6464299  78.7540331  17.1955693
  33.3825469   2.1090370  21.8093944  33.7896776   1.7834611  22.6121879
  34.1113615   2.2184917  21.1985898  60.3258490  15.3847992  64.3640089
  59.8945522  14.5336032  64.2886400  59.6065163  16.0124862  64.4332933
  33.3961654  40.4223490  26.2665296  34.0075231  40.3262043  26.9967556
  33.1872225  39.5243549  26.0092688  23.5187292   1.0821342  11.2768555
  22.9350948   0.3244153  11.2385869  23.6486101   1.3308793  10.3617120
  36.3504100   3.7532964  30.2221727  36.3923264   2.8023124  30.3226900
  36.2621117   3.8907933  29.2790246  33.4019446  14.8660064  23.7354636
  33.6053395  14.1182137  23.1736207  33.6786795  14.5911038  24.6095800
  25.5765771  60.2808606  31.6205096  26.4062332  60.0462972  31.2047172
  24.9116277  59.8323428  31.0981035   7.0943951  81.0041917  22.4760246
   6.8476057  81.9121047  22.6521492   6.5397548  80.4875239  23.0605412
  52.9420420  80.6962463  37.0401955  52.8690504  81.2574133  37.8122044
  52.2456097  80.9988638  36.4574122  23.2133198  32.4449039  29.7156286
  22.7540398  32.0391083  28.9803576  22.9200530  31.9525743  30.4823351
  11.0470771  46.3755046  38.5259557  10.3985285  45.7556092  38.1922698
  11.4878225  45.9037959  39.2326856  49.4728040  68.8715326  20.8189821
  49.7824859  69.3609463  21.5810871  50.0959444  69.0885650  20.1255655
  13.2183421   1.3470317  21.8825531  14.0653777   1.7849061  21.9663954
  12.5771761   2.0199448  22.1112990  61.3953756  54.6885307  67.0286791
  61.1013459  55.4285045  66.4974384  60.7333349  54.6086331  67.7153735
  14.3961191  77.9657110  21.2064075  14.9911594  77.2161048  21.1905098
  13.5214805  77.5770067  21.2185359  11.2607956  74.3009477  43.1795645
  10.8646917  74.9890118  43.7142611  11.1342239  73.4998362  43.6879253
  56.9929981   7.3463500  11.7370641  56.6723490   6.8829024  12.5107765
  57.7045155   7.8962725  12.0650268  14.4860768  30.7678461  29.8039794
  14.4886792  29.9363136  29.3298721  14.9410093  30.5772567  30.6243110
  27.3062444  16.6725934  42.5768423  27.6772118  16.0673094  43.2189035
  27.6408696  17.5311840  42.8358412  85.0756758  14.4734013  55.4820156
  84.8168489  15.2208936  54.9430370  86.0325127  14.4996643  55.4843092
  56.8549109  14.9822211  37.5616837  56.1669827  14.3187714  37.6147890
  57.6164150  14.5709062  37.9705429  41.4042997  12.9080212  41.0611963
  40.6141329  13.3361483  40.7316923  42.0777130  13.1172085  40.4139042
   8.2456177  32.8060293  39.7319126   8.3863777  33.7245059  39.5020843
   8.6328650  32.7149248  40.6025267  11.1901367  24.4291759  32.2272730
  11.5693700  24.0129638  31.4532042  10.4636991  24.9512935  31.8868089
  12.4595249   8.8418984  52.5839090  12.0172203   8.3156151  51.9178581
  13.3903217   8.6611754  52.4528027  75.7352614  81.6283261  37.1925950
  75.7620918  81.0865850  36.4039063  74.8768651  82.0508897  37.1638274
  40.7270145  20.3243351  28.4827256  41.6677237  20.1884747  28.3694220
  40.5293560  19.9334157  29.3338084  35.8093452  25.7837963  58.1859875
  35.7633495  26.7386818  58.1379414  36.5362692  25.6087875  58.7836361
  67.8856777  65.7011945  68.7768307  67.5171922  64.8527796  68.5305688
  67.1258878  66.2319882  69.0160118   0.5201959  45.3801500  39.3397212
   0.1832318  44.5728694  39.7282910  -0.2027989  45.7087099  38.8053417
  49.8638289  78.1457191  61.0969543  50.7763051  78.1887515  61.3828993
  49.7246104  77.2243296  60.8781099  49.6968388  25.9809589  56.7204094
  49.7264003  25.5983281  57.5973082  50.6122112  26.0139203  56.4424896
  21.0973954  23.0287647  30.3403497  21.9672561  22.8009462  30.0122142
  20.5191422  22.9132104  29.5863581  86.5126540  18.9131701  49.9879599
  86.6032529  19.2761862  50.8690071  85.7177177  19.3191040  49.6422338
  37.7532554  38.1499863  21.2047720  37.6217818  38.8875914  20.6090498
  37.4783635  38.4808064  22.0598912   2.1657392  10.6101274  26.8584728
   2.5497159  11.1129940  27.5767469   2.5249448   9.7291821  26.9640183
   1.5778494  55.1305663  14.6264660   1.3811326  54.9094426  15.5367613
   1.6024351  56.0873472  14.6123421  58.2117963  78.0501269  33.1364155
  58.6149644  77.2138416  32.9033613  57.8354094  78.3711769  32.3169708
  82.0148435   9.8552799  59.4372654  81.2123888   9.9821472  59.9434280
  82.1707353  10.7021356  59.0192127  47.0758152  32.9187965   8.4468836
  46.9789457  32.0315933   8.7928832  47.2374725  32.7948117   7.5116158
  11.9672632  29.5082378  46.0567427  12.3676741  29.7646713  46.8874931
  11.2698495  30.1492429  45.9190559  26.2894988   4.4070977  35.3721833
  25.8612108   5.0246364  34.7793531  26.9451046   3.9693302  34.8292542
  28.2532716  26.1265922  24.8084903  28.0389190  26.3183761  23.8955259
  27.4120760  26.1596107  25.2640438  44.3276142  64.5820533  24.1948199
  43.4204375  64.4853686  24.4845009  44.3978821  64.0082203  23.4319234
  11.8501890  12.2591543  31.7171001  11.6718030  12.6738417  32.5611639
  12.7979970  12.3363626  31.6078639  78.9229720  -0.0602145  45.2973080
  78.8626050   0.8803610  45.1302576  79.5038604  -0.3885643  44.6110201
  69.4608890  71.8779551  20.9424615  68.9657723  72.4601596  21.5187669
  69.5396315  71.0619735  21.4366317  84.9610583   7.1035844  22.6133442
  84.4158268   6.3556093  22.3694444  85.8081338   6.9259316  22.2045255
  32.1399021   1.5012117  49.3496513  33.0667329   1.7269525  49.2705536
  31.7544198   1.7769103  48.5180092  13.8163888  15.1974666  26.5406752
  13.5501397  14.8313057  27.3840427  14.6183085  15.6834400  26.7329931
  11.6021251  41.8808686  59.4912434  11.6184473  41.0848819  60.0226259
  10.6866979  41.9740712  59.2275381  70.4592656  78.2808196  25.2068090
  70.2217089  77.7009444  25.9303713  70.5422353  77.6992255  24.4511008
  35.1587486  13.0171120   9.7892886  35.5244255  12.4359930  10.4562306
  35.4146600  13.8955224  10.0706005  47.1069311  39.1031502  67.6761718
  46.4023660  39.7170287  67.8834699  47.9104852  39.5914538  67.8553165
  77.0524716  61.0849511  16.5785897  77.2555041  61.4422905  17.4430656
  76.4024305  61.6874038  16.2170267  42.8605413  18.9854181  43.3534384
  42.3568106  19.4648767  44.0111685  42.2160912  18.7417352  42.6889515
   6.5651822  38.4943735  37.1921086   6.1455655  38.0671321  37.9388452
   6.0751819  38.1824743  36.4312887  71.2205671  64.9292277  34.5636702
  70.4870307  64.3312596  34.4201732  71.2825417  65.0081634  35.5155945
  74.8553633  65.1599558  60.8501379  74.5049022  65.4429991  61.6947047
  75.7758068  65.4216750  60.8729224  15.0966835  67.5620126  51.8968964
  15.6985759  68.0793082  51.3617706  15.5090093  67.5321435  52.7602196
  24.6364260  19.9928939  28.3946776  25.5671501  19.7971225  28.2867002
  24.2149496  19.5741248  27.6441956  40.0773525   6.5367097  47.1890306
  40.3316116   5.6788188  46.8490219  40.6791067   6.6939199  47.9166365
  69.2525231  75.7967370  37.2069383  70.2011096  75.9204941  37.1737909
  68.9243459  76.2519937  36.4315200  55.4917064  65.3853964   4.3628839
  55.9224605  64.6658944   3.9013648  55.4589000  66.0955416   3.7219092
  46.1046134  67.6223643  59.2537109  46.7014765  68.1118376  58.6876695
  45.2503704  67.7055938  58.8299481  31.2406397   0.4733456  44.3006134
  31.6885233   1.3019414  44.4710922  31.9405103  -0.1305000  44.0520477
  14.2458928  36.6594005  33.5709119  14.2246878  35.8003473  33.1492352
  14.9870086  36.6115546  34.1748071  76.3148688  68.4424721  49.6856737
  76.8235337  68.0176913  50.3763628  76.9374382  68.5613965  48.9683867
  64.0183758  23.4330177   9.1873568  63.8766741  24.2025161   8.6359733
  64.1457414  23.7887239  10.0668347  44.1813707  29.3352771   9.6961457
  44.1860199  28.5056329  10.1735365  44.2759323  30.0030112  10.3754246
  68.1564891  61.0693490  64.0008354  67.7625345  61.6309010  64.6684361
  68.5578953  60.3548037  64.4953346  85.6052625  20.2036023   8.3944339
  86.1535064  20.8127093   7.8998137  85.4330596  19.4866049   7.7841127
  79.4084191  77.8312527  24.5880246  80.2682327  78.1022759  24.2663169
  79.0773987  78.5955062  25.0598025  14.7187364  30.4893303  45.7466698
  14.6475530  30.6748652  46.6830158  14.3861747  31.2790394  45.3200626
  53.4183954  47.3792954  67.7827169  52.6406716  47.8358544  68.1035499
  54.1186785  48.0292709  67.8407348  53.1526613  11.1651361  23.5669708
  52.6917791  12.0028579  23.6121726  53.7633562  11.1876929  24.3037009
   4.7492838   2.9357493  17.0115602   4.6573243   1.9839433  16.9686532
   5.6331605   3.0759120  17.3511899  13.6509502   1.2661150  44.9267578
  13.6037242   0.3149162  44.8307228  14.5627093   1.4381193  45.1620054
  36.6322470  22.1797562   3.9597133  36.3758659  22.3207307   3.0483264
  36.3787389  21.2750435   4.1426343  73.7020194  51.3364601  34.9731660
  73.7712264  52.2633553  35.2018690  74.6048831  51.0187674  34.9850702
  35.5216050  37.5009584  32.8721929  35.2743554  36.5786910  32.8049517
  34.7599936  37.9248834  33.2677531  22.3094964  25.9300399  40.0461292
  22.9903388  26.4431739  40.4813099  22.4975634  25.0244999  40.2928305
  10.7177150  19.8743701  44.1510487  11.4148629  20.3685641  44.5823145
  10.9516919  19.8902535  43.2230234  26.9600248  28.6146283  26.7967987
  27.7270269  28.7529874  26.2411022  26.5497398  27.8240585  26.4462280
   4.8780799  39.3715096  70.4513645   5.5909497  38.8283706  70.7875967
   4.2341068  39.3867016  71.1593914  34.8052287  24.0865016  35.1021886
  34.7257280  23.8953567  34.1676426  34.3263245  23.3785200  35.5330515
  34.2604804  35.1187754  18.4300232  33.9680767  35.9599042  18.7810683
  34.2139292  35.2265048  17.4800444   0.5652301  13.8777125   8.5236138
   0.1131973  14.3203843   7.8053248   1.2782170  14.4710958   8.7597877
  39.7233558  40.3217697  14.7618783  39.0982795  40.2973986  15.4863906
  39.7329545  41.2378597  14.4845355   5.2743053  70.9779274  40.7397985
   5.0655746  71.1475586  41.6584349   4.4887399  70.5581151  40.3892612
   5.4114103   8.8697368  57.8077126   4.8440382   9.5642722  58.1422901
   6.2730098   9.2798394  57.7322626  80.2569258  38.4183717  64.3894100
  79.8995941  37.7868629  63.7651157  80.5113136  39.1686058  63.8521338
  35.6202698  48.0353785  28.2352996  36.4550138  47.5694036  28.2833052
  35.5613089  48.5073376  29.0659666  66.5317774  19.0805030  22.4024129
  66.8454552  18.2196331  22.1253896  65.9090948  19.3386245  21.7228007
  28.3199549   5.7441807  48.4975815  28.8814187   6.5145493  48.5843134
  27.5795364   5.9208798  49.0779161  54.8591661  21.8134928  27.6070690
  55.2985525  21.1242485  28.1051779  55.0056171  22.6091719  28.1186175
  44.7339547  60.9025124   8.4276469  45.1920963  61.2848357   9.1760858
  44.5499361  60.0017516   8.6941035   6.8767833  70.2643072   8.8015836
   7.4683427  70.8898412   9.2199105   6.0081243  70.5028140   9.1252756
   3.0639362  78.7141497  66.8448801   3.3614873  79.3667205  66.2109659
   2.4291229  79.1805394  67.3886840  79.4436073  77.6044615  56.0435629
  80.1175617  77.1351486  56.5352535  79.8293471  77.7401771  55.1781034
  42.6226997  12.4530172  28.4103513  41.9409895  12.7797616  27.8232050
  42.2459841  11.6634524  28.7988162  16.5178871  14.6819508  20.7456660
  15.6128287  14.9819040  20.8301044  16.9436860  14.9756896  21.5510511
  85.3602318  13.0724442  61.2736797  84.9975290  13.3621633  60.4365730
  86.2690338  12.8464675  61.0755730  17.7767563  50.9788036  38.9280820
  18.5307944  51.2552214  39.4489002  17.9912937  50.0884199  38.6498427
  27.0528245  26.9790101  16.6353559  26.8341303  26.2361693  17.1980202
  26.3320947  27.5959873  16.7623127  46.0364342  28.0768180  50.9467268
  46.9693899  27.8654552  50.9128666  46.0087872  28.9980698  51.2051058
  74.4250237  30.8950233  36.9833875  74.3460655  30.2373075  36.2924385
  74.5153939  30.3862762  37.7891421  13.1032395   4.9428844   5.8421129
  13.1412745   5.7086116   5.2690101  14.0070486   4.6305811   5.8848578
  52.3205853  23.1742620  38.8124037  51.6677046  22.8566337  39.4361758
  52.5232553  22.4126458  38.2691741  11.0651707  73.8388162  52.6194191
  10.2521491  73.4106158  52.3513269  11.3872051  74.2613088  51.8231583
  20.8737802  72.1119021  17.8542888  20.2711105  71.3688122  17.8832734
  21.7315721  71.7184853  17.6941395  65.2334940  10.1871320  60.2190582
  64.7659516  10.8869907  60.6749479  66.1395281  10.2713224  60.5161230
  18.1475591  70.3859364  39.0057373  18.9413166  70.0922536  38.5585999
  18.3134985  70.2061342  39.9311376  16.9649482  24.7701383  24.9718976
  17.1303773  24.2251158  25.7411933  17.4380016  25.5833626  25.1483035
  26.6181803  46.2695026  17.1669161  26.1360431  46.3563442  17.9892504
  27.4793124  45.9427404  17.4275124  13.7458539  14.1469610  29.2139316
  13.1040311  13.4792376  28.9721870  14.3922210  13.6779583  29.7416425
  37.8436375  30.1523852  34.1502714  38.7777138  30.2451825  34.3376875
  37.4822450  29.7375560  34.9335599  27.6738977   4.9090254  20.7010102
  27.5793600   4.9396569  21.6530395  27.5117898   3.9934832  20.4735589
  57.9116255  74.9284773  54.7073030  58.6489871  75.1941298  55.2568102
  58.0780990  75.3487151  53.8635492  40.0144243   9.1651672  23.1656170
  40.7975292   9.6502483  23.4257698  39.9386501   9.3198442  22.2240424
  24.9681354   6.0071224  33.5144806  24.9629951   6.0815597  32.5601935
  24.1674590   5.5251306  33.7214398  47.5505877  22.1458364  22.2933316
  48.4619570  22.0314550  22.5626898  47.1715307  22.7123833  22.9653215
  28.4579420  40.1339149  26.2367344  28.2171273  40.4073286  27.1218824
  28.8734984  39.2797208  26.3546371  29.4496655  10.5480528  44.1165447
  29.0416837   9.7014958  43.9345455  29.2590308  11.0772479  43.3420515
  46.4250851  26.1397719  24.7980714  47.3744440  26.0179234  24.7879267
  46.2195301  26.4918518  23.9320350  73.6531329  41.7313242  29.6675611
  73.7834191  42.1180201  30.5334282  74.4197428  41.1732864  29.5366526
  62.2470578  62.1777057  54.8175001  61.9367095  62.5002336  55.6636047
  63.1170397  62.5643741  54.7182512   5.8413076   3.5701772  58.4976510
   5.7131862   3.4787723  59.4418232   6.4921760   4.2666122  58.4105758
  15.3786421  29.7464728  32.1921611  14.9487543  29.2657256  32.8994894
  15.9546459  30.3664374  32.6394820  84.9740504  69.1367005  52.5538826
  85.0252985  68.3115708  52.0714283  84.4823646  68.9207160  53.3462429
  71.3422584  78.8607167  42.4584103  71.3103568  78.9343070  41.5045786
  70.4356479  78.9859979  42.7387571  18.8296044  25.8013201  50.9279299
  18.3862710  25.0060606  50.6325483  19.7595572  25.5747652  50.9182835
  17.9447079  20.1561022  36.9134903  18.3912683  19.4859171  37.4308538
  17.3229885  19.6675086  36.3740730   7.3537308  51.7213440  37.6176691
   7.9544729  51.4869261  36.9102883   6.4861101  51.5032816  37.2772050
  17.6380205  79.6247532   8.3670318  16.9901371  79.7953915   9.0506709
  18.3484983  79.1692742   8.8186860  17.1171176  51.9620609  35.7733583
  17.0773923  52.1630096  36.7083859  17.0863855  52.8166151  35.3432083
  38.5104060  21.6235971  27.3286796  37.8065562  21.5161943  27.9684377
  39.1866446  21.0077477  27.6109219   1.2200546  72.3613792   9.4426632
   0.7625103  73.1746029   9.2292339   0.5315470  71.6966330   9.4599837
  39.2482424  29.4307613  29.0849233  39.6337390  29.3880868  29.9600244
  38.3091927  29.3164420  29.2310333   2.8842339  16.4969456  21.7231965
   3.6888322  16.6337991  21.2230730   2.7340510  15.5525184  21.6815591
  44.8141623  20.7126212  28.3925223  44.4615793  21.2762976  27.7039099
  44.8665333  21.2790847  29.1623330  71.4945816  71.7295439  63.3370916
  72.0661806  72.4430187  63.0534367  72.0123886  71.2506468  63.9842109
  31.8199968  31.7839861  17.2875273  30.9571147  31.7281294  16.8769836
  31.9586134  30.9185839  17.6723588   8.2902193  76.9064977  38.6988974
   7.9504466  77.4623304  37.9975867   9.1425228  77.2856977  38.9134121
  77.6669961  50.5588341  16.6883600  77.4896132  49.7644711  16.1846173
  77.6786255  50.2668190  17.5998569   5.4334545  75.6857716  31.3628268
   4.8042345  75.0135266  31.6243625   5.4425025  75.6462758  30.4064846
  38.3998203   5.1616186  25.2453279  39.1563749   4.7416276  25.6545520
  37.8611159   5.4536080  25.9807014  84.2311644  75.0590508  57.7133799
  84.2110085  74.1795908  57.3360538  84.6652245  74.9469333  58.5591078
  81.8035721  60.6317173   9.2306930  80.9319376  60.7969009   9.5901382
  81.9328713  59.6895420   9.3393987  79.9071668  66.0065062  63.7098776
  80.4895042  66.4949496  64.2917190  79.9264978  66.4946420  62.8867237
  43.6058903  35.3129482  34.0005875  42.6537991  35.3771424  34.0756035
  43.8891077  34.9576092  34.8430586   9.3153501  44.5545721   3.4512463
   9.1427308  45.2520037   4.0837198   8.4633815  44.3760252   3.0531225
  26.5710235  33.7542701   0.1621314  25.7185555  33.9337492   0.5587661
  26.7443800  34.5176435  -0.3887226  64.2534208  19.1495407   5.2188075
  64.1004944  19.0519798   6.1586624  63.6536026  18.5240471   4.8123491
  47.1579075  41.3034248   7.3993999  47.7207327  41.8610954   7.9364842
  46.9680405  40.5480623   7.9558253  42.8837299  56.5533686  12.1973121
  43.3331108  56.7476034  13.0198455  41.9582176  56.5025425  12.4362302
  80.5011785  12.6549506  40.3279448  80.9086942  12.9711342  39.5216012
  81.2325698  12.5286973  40.9323931  45.6283033  46.7635123   0.7202657
  45.2278090  47.5918636   0.4563172  45.2336812  46.1114386   0.1412089
  44.0868282  42.3566628  22.5734067  43.5968161  42.6947832  21.8238759
  43.4193850  42.1824074  23.2370210  41.3018179  28.1934142  18.7296915
  40.3612280  28.0773759  18.5953164  41.6330242  27.3083138  18.8817859
  70.0061417  35.8401308   2.5305160  69.2034912  36.3285691   2.7133115
  70.7061625  36.3885621   2.8846677  68.4825825  53.4362125  35.0413990
  69.3892014  53.3775520  35.3427863  68.4326434  52.8196526  34.3109274
  40.6775188  35.6179023  33.2389951  40.0278759  36.3165641  33.3169007
  41.2849855  35.9294224  32.5680470  80.7957679  41.9645262   9.2604333
  81.4322972  41.5579987   8.6723906  81.2947243  42.6352358   9.7267199
  74.9968898   0.9015676  52.9389000  74.1292274   0.7575193  53.3165836
  75.2374303   1.7840408  53.2210588  18.0866110  46.0926914  40.9885502
  17.6512682  45.3080416  41.3217688  19.0161848  45.8646297  40.9779739
   5.1773286  65.9906340  24.6541476   5.5302060  66.4199686  23.8748002
   4.2319614  66.1292028  24.5966053  57.5703168  59.2558276  46.8305111
  58.1392069  60.0250088  46.8614292  57.9001259  58.7435137  46.0922766
  22.5756359  59.5217609  25.5124307  23.4712243  59.2966557  25.2604771
  22.0977044  58.6938810  25.4631662  12.6867318   5.1427668  41.8098593
  12.5511098   6.0696781  42.0065165  12.8833377   5.1229030  40.8732796
  28.6329579   4.5070839  43.9915943  28.9904523   3.9588627  43.2931089
  27.9504514   5.0246173  43.5643101  16.7239273  66.0398960  27.2184682
  17.2481012  66.3305664  26.4721537  15.8266926  66.2829399  26.9901419
  72.6029562  40.2127981  53.5252953  73.3466947  40.6862307  53.1525421
  72.9588353  39.7809005  54.3018579  74.3359815   1.0171624  68.0506457
  74.0189158   1.1418649  68.9451566  74.5822059   1.8950483  67.7592356
  23.4456611  33.3131814  23.5742807  24.3391728  33.2648921  23.2343721
  23.3228779  32.4878168  24.0432501  16.2834072  31.6053271  34.3633342
  15.3599632  31.5096378  34.5964098  16.5101576  32.4924541  34.6423006
  34.9002361  22.5135803  25.7880068  34.4820380  22.9126024  25.0250363
  34.8920846  21.5746784  25.6019282  22.0812821  20.7723737  54.3561983
  21.6158938  21.5329361  54.7043276  22.7091479  21.1398649  53.7341309
  74.3043673  42.2045755  24.5619416  74.9731814  42.7782917  24.1880846
  73.5102665  42.4088812  24.0680838  30.7944703  24.9155545  33.0980587
  31.6765165  25.2354693  33.2874846  30.2232552  25.6585431  33.2927632
  29.8182011   8.3592701  60.1404285  30.6766486   8.7190616  59.9171638
  29.8164606   8.3197027  61.0968113   3.3118629  56.0260307  64.3970156
   2.7376747  56.2309467  63.6590767   4.1965723  56.0919820  64.0376139
  70.8963156  27.3673677  38.9630127  70.1544809  26.9764233  38.5014105
  71.1447191  28.1185508  38.4242678  28.5957861  62.3753262  25.4996824
  29.5134091  62.1298170  25.3816843  28.4474397  63.0654192  24.8531532
  54.6147585  59.8166323  31.2001061  54.3669033  58.8921976  31.2147808
  54.8509407  60.0156927  32.1061015  25.6631660  45.9608221  42.0982838
  25.8617878  45.0763226  41.7909813  25.6660986  45.8890581  43.0527878
  66.6056006  80.5252068  13.9481330  66.3017135  81.1541784  13.2937026
  67.3089563  80.9812982  14.4101965  18.6223054  16.4530134  62.7044535
  17.7993476  16.6582751  62.2607851  19.2694306  16.4090800  62.0005131
  86.6385160  17.5960827  36.5463018  86.3307037  16.8511045  36.0300732
  87.1950540  17.2065699  37.2206736  61.8210771  18.9269849  67.8905408
  60.8988961  19.0552255  68.1127308  61.8072458  18.3155318  67.1542211
  27.1374106  17.3057961  50.2403069  26.2531281  17.6449907  50.3789663
  27.3374581  16.8234766  51.0425425  31.6821432   8.7695891  21.3609791
  31.0156703   8.0895495  21.4589190  32.2723150   8.6351156  22.1024966
  30.8050942  28.5875607  27.5526810  31.7093897  28.6344481  27.8629756
  30.7892966  29.1460681  26.7754745  58.9647198  17.5452721   1.1811884
  59.7786474  17.9509318   1.4798427  58.5146713  17.2901785   1.9865555
   4.9099141  11.9879603   1.3253969   5.1557267  12.6026297   2.0167649
   4.2255700  12.4418473   0.8335728  26.3185763  23.0085135  10.0265121
  25.9893107  23.7240529   9.4826192  25.6509590  22.8951216  10.7030201
  21.9174433  33.2257676  16.2512374  21.6335440  32.9877377  15.3686416
  21.3188791  32.7543664  16.8306637  27.3649454  16.9571054  45.5983877
  26.9642544  16.0891080  45.5508566  26.6321588  17.5504839  45.7631779
  22.2442198   1.4176738  62.0491695  22.9896641   1.3318691  61.4548826
  22.3000956   2.3158467  62.3753548   5.1736211  68.7751948  32.6036096
   6.0709500  68.9234065  32.9020476   5.1929807  67.9026448  32.2105265
  18.3857560  54.7049284  19.8465323  18.2479382  54.3288755  18.9771533
  18.7845993  55.5585527  19.6777725  37.5878835   3.3176586  38.1871724
  37.7214384   2.3872298  38.3679938  38.4649968   3.6543834  38.0040836
  81.0665190  30.5666304  31.1491513  81.5458130  31.2295794  31.6461515
  81.4179307  29.7327662  31.4612603  69.0527451  12.1566832  49.3236876
  69.9422681  12.4783790  49.1770840  68.7922859  11.7809725  48.4827137
  15.2322531  10.2011251  45.9584236  15.0849235  10.5745542  46.8273783
  14.6250188   9.4628531  45.9089041  18.1908989  12.1381485  45.3861713
  18.1068969  11.2336111  45.6878090  19.0928698  12.3785102  45.5980873
  23.7256360  49.6772337  13.9065874  23.8889003  50.5301094  14.3093085
  24.4419694  49.1241169  14.2182863  77.5240170  77.3385074   8.7982798
  78.0537485  77.3713507   9.5948589  77.6412617  78.1995895   8.3970022
   9.7884375  13.2852948  64.4772339   9.6463323  14.2303014  64.5320082
   9.3400514  12.9307663  65.2450180  15.7226121  34.5315504  15.4677391
  15.6462812  34.9819946  16.3088715  16.5468359  34.8498368  15.0995243
  19.5102382  26.2627983   6.6947252  18.8633847  26.9179201   6.4327556
  20.2600408  26.4241767   6.1220264  53.5163164  18.3406246  25.7980847
  53.0960369  17.4943209  25.9509444  54.1801929  18.4058273  26.4845586
  22.5397515  21.5035439  34.2812586  23.3115721  21.6917872  33.7473226
  22.6864910  21.9881177  35.0935936  65.4384850  72.3048313  42.8948156
  64.7451590  71.7968614  43.3161251  66.2152551  71.7491872  42.9590074
  80.0959110  21.4038539  37.0959878  80.5900442  21.8746543  36.4248633
  80.7513576  21.1613464  37.7500606  40.0075531  24.9605703  29.9682403
  39.1927290  24.4855285  29.8050499  40.1113415  24.9383664  30.9195375
  44.6603918  34.9825048  62.7317047  44.9262953  34.1257906  62.3976851
  44.7969151  34.9238062  63.6772966  71.3852691  66.9911288  30.1815081
  71.6684925  66.4653944  30.9295845  70.4546653  67.1502947  30.3392267
  50.9889805   4.9303886  64.5214651  51.7392867   5.5196782  64.5990233
  50.8801841   4.5643445  65.3991930  11.3779533  18.0009413  27.2706723
  11.2732732  17.3160291  26.6102409  11.0868454  17.5935352  28.0864596
  65.4072928   9.1569209  48.2302284  66.1764383   9.1569173  48.8000011
  64.9761700   9.9924469  48.4098387  36.4644790   8.1807220  15.8110607
  35.5514574   8.4517986  15.7154346  36.6501808   8.2894701  16.7437553
  39.2455268  35.8741474  23.3427167  39.0719366  35.6313968  22.4332261
  38.8252139  36.7277598  23.4471798  12.2852099   5.9060794  10.4523444
  11.8168473   6.6732764  10.7814002  12.8312409   6.2448752   9.7429085
  27.3693824   1.9665127  45.3769588  27.9092693   2.6575786  44.9933147
  27.7957368   1.1526438  45.1084995  84.5865559  76.9612741  22.2460008
  84.5442986  76.8812554  21.2930870  83.6913847  77.1760376  22.5082517
   5.0861859  53.6167633  25.4435778   4.4433117  53.4061157  24.7663999
   4.5605111  53.8402330  26.2116647  28.1706524  48.6744881   0.8557558
  27.5632715  48.5623026   0.1245012  29.0019846  48.3276701   0.5319743
  23.6664486  22.0656633  36.9236684  23.2865524  21.7900729  37.7579117
  23.6991549  23.0206871  36.9792414  73.3944857  52.6200628  45.2787066
  74.2788422  52.9561663  45.4242468  73.0724012  53.1123829  44.5236492
  41.4439201  34.1180062  24.2195559  40.7133055  34.5875025  23.8170552
  42.2174883  34.6285892  23.9805412  41.8113804  37.7839255  35.3719974
  41.6286945  37.1811604  36.0927844  42.7599669  37.7351284  35.2535415
  49.2857122  64.2097139  17.2660840  48.4606028  64.0154028  17.7106798
  49.0682268  64.1812468  16.3343537  11.2500381   8.2300305  38.9869881
  12.0339346   8.3842582  39.5141983  11.5710223   8.1919223  38.0860162
  69.7404147  48.3676211   2.0231135  68.9830637  47.7824155   2.0093759
  69.3644476  49.2469171   1.9816764  18.9442396  40.1248503  52.6477766
  18.3990204  39.9379587  53.4119987  18.5927820  40.9432602  52.2971869
  36.0634422  23.5506964  38.6229467  36.3519406  24.0987158  37.8930998
  35.5208397  24.1302061  39.1577196  19.3135929  36.0668325  12.2161186
  19.1762125  36.3314557  11.3065386  19.1350853  35.1264405  12.2215450
  40.8954144   4.2858389  26.5231562  41.2335348   4.9576908  27.1152020
  41.3940001   3.4991336  26.7439246  31.1220670  48.8158560  38.5301304
  31.3300037  48.0610704  39.0808535  31.9734216  49.1956377  38.3128977
  30.0718093  25.0846434  26.3584447  29.4158912  25.5095720  25.8057809
  29.6535897  24.2729044  26.6455030  13.6387610  50.5529165  20.2149725
  13.3209467  50.8657789  19.3680120  13.2545531  49.6811390  20.3078008
  44.6209145  41.4178038  35.6798410  44.1512871  40.9124994  35.0162530
  43.9354038  41.8960381  36.1463118  15.2679491  73.3488004   3.2708552
  14.9910736  73.3858334   2.3553231  15.5091095  72.4331867   3.4112993
  76.9363165  57.5037924  21.6610082  76.4801264  57.9855136  22.3509820
  76.8762255  58.0714802  20.8926614  78.6124044  29.0870953  21.0936022
  78.0357778  28.6755133  21.7372918  78.0736511  29.1680408  20.3065681
  32.3496222  11.3061011  36.5718198  32.7454162  11.7216861  35.8057475
  32.9037261  10.5449140  36.7444348  71.7836093  11.7866266  32.7109694
  71.3518059  11.6638958  31.8655610  72.6002991  11.2929356  32.6366878
   6.1391795  39.8657441  17.8728020   5.5826092  40.6178045  18.0749547
   6.8593341  39.9251151  18.5005629  79.2716288  69.3213569  15.7279003
  79.8630308  69.4587194  16.4679062  78.9264487  70.1924526  15.5322576
   7.7482438  69.4310771  39.1906619   7.0467591  69.5900964  38.5591054
   8.5500478  69.6604549  38.7208438  41.6169310  21.8936658  47.3958635
  41.9709492  22.7788281  47.4818182  42.1371889  21.3676119  48.0031776
   8.3097494  63.1204510  23.8404870   8.1274039  62.4537611  23.1782866
   7.5352931  63.1174088  24.4030166   2.9360959  46.2519550  40.3154564
   3.6380020  45.9264326  39.7519040   2.1304376  45.9803677  39.8757005
  45.0480891  77.4430159   7.3983081  44.8192037  78.3261374   7.1085866
  44.4677115  76.8689946   6.8984206  27.7272701   0.9638425   4.2118362
  27.4056482   1.8156007   4.5072994  28.6067057   0.8976834   4.5839214
  38.1541157  37.4492192  32.9247570  38.3256698  37.6866627  33.8360310
  37.2013187  37.3741269  32.8721094  20.0055933  34.9642944  28.0409789
  20.4519844  34.8904228  27.1974683  20.6041551  35.4764938  28.5846782
   0.1863718  60.8346426  38.6868763   0.6159687  61.2434756  39.4382310
  -0.6629038  60.5484091  39.0230823  78.2054520   4.0316626  32.3594546
  77.8711319   3.1701493  32.6089621  77.6575327   4.2964211  31.6205907
  56.9123507  11.8302560  15.0077081  56.0839272  12.3024702  14.9242938
  57.4977589  12.2618270  14.3853915  75.9297549  80.2486922  11.4864433
  76.0237168  80.9067078  10.7976627  75.4751944  79.5210006  11.0620940
  20.7042718  11.1597288  21.7968369  20.8134484  12.0835292  22.0224595
  19.8925769  10.9009159  22.2331858  36.6279864  24.5851588   8.1307906
  36.4871359  25.1198030   7.3494142  36.7989540  23.7063646   7.7920789
   3.2096210  20.6544900  32.8391957   3.9620826  21.1907816  32.5893474
   2.4530551  21.1263180  32.4910331  44.1907454  12.2354114  61.6911411
  44.4600487  13.0806100  62.0507908  44.6741343  11.5904391  62.2074556
  10.7014549   7.5091010  30.4824519  11.2203276   6.7823148  30.1378012
   9.9305344   7.0918465  30.8669162  66.3344048  79.2649753  54.7539846
  65.8504675  78.8103683  54.0645127  66.2269209  80.1938732  54.5494692
  60.2884603  77.8997258   6.1050685  59.5380760  77.9239754   5.5112966
  61.0256577  78.1968192   5.5716737  37.8757286   5.6255591  28.2080364
  38.4661126   5.1269639  28.7729096  37.9987550   6.5358871  28.4771061
  61.2951117  75.7966863  30.3084278  60.9661191  76.4859419  30.8854222
  61.3527348  75.0226473  30.8685827  72.0043825   7.5018474  44.6852867
  71.9974767   6.6800185  45.1759808  72.7022647   8.0167743  45.0903098
  22.7469873   7.8620583  30.0058866  22.5158024   8.7624180  30.2342272
  22.2456574   7.6802939  29.2109895  27.2903347  21.3097072  14.7220504
  27.5463414  20.4058647  14.5383096  28.0533838  21.8304396  14.4713998
  28.5713649  17.7373242  47.9829025  28.0467296  17.3439729  47.2855759
  28.0801630  17.5551319  48.7839985  38.5101151  32.0117426  13.7358403
  38.1714392  32.3839784  12.9216099  38.9593625  31.2112284  13.4645796
  79.7371733   8.1577003   1.4286555  80.0823378   8.0311775   0.5448653
  78.7867128   8.1175846   1.3226017  33.9028168  31.8418837  31.0227704
  33.6655784  32.1984673  30.1667356  33.4809470  32.4275494  31.6514635
  48.5691833  12.9025435  17.2420180  48.7727642  12.1031761  16.7564261
  49.0387630  12.8056753  18.0704761  10.4178464  45.8524942  27.4278021
  10.8201325  45.5527925  28.2430172  11.1048198  46.3581038  26.9934535
  56.8050480  12.0083976  35.6824923  57.0874834  12.8579664  35.3438258
  56.8877506  12.0898020  36.6326308   8.1836802  51.3220453  31.1258388
   8.8140351  50.8128738  30.6163025   8.2795477  52.2169876  30.8000755
  31.7501640  56.2654161  12.6434267  32.0793104  56.6054916  11.8114161
  31.4946032  57.0450115  13.1365299  20.6076980   2.2581173  46.0010004
  21.5115619   2.1560095  46.2990522  20.4227567   3.1906825  46.1121321
  59.9366617   9.8870921  51.8750477  60.7261562  10.2316880  51.4576912
  60.0892401   8.9439911  51.9343090  45.4718767  46.9526048  67.0404242
  44.6434211  47.1718682  67.4668230  45.5115806  47.5339009  66.2809832
   9.1805553  18.6125791  68.7540102   9.1726679  19.2463148  69.4713306
  10.0965071  18.5737586  68.4787703  80.5210614  14.9144995  51.8267441
  79.7541129  15.4806030  51.9136286  80.2699291  14.2709827  51.1641359
  83.8605615  14.8627818  36.3019490  83.6204904  15.2114487  37.1604514
  84.7270005  14.4778156  36.4335394  49.3814278  41.3715124  37.5765157
  48.5194635  41.7876625  37.5847411  49.2770100  40.6157541  36.9984531
  84.5738901  27.2549462  38.4471250  85.1719480  26.5611243  38.7249160
  83.7708780  27.0912147  38.9416909  23.6003876  45.1833439  24.3316507
  22.9257083  44.8162603  23.7604332  23.1670070  45.2859831  25.1789260
  28.0761719  35.4495430  16.4697087  27.3079467  35.9072018  16.8111908
  28.3559823  35.9766865  15.7213390  37.4002123  33.6293340  28.6194491
  36.7496610  32.9743171  28.8723660  36.8831921  34.3787861  28.3240771
  48.9150763  58.8019562  42.7192354  48.2712650  59.5029068  42.8212547
  48.4592247  58.1299496  42.2124481  79.3140243  77.8905852  65.0576107
  79.7038339  78.7507231  65.2139561  79.3441366  77.7832015  64.1069297
  41.4784813  46.7351151  32.1478152  41.4531183  46.4327240  33.0556393
  41.5518379  45.9332657  31.6302347  31.5271020  63.1391621  31.4132619
  32.1123219  62.7866840  30.7428074  32.0054030  63.0223370  32.2341228
  45.6658363  44.5032597  37.0177984  45.4710627  45.3913689  36.7185354
  44.8719835  44.2248917  37.4744582  44.0274702  74.7647197  57.8344504
  44.8081886  75.3044589  57.7103846  43.7965022  74.8857505  58.7554483
  24.4266558  54.5836496   8.6772472  25.1029015  55.2579975   8.6126089
  23.6096668  55.0724649   8.7763560  35.3312945  48.2345533  31.5524459
  34.8522162  48.9254856  31.0949183  36.1152768  48.6688900  31.8885326
  40.7360326   9.0861961  63.5456715  40.5172061   8.5793182  62.7637379
  39.8996293   9.4481870  63.8382844  30.4254246  44.2412376  15.9738123
  30.1470852  43.9119434  15.1192224  29.6420932  44.1806078  16.5205741
  64.4841051  56.9458771  17.5965464  64.9025917  56.4013720  18.2633436
  63.5509825  56.7483091  17.6770282  31.4203572  29.1803908  37.7462506
  31.8135738  29.7534347  37.0880437  30.5072594  29.0927339  37.4727559
  22.9263091  11.8241000  24.7981405  22.7866697  12.0469499  25.7185030
  22.9302764  10.8670557  24.7813749  37.7773428  50.7186556  38.9813399
  38.6755323  50.6047916  38.6706543  37.2997618  49.9766016  38.6105251
  11.8407619  66.6025829   9.1601753  12.0390606  66.1786604   8.3251905
  11.0117435  66.2117767   9.4362748  77.2368336  15.7487893   2.9278529
  76.5846300  16.3919914   3.2056251  76.7261553  15.0540066   2.5122607
  37.4129796  53.2736063  38.4377003  37.3043275  52.4509096  38.9147663
  38.1198812  53.0986834  37.8164744  42.5715113  14.0220237  24.1412115
  43.3887768  14.5109284  24.0448785  42.3188066  14.1555274  25.0547481
  28.3065939   1.6186506  23.6765075  28.7045145   2.2059095  23.0338430
  28.5752654   0.7427716  23.3992290  21.9788599  67.8015661   7.7166170
  21.2940431  68.3856916   8.0422831  21.6519260  66.9215679   7.9035467
  71.2886429  54.2863730   4.3362315  71.7556048  55.1101486   4.1963275
  70.8113432  54.1399304   3.5195478  45.7238722  27.2801280  22.2182679
  44.8051691  27.0138979  22.2548199  45.7042551  28.1560206  21.8327045
  45.9296989  52.0773506   2.4277896  45.1948786  51.4909554   2.6078239
  46.5384912  51.5474463   1.9132026  33.9221835  21.9292188  37.4089551
  34.1308045  21.2068725  38.0013442  34.3671727  22.6867366  37.7889347
  20.8659291  59.6642256  22.0994043  20.2137542  59.0853167  22.4940753
  20.3684735  60.4356861  21.8280768  36.8148613  37.2872663  30.3578162
  37.1694613  37.0004749  31.1993861  36.3390923  38.0927777  30.5603671
  36.3366365  33.0269289  11.0316980  35.7799673  33.0797648  10.2548063
  35.7552409  33.2502294  11.7585731  32.0213842  22.4827433  40.0113583
  32.2030711  21.9700098  40.7989693  32.6090741  23.2356215  40.0748253
  75.5066204  24.8038650  24.8278284  76.3125372  24.2885208  24.8617601
  75.0396156  24.5712590  25.6303453  20.5910206  32.2246957  18.4501886
  21.4819932  32.1245861  18.7854171  20.2543592  31.3304162  18.3940172
  20.9915495   7.9083163   3.5678890  21.6981149   7.7892768   2.9332036
  20.1901221   7.8513688   3.0475977  24.3517733  34.7347617  28.7988186
  24.0841937  34.8533654  27.8874636  23.9537764  33.9040565  29.0591240
  33.5557199   5.6359142  37.6231456  33.2284451   5.1230484  36.8841672
  34.1773987   5.0547892  38.0613708  12.6920485  13.9890099  54.0760565
  12.6743901  13.0417466  53.9396286  12.1875763  14.1249263  54.8780918
  26.1529016  74.3751478   9.3514168  25.7181573  75.1894808   9.0982538
  25.4372573  73.7850189   9.5877016  29.9730825  51.8926191  25.9018421
  30.3435946  51.2687063  26.5260887  29.2916083  52.3490715  26.3952756
  38.3496761  45.7997084  36.2882423  38.8247800  44.9733829  36.3759565
  38.6202884  46.3135147  37.0491648  66.4313841  48.7244797   0.5480973
  66.0831451  48.9198923  -0.3218336  65.8080673  48.1011391   0.9211332
  53.2941866  54.4529819  39.7089267  52.3910284  54.2279768  39.4855118
  53.5758972  53.7545156  40.2997017  31.9597292  18.6581647  31.7797136
  32.1345663  18.1618571  30.9801245  32.0894957  18.0263615  32.4869728
  33.6957216  32.5521088  28.5339522  34.4179320  32.4555922  27.9132032
  33.0301070  33.0434108  28.0524826  22.7548599  29.0199852  35.8339906
  22.1142507  28.4420180  35.4194951  23.2045507  28.4627032  36.4691639
  28.7854338  48.4382153  36.3667488  29.3914127  48.4380054  37.1077085
  29.3425488  48.5818624  35.6017518  61.6399717  31.8765926   6.5302712
  61.9152403  32.2430396   7.3706138  61.4563942  32.6410389   5.9842372
  16.6112792  64.0479422  11.9669223  15.9285402  64.1800213  12.6246881
  16.3731956  64.6389341  11.2525856  45.9114361  47.2057772  36.6687751
  46.0631275  47.1524763  37.6123762  46.5503025  47.8479290  36.3593817
  47.6991177  30.1398396  20.2170205  47.4012566  30.9329462  20.6625438
  46.9986534  29.9357772  19.5973945  37.0280313  48.4497499  17.3146725
  37.1045256  49.1422701  16.6583228  36.0973382  48.4329033  17.5377309
  12.6222372  35.1287746  16.1542106  12.1081305  35.9353638  16.1176217
  13.5108519  35.4005075  15.9245253  50.6914949  41.7493010  40.0174904
  51.0922718  42.5845194  39.7766185  50.2495050  41.4570045  39.2203474
  32.9417515  50.4896212  27.6202774  33.4506822  50.1816511  28.3701944
  33.3073354  51.3513708  27.4203539  57.4276590  58.5458660  41.8406963
  58.3048964  58.1976557  41.6812086  57.3836231  59.3383646  41.3056850
  70.0147152  30.7971406  11.7091691  70.7056665  31.4222503  11.9283867
  69.9131012  30.2657819  12.4988306   8.9525068  30.1200438  13.4939337
   9.8077929  29.6935725  13.5472250   8.9174998  30.6839633  14.2665923
  41.0978699  48.5747242  37.0189571  41.8636656  48.0227804  36.8603706
  40.4989529  48.0166101  37.5149798   0.3759338  54.0591049  16.9345212
   1.1568125  53.6403036  17.2965539   0.0091629  54.5552683  17.6663208
  20.2382350  60.4502153  11.9949472  19.6987236  59.6818256  12.1813262
  19.6113646  61.1689949  11.9135928  24.2736530  16.7326224  47.7909899
  24.7215486  17.5774527  47.8344011  24.6608925  16.2195134  48.5002136
  31.0907948  73.2712825  65.4982851  30.5007321  73.5016568  64.7806607
  31.8461953  73.8474639  65.3816025  32.4923062  46.0679340  16.6952646
  31.7979741  45.4307604  16.5275002  33.2942748  45.5461740  16.7243421
  46.9999075  42.3766851  36.2530661  46.3805103  41.7635298  35.8573174
  46.5270233  43.2083416  36.2839723  77.5527924  53.0444527  23.1856322
  78.0410718  52.6655006  22.4547362  77.3530966  52.2992754  23.7522554
  40.5319357  43.8697672  32.3960376  40.3492212  43.0077744  32.0221114
  40.2592707  43.7967682  33.3106732  29.3892860  76.5148102  56.8845272
  29.3392181  77.4426888  56.6548157  28.4798622  76.2551950  57.0321083
  34.5372009  23.7631059  28.2896304  33.9334297  24.5037246  28.2332897
  34.4050765  23.2836270  27.4717832  27.3051858  77.1335745  16.6326475
  27.2819185  77.3366547  17.5677669  27.5291300  77.9640722  16.2126958
  30.3389215  51.8877602  33.3075571  30.1471686  52.8176355  33.4292054
  29.7178030  51.4381695  33.8805389  47.9114342  41.8162870  16.4532208
  48.6779785  41.3038397  16.1962438  48.1006718  42.7020264  16.1435652
  41.3413858  16.9833910   2.3276456  40.4949951  17.1026552   1.8968004
  41.7838573  16.3143301   1.8053320  37.6351643  39.1872358   3.3064836
  37.0761156  38.5693812   2.8353664  37.0264244  39.8253512   3.6786056
  23.7747979  51.9167280  24.4121623  23.8485169  52.8625631  24.5394349
  23.3216166  51.8224001  23.5743284   3.3937406  81.2727879  65.7977867
   3.9291167  82.0604203  65.8939028   2.7323150  81.5105955  65.1480198
   5.6687194  21.6637588  31.7516589   6.3677233  22.2644472  32.0101166
   5.6088847  21.7606521  30.8012581  48.5431242  36.3369632  37.0699382
  48.6360312  35.5485392  37.6047158  47.9269600  36.0878897  36.3810706
  40.4526615  40.0087881  35.6056571  40.9480143  39.2013478  35.7431269
  39.5357108  39.7379661  35.6513596  19.6875525  38.6469030  25.0466228
  20.6219411  38.6091161  24.8423672  19.3186355  37.8707957  24.6249676
  45.1708078  12.3809385  29.4842291  44.5331717  12.3873699  28.7703586
  44.7576571  11.8558729  30.1696801  27.1635461  23.4435821  34.4804835
  27.7544045  23.5492373  33.7348604  26.7865372  24.3134522  34.6124649
  38.5336280  46.6123152  19.3787634  39.4403195  46.7858219  19.1257071
  38.0124307  46.9571066  18.6537087  30.3991413  21.0689259  31.5253711
  30.7111311  20.1659679  31.5850353  30.8588624  21.4316344  30.7681823
  17.8804457  20.1908064  45.4243660  16.9691515  20.4167247  45.2379942
  18.3259165  20.2776861  44.5816088  33.8400435  29.9003434  23.8170934
  34.3994451  30.4064775  23.2279158  34.4520855  29.4212270  24.3757391
  50.0010395  24.4463515  22.2121763  49.9709082  24.7149229  23.1304312
  49.1450691  24.6934056  21.8621612  11.8467629  18.1083703  22.9406595
  11.2970603  18.7411678  23.4028578  11.7368543  17.2931254  23.4300756
  27.6369023  46.4311838  30.5110407  27.6978612  46.3515091  29.5591116
  27.9512691  45.5899954  30.8424139  79.1398572  57.7017879  16.0114694
  78.2766437  57.7778149  15.6048822  79.1271561  56.8472242  16.4425075
   4.2225122  66.2341077  63.8710962   4.8812293  66.5249999  64.5017408
   4.7297715  65.8681734  63.1465189  14.0217113   0.8561488  62.6545624
  13.1945371   0.5559608  63.0312638  14.6950292   0.4378101  63.1910918
  50.7101250  36.2066722  20.3162456  51.2628603  35.4570699  20.5371809
  51.3229179  36.8722105  20.0035572  42.7877426  19.2866254  16.4057767
  42.0986891  19.9470234  16.3328993  43.0981445  19.3629086  17.3080313
  30.2990484  57.9203224  28.4104967  30.6111479  57.3325491  27.7224922
  29.3528652  57.7778149  28.4362483  75.4403925   1.7773379  16.5448427
  75.9211922   2.0448626  15.7615829  74.8557043   1.0828532  16.2414348
  83.6081448  36.0129642   9.2346972  84.3610248  35.6363392   9.6902835
  83.1707370  35.2619958   8.8335073  80.8347839  54.9633408  43.1533861
  80.8128672  54.3671036  42.4048853  81.4209771  55.6690741  42.8803492
  40.0244808  40.0159454  27.4935222  39.2671776  40.4894495  27.1492505
  39.6818876  39.1529489  27.7261138  50.3038502  15.0997090  19.9799895
  49.3813896  15.1787019  20.2230120  50.3201675  14.4013703  19.3255520
  85.2922967  17.7572405  19.8876870  85.9083761  18.3157003  20.3618193
  85.4196952  17.9875171  18.9673746  12.4674308  32.4151278  15.6727195
  12.6625347  32.4833107  14.7380972  12.5496924  33.3106780  16.0005212
  37.8319502  40.1681614  32.1764040  37.9693365  39.2719030  32.4831319
  37.3080826  40.5790234  32.8641438  74.7329544  71.2026293  68.6940802
  73.8818334  71.6115053  68.5370756  75.3682064  71.8966944  68.5181145
  12.6507795  46.4125729   2.4465790  13.5131681  46.0800791   2.6955083
  12.2783744  46.7470264   3.2624760  84.3189969  21.3679504  49.2016602
  84.9027589  21.8055677  49.8212910  83.5146984  21.2148428  49.6975327
  19.9201071  29.5080948  37.0794249  20.5651712  29.5442510  36.3731551
  20.1596165  28.7300682  37.5829554  52.4709749  20.0721431  40.7505703
  52.7891159  19.9998081  41.6504526  52.5075054  19.1779435  40.4110098
  38.7150359  56.9395590  15.1926124  39.5185089  57.0960808  15.6887603
  38.2040167  56.3477755  15.7447779  11.4217198  69.5917749  44.2466640
  11.8501496  68.7361526  44.2709589  11.0989356  69.6726131  43.3491611
  37.0966077  24.0856194  26.3576198  37.7063990  23.5112214  26.8207121
  36.3455009  23.5267186  26.1583662  28.9541054  41.1163473  11.9498992
  29.6719170  40.4864883  11.8846798  28.5271311  40.9077024  12.7807975
  31.1495185  27.9784727  33.5254383  31.4151716  28.6686063  34.1332006
  30.4012895  28.3475256  33.0561996  16.9557369  76.5535688  27.2955298
  17.0496249  75.6235218  27.0895338  17.4036586  76.6593981  28.1348133
  34.2493939  53.8514853   1.2604021  33.8497877  53.9846945   0.4008658
  34.2063355  54.7105932   1.6802907  23.1603432  70.1011038  21.6285348
  22.5866175  70.8235359  21.3732648  23.0677629  69.4609213  20.9229660
  20.4967451  80.8966905   4.6062404  21.1131715  80.4320509   4.0402395
  20.1735544  80.2270464   5.2090305  78.3480644  32.7438545  14.5738840
  78.5124826  32.4320626  13.6839485  77.8493690  32.0386362  14.9864399
  41.8053007  43.5689497   7.2686660  41.7735958  42.8137398   6.6814017
  41.6556025  44.3226433   6.6979015   4.1484737  68.9530904  55.1552407
   3.8832616  68.8755734  54.2387895   3.6856746  69.7280605  55.4737834
  39.4971967  43.4734678  36.5063810  40.4308414  43.4446335  36.2973189
  39.0790224  42.9751635  35.8042049  56.1346054  73.4430742  20.2207422
  56.2092495  74.2896795  19.7803819  56.7023516  73.5210085  20.9874344
  36.2804389  60.8346653   8.0457652  37.0705891  60.3203058   8.2110655
  35.5683279  60.2985954   8.3947057  41.7332745  44.6980047  35.3562832
  42.1822834  44.0222311  35.8641744  42.1356201  45.5185556  35.6409717
  44.2006159  61.3988543  37.1025562  44.8541403  60.7945776  37.4546862
  43.3638573  60.9564972  37.2453332  42.9223537  52.9934740  37.6291561
  43.8367224  52.7603960  37.4684072  42.4399996  52.5776625  36.9145465
  49.2557478  79.6466160   8.7848902  49.3879509  79.2676067   7.9159206
  48.4974337  79.1803455   9.1367209  49.3769407  49.5537329  40.9122944
  48.9939356  48.7999916  40.4635048  49.3399763  49.3238640  41.8407488
  45.7657242  18.2218921   3.0400398  45.8658934  19.1599548   3.2020190
  45.8537149  17.8189445   3.9038235  37.0656848  61.9616413  36.0816336
  36.8244982  61.5372515  36.9050145  37.4935436  61.2725639  35.5733609
  10.1551414  16.3466109   6.9188243  10.2382732  16.1889685   7.8592873
  10.7859684  15.7479609   6.5189421  44.5161819  53.6927032  39.8553681
  43.6852837  53.3370018  39.5402336  44.7057629  53.1916285  40.6485987
  71.2293673  42.8000975  29.9162221  71.4127302  42.9028082  30.8500624
  72.0094442  42.3709297  29.5647526   5.5969263  23.7364578  46.7508030
   6.4712644  23.7763977  47.1383190   5.5121541  22.8339124  46.4434624
  44.2554951  57.7021980  37.5452471  45.0251818  57.2389174  37.8756785
  43.5164118  57.2845936  37.9875016  28.5045290  51.4997005  35.3589630
  28.1869149  52.3542643  35.6506348  28.2952547  50.9071970  36.0810280
  35.2825284  61.4226341  66.9851303  34.4683361  61.7201805  66.5791845
  35.8585000  61.2217951  66.2474680  72.9837132  66.5465021  24.5052171
  72.8112268  65.7716322  25.0400567  73.3197498  67.1947670  25.1241398
  39.6738315  60.4707432  19.6954834  39.0139389  60.6641865  19.0296352
  40.3162527  59.9232531  19.2440617  49.7343254  49.0239668  43.8612413
  49.4401550  48.9163160  44.7657347  49.5197058  48.1921816  43.4389782
  44.4317293  69.2842865  12.3553312  44.3822050  69.6879148  13.2218564
  44.7567749  69.9808264  11.7848873  46.5396452  46.3641739  24.6999264
  46.9563198  45.5279446  24.9080896  47.1113396  46.7593479  24.0417218
  49.2159176  80.3691673  33.2598305  50.1602268  80.5257320  33.2617736
  49.0099239  80.1360607  34.1650677  52.0158768  60.2622271  16.6701365
  51.8597221  60.1752424  15.7297742  51.1411619  60.3297710  17.0529437
  69.3083715  80.5941010  23.0709553  70.0448418  80.0111198  23.2552934
  69.6842241  81.2928486  22.5354958  47.1181154  68.2739639  32.7538800
  47.3505449  67.6235676  32.0911622  46.3734722  68.7434292  32.3779225
  51.0050631  55.1397085  12.9774320  50.4734516  54.8761415  12.2263277
  51.5242434  54.3634844  13.1875825  37.5030828  52.9534960  28.5575199
  38.1693649  52.3767757  28.1837583  37.1328402  52.4523544  29.2841625
  26.3766313  39.5638061  24.5318818  26.9226933  39.9300671  25.2275109
  25.4815245  39.7863770  24.7877717   6.8719101  11.0339709  62.8754382
   6.8984174  11.5126773  63.7039117   7.1266055  11.6804000  62.2170405
  17.3426843  52.4021482  30.0322628  17.0840788  51.9965982  30.8598399
  18.1200945  51.9149017  29.7593927  44.9364948  50.8260298  27.3996902
  45.5556631  50.0990534  27.3335719  44.1892672  50.5534029  26.8671942
  48.2817268  45.4095268  36.8282652  48.0739498  46.3374901  36.9375682
  47.4292469  44.9754143  36.7958093  71.1883641  29.4346465  55.2788687
  71.0631991  29.1350878  54.3784094  72.1076250  29.2466677  55.4682302
  65.2969742  54.7573757  19.6317387  66.0570574  55.0939178  19.1571379
  65.3527546  53.8071966  19.5303524  21.0246277  39.8936486   7.4418473
  21.9418812  40.1351070   7.3131025  21.0331798  39.3203759   8.2083452
  53.5829544  72.1708679  36.9080329  54.1402435  72.0884943  36.1341643
  54.0383720  71.6709518  37.5854635  13.8239526   9.8371097  68.6488016
  14.0261316  10.4629251  69.3442948  12.9046774  10.0013658  68.4385936
  61.9053268  70.2223015  38.9023161  62.4910450  70.9728861  39.0012646
  62.4784327  69.4595003  38.9792275  54.9683666  53.4115458  45.9472656
  55.2383375  53.5101748  45.0342369  54.4044018  52.6381302  45.9480619
  14.4354129  56.8276310  29.0344477  14.5881784  56.2858629  28.2602525
  14.2714119  56.1994457  29.7378087  46.9535589  56.7218256  37.5976968
  47.8946733  56.8949842  37.6210809  46.8659163  55.8290720  37.9316783
  31.2148905  46.6561174  13.4765565  30.5667973  46.0875654  13.0606759
  31.8071580  46.0543728  13.9275038  35.0402641  64.7589588  26.4693618
  35.6732273  65.3371525  26.0435915  34.3987203  65.3523540  26.8599176
  35.8175778  47.4011374  40.0945807  35.2090001  46.6749716  39.9584126
  36.6660309  46.9799614  40.2323103  42.2929478  42.6079178  36.9825840
  42.3999929  42.6013470  37.9337573  41.7300129  41.8556547  36.7997122
  72.4280691  66.9391489   5.9087026  73.1615925  66.3873386   5.6372702
  72.2763157  66.7027807   6.8237621  36.0448599  40.8366632  12.8462648
  35.1036859  40.8689499  12.6748466  36.2820554  39.9195838  12.7086532
  72.4085236  74.4798994  48.3299732  72.8412390  74.2984867  47.4956608
  73.0488682  74.9899673  48.8259697  41.0153913  65.6663465  43.3251762
  40.6621933  66.5559578  43.3338356  40.9134674  65.3593969  44.2260790
  58.6245298  70.9105158  51.5102386  57.8847122  70.3305531  51.6906261
  58.2402706  71.6490698  51.0378838  53.1519270  77.0476580  22.0053959
  52.5017357  76.8409681  22.6767874  53.3026361  77.9882288  22.0994329
  63.8121510  65.3113985  51.3737774  63.1543779  64.7952986  51.8398285
  64.4330120  64.6634960  51.0406303  56.6224003  62.5029612  37.6405668
  55.7845879  62.7738190  37.2651553  57.1832848  63.2739735  37.5558114
  32.0256472  81.0429955  18.9474380  31.5330982  80.4134464  18.4208512
  31.5364814  81.8613243  18.8620305  13.0975986  57.0503187  25.9890485
  12.6903689  57.9006100  25.8235145  13.8031721  56.9931793  25.3447390
  52.6747465  62.5189352  32.3414278  52.3890591  61.7542791  32.8413415
  51.8775892  63.0332565  32.2139740  49.5323610  20.5298066  23.8758445
  49.6296644  20.3746438  24.8153591  49.2490387  19.6867692  23.5219383
  41.7765093  52.0559263   9.6591139  42.4285984  51.4050198   9.3996215
  42.2915125  52.7954626   9.9817413  54.3067789  66.5311003  15.6601870
  55.0901365  66.9330454  15.2846575  53.7230062  67.2677231  15.8413744
  78.7564850   3.4998072  29.1895938  79.0171576   2.7937449  29.7809982
  77.9477644   3.8437117  29.5689774  75.3635883  64.0315771  34.4962239
  75.7492876  64.8635387  34.2218018  75.6298971  63.4092951  33.8194084
  53.6463165  75.2380466   5.1321810  53.0011892  75.9391451   5.0399619
  53.1808186  74.5441246   5.5990958   9.5607269  27.7796364  38.2595706
   9.5418364  28.0385160  37.3382378  10.2215612  28.3483505  38.6546564
  50.1585388  61.7687654  46.1906147  49.9452972  61.5593147  47.0999527
  49.3763399  62.2075367  45.8561325  36.9457269  65.1895857  31.6074157
  36.3184643  64.8817539  32.2616410  36.6911840  64.7402239  30.8014917
  49.5018791  74.3905242  69.7287696  49.0022324  73.5937531  69.9069296
  49.8652147  74.2547448  68.8536788   5.1963830  59.0195847  29.0659237
   4.6176935  59.5084095  28.4807801   5.9422040  59.6026802  29.2072415
   9.2866159  38.8370466  37.1793556   8.3319402  38.8820028  37.2322893
   9.5890546  39.6220088  37.6360822  35.9486055  74.1775227  37.0413971
  36.2069678  73.6526823  37.7990389  36.0034180  75.0828791  37.3472714
  63.6750651  27.0807780  17.0995891  63.2588029  27.9414404  17.0524502
  64.5961142  27.2489680  16.9005692  36.9341922  50.0950861  15.1077580
  36.7334008  49.6010876  14.3128479  37.1424723  50.9758711  14.7961974
  61.8265820  40.3082371  39.4839501  62.7031898  39.9238467  39.4777966
  61.2892675  39.6717644  39.9555707  59.2419196  17.8112353  27.4735689
  58.6726880  17.9300154  28.2338977  59.5995808  16.9294775  27.5775623
  29.0183449  56.9633961  24.5330286  28.3273268  56.6187334  25.0986552
  29.2172599  56.2447739  23.9328241  11.6505838   3.0965651  10.1972795
  12.0887161   2.5372542  10.8387172  11.9617868   3.9794291  10.3971219
  70.9325075  36.7800927  33.7626934  70.7588339  37.7168393  33.8552904
  71.1119223  36.4805174  34.6539283  59.6931362  66.4016104  57.4461651
  60.4198933  66.7111111  57.9867792  58.9741182  66.2698174  58.0641270
  79.8683548  60.3536272  16.4072788  79.7875977  59.4055986  16.3026559
  78.9742041  60.6820250  16.3130200  70.8621693  76.1963367  23.3861160
  71.1888456  76.2295055  22.4869967  70.9592056  75.2792358  23.6425209
  70.3658962  56.3447046  27.7971745  69.9133348  55.6375504  28.2569098
  69.9295139  57.1424913  28.0960655  63.8308668  59.6819592  18.9360285
  64.4402695  59.9665070  18.2549345  63.2923985  59.0139198  18.5117483
   1.2421390  64.4726801  27.0672750   2.1021199  64.2758799  26.6958785
   0.6783966  64.6106434  26.3060975  14.6452236  65.1705647  33.0183268
  14.7359014  66.1102581  32.8602505  13.7730193  65.0751162  33.4009218
   0.4752231   3.9810122  55.8003712   0.2382637   4.7082747  55.2249050
  -0.1568388   3.2935656  55.5902433  56.0501957  67.2205257  28.1351137
  56.2239170  68.0574656  27.7043247  55.6433773  67.4596882  28.9679003
  76.6083813  64.1024113  39.1604114  77.2497702  64.0989065  39.8709369
  77.0024920  63.5574389  38.4792995  40.3769350  45.4791021  14.9346769
  39.9845314  46.3511515  14.9769127  41.3018656  45.6227064  15.1349640
   1.2784970  49.2074108  43.3111811   0.9032200  49.9702740  42.8713655
   2.1021172  49.0465832  42.8507328  49.6696568  56.5923262  38.1794500
  49.9279213  57.1997166  38.8727069  50.1751900  55.7988310  38.3556342
  81.6617585   2.6104392  30.2731156  81.0480261   1.8807257  30.3572893
  81.5914727   3.0796278  31.1044717   8.8943792  11.8507613   9.1009730
   8.2733990  11.1345328   9.2337328   9.4202972  11.8631114   9.9006534
  26.9148661  13.9334239   4.7839552  26.0598589  13.5056246   4.8307532
  27.0397306  14.1179408   3.8530451  57.5660991  16.7887040  64.8399506
  57.3164081  16.9165393  63.9247744  56.7405986  16.6115018  65.2909259
  44.7091472  13.4861887  48.4108210  43.8440323  13.5227145  48.8188314
  44.7827125  12.5890769  48.0852127  49.7243238   1.0513724  24.8317623
  49.4022107   1.4465559  25.6418896  50.3820348   1.6677035  24.5096254
  49.6418381  59.6458864  17.4592888  49.8976803  60.1083088  18.2573748
  48.7250233  59.4107819  17.6021540  69.0162754  73.0217266  44.1675663
  68.3221340  72.3720598  44.0565109  69.7955942  72.5063801  44.3756819
   8.5490251  54.3511724  37.2782993   8.2397867  53.6147547  37.8058314
   9.1108537  54.8508883  37.8706336  44.4001389  58.4096193   2.3026724
  44.0913916  58.3505392   3.2067823  43.8721991  59.1072989   1.9143973
  37.3492074  73.6472321  46.4776754  36.4940953  73.2258081  46.3915730
  37.7971458  73.4504271  45.6549692  52.9480291  14.3580855  51.5946913
  53.7511946  13.8624514  51.7543983  53.1973863  15.2710093  51.7383003
   7.4019314  17.0547617  38.0311418   7.1853901  17.2977484  37.1309733
   6.5803648  16.7238558  38.3941388  33.4385753  53.1803846  21.7306232
  33.4404254  52.2470331  21.9429541  32.6783371  53.2947826  21.1603761
  18.2073522  79.5192432  12.5633073  17.3244501  79.6387482  12.9132080
  18.7850214  79.6918631  13.3067667  63.1000233  60.0869894  47.0276213
  63.0944061  59.6917868  46.1558294  63.9632511  60.4941320  47.1004725
  59.9095535  62.3881865  35.8137035  60.1862907  62.9695129  36.5220165
  60.0450754  62.9005194  35.0165987   2.0799852   6.7494906  48.9730978
   2.7897430   6.5953291  49.5965624   2.5241924   6.9579924  48.1512451
  10.8781172   2.4504412  30.1668692  10.8700872   1.7446173  29.5203567
  11.2533069   2.0517767  30.9520626  11.6773058   1.4888705  39.9995565
  10.9947372   0.9158076  40.3487492  11.4741541   1.5627039  39.0670800
  76.1710405  68.4833431   6.1543739  76.8660498  69.1120672   6.3490570
  76.5975189  67.8122759   5.6214440  26.4547850  18.8347595  10.3578790
  25.8315016  19.2103355  10.9797319  26.7741753  19.5848529   9.8563035
  10.9722280   9.9169704  68.1870667  11.4896726  10.4443952  67.5785397
  10.4371237  10.5537816  68.6607426  86.8033314  28.6472797  20.2281165
  86.4912319  27.9262543  20.7748771  86.9016743  28.2623100  19.3572783
  66.6606045  48.9007807  22.1971679  67.0156527  48.6626387  21.3407445
  66.1924982  48.1182814  22.4883842  14.4361902   7.2526301  43.7578392
  15.0491834   7.8589571  44.1735744  13.6009622   7.4194087  44.1946650
  81.8224525  50.1552963  51.2670803  82.7603912  50.0995255  51.0843372
  81.5254688  50.9146214  50.7656193  22.9861665  40.8214712  34.4598174
  22.8778482  40.0142097  34.9626350  23.9162851  40.8403492  34.2345405
  18.6534334   5.5321444  34.4687986  18.9158130   4.7022570  34.8671365
  18.6154152   6.1477316  35.2008057  52.4688625  49.8361015  33.3894014
  52.2118330  49.1641474  32.7580190  52.3963976  50.6591368  32.9060841
  70.4880810  65.6191683   2.4140544  70.7097006  65.2650309   3.2752776
  70.8619833  64.9929571   1.7941390  58.2490158  54.7341891  70.1470826
  57.9254341  55.3395053  70.8142617  59.2013645  54.8225661  70.1851646
  40.9344126  13.8927524  11.9928964  40.1018883  14.3353622  12.1579106
  41.4649368  14.0843456  12.7662404   5.7254243  69.2575455  23.7188387
   6.0144258  68.4990644  23.2114720   6.4805150  69.8458195  23.7213683
  49.5398379   2.8115500  20.0654697  49.5741892   2.8323592  19.1091132
  49.0506959   2.0146597  20.2702856  37.3464561  49.7526836  33.9568305
  37.4159837  50.1509619  33.0892062  37.9121232  48.9817810  33.9125204
  75.4341577  67.6360376  39.6258609  75.2330517  66.8022306  39.2009441
  74.5917724  67.9435952  39.9605743  71.8396091  44.3471098  24.9774861
  70.9412861  44.6450520  24.8343992  71.9853783  43.6901999  24.2967129
  81.2449360  29.6030688   6.4737582  81.5657806  29.2651248   5.6376469
  80.9928513  28.8223028   6.9667971  53.6007118  60.8344460  19.0341783
  54.4908237  60.5456638  18.8328338  53.1480694  60.8211327  18.1908691
   2.4262739  66.0888720  24.4621110   2.0442319  65.9085941  23.6031723
   1.7256666  66.5219975  24.9497390  62.6534414  68.6436224  52.6186085
  62.4543667  67.9419184  51.9987583  61.9734669  68.5715532  53.2884407
  77.1653080  79.5389652  47.4773932  76.2862825  79.1805935  47.6003313
  77.0857334  80.4595661  47.7271795  49.6627092  32.0031476  19.5442975
  49.0360641  32.2510409  18.8645196  49.2161322  31.3196969  20.0439930
  40.5023146  45.4881144  22.2474003  41.0173750  45.1420450  22.9762197
  41.0309744  46.2067032  21.9004440  54.1719246  68.1334925  20.9577465
  53.8297844  67.5876093  20.2498055  53.6587191  67.8801250  21.7249870
  75.6485987  77.6686192  38.1086254  76.5764618  77.4504805  38.1964731
  75.3920412  77.2897387  37.2678757  66.9455528  47.0236874  31.3780999
  67.0598936  46.2144136  30.8798671  66.8017435  46.7323446  32.2784710
   0.5722738  52.8777742  29.0459418   1.0019231  53.7307405  29.1097808
  -0.1513361  52.9267311  29.6706223  64.2595243  73.5202932  30.3701687
  63.4806967  73.6882353  30.9006882  64.4459295  72.5912619  30.5057740
  15.3428770   1.6912402  38.2611394  14.7383047   2.4316824  38.2115149
  15.3386236   1.4400424  39.1847801  49.4884777  10.0079955  22.1866775
  50.4049015   9.9922122  22.4626303  49.0477133  10.5389822  22.8500175
  69.4302177  40.4124165  37.2537708  68.8313961  40.4956675  36.5116715
  68.8604689  40.4166031  38.0229259  82.9419804  68.9360666  16.5586424
  82.9073429  68.1487226  17.1018946  83.6547470  69.4540024  16.9327283
  61.1350107  33.7529850   4.4999921  61.4493418  32.9890895   4.0163720
  60.7290602  34.3077564   3.8339105  64.9806786  61.9361210  16.2764645
  65.5273151  62.6203823  15.8901894  64.1289091  62.0424128  15.8528817
  28.7534834  10.4514922  17.8191042  28.1259466  11.1204756  17.5454557
  29.5178629  10.9464491  18.1140137  44.9361372  76.3817167  51.1907434
  45.1100731  75.7907057  50.4581594  45.7791996  76.7993784  51.3669109
  57.8658104  31.9525099   2.1341355  57.9245806  32.7620196   2.6415512
  57.8398085  32.2427082   1.2223566  79.9285793  57.1263361  60.2239561
  79.2466688  57.0348883  59.5584726  80.7384014  57.2303104  59.7243500
  86.8816948  42.0507050  26.2242961  85.9471607  42.0067120  26.4266276
  87.2835064  42.3949480  27.0219636   0.3320623  75.1837063  38.0582643
   0.4799390  75.8993769  37.4400568  -0.4861712  75.4130316  38.4988666
  76.0261774  65.0099230  19.9421751  75.1646137  64.9250793  19.5338333
  75.8445787  65.3616810  20.8136797  69.9556541  72.9051733  67.8596640
  70.0911188  73.8524103  67.8846359  69.6311426  72.6865196  68.7332296
  62.6458931   1.7816580  10.4715359  62.8812623   1.2025393   9.7466522
  62.2070980   2.5225295  10.0534427  33.6234045   1.8708917  60.8163790
  33.2298612   2.3428031  61.5503113  33.1066274   1.0685464  60.7428078
  65.5552149  53.8680506  16.2104785  64.9468803  53.6184025  16.9060600
  65.0556946  54.4717312  15.6606805  51.6530371  81.6227722  15.3686619
  52.2356701  81.0644817  14.8538041  52.1736383  81.8727493  16.1320221
  68.1639338  72.9889774  34.7468495  68.9424753  73.5101557  34.9429965
  68.4935904  72.0966482  34.6405458  56.9116402  67.2771263  50.1615524
  56.7194748  67.0427132  49.2536116  57.8670597  67.2582102  50.2167273
  60.0573206  76.7337656  39.7559333  60.8852434  76.6344500  40.2259541
  59.9443388  77.6801205  39.6671486  68.0758953  50.0992680  51.6481304
  67.2619629  49.8111057  51.2349701  68.1688404  51.0139990  51.3819313
  39.9407244  80.4396629  37.7684402  39.5651674  79.5895004  37.5395226
  40.8316755  80.4096317  37.4198270  72.4575997   8.2352007   6.5453839
  72.6196146   9.1694106   6.4140886  71.6295147   8.2007063   7.0242560
  56.1313820  80.5176926  36.1699486  56.3244438  79.5962381  36.3428211
  55.2145290  80.6221199  36.4243221  16.4987516  79.2157459  26.6281676
  16.4406240  78.2737637  26.4684010  16.2769842  79.3157959  27.5539327
  34.2430973  24.7013494  43.0302278  34.3448114  25.5641767  43.4319894
  34.2126560  24.0947457  43.7700479  50.2634287  55.4723024  25.9517145
  49.9221945  55.0117159  25.1851273  51.2143564  55.3960466  25.8733082
  73.8681603  17.3734988  18.1316268  74.4119835  17.0659960  17.4064136
  74.4506836  17.3583354  18.8910115  63.3407688  58.2935047  68.9154577
  63.2075071  58.3921480  67.9727268  64.2912436  58.3154249  69.0265799
  75.8627462  60.4655886  69.2201614  76.2834311  61.2500906  69.5720291
  76.5580177  59.8078966  69.2037106  65.1588202  53.5358810  28.4596705
  65.6547546  53.0837536  27.7771306  65.8145571  54.0483189  28.9325762
  76.3897848  40.7581377  45.7098627  76.6408062  40.6222391  44.7962141
  75.5360651  40.3326464  45.7895231  57.6941824  65.2066183  15.6388378
  57.3118258  65.3740692  16.5002298  58.0340815  64.3137026  15.6971395
  43.7226391  54.8709440  20.5083084  43.8200903  54.9186039  21.4593410
  42.7775383  54.9112606  20.3620648  68.1518698  19.7081889   6.8427670
  67.6718307  19.8717631   6.0309553  67.8872180  20.4202498   7.4251431
  60.7754040  54.8696518  35.0903702  61.3143492  54.5148897  34.3833280
  61.2735128  54.6854496  35.8867311  50.6419563  54.0839243   4.2625186
  50.7545090  54.8108721   4.8749804  50.6327391  53.3033180   4.8164117
  57.0470858  68.1257725  20.4677343  57.2511530  68.5282087  19.6235573
  56.0992002  68.2244587  20.5572152  56.2106228  56.0695267  46.7199421
  55.7148504  55.7803583  45.9539032  56.1249447  57.0228720  46.7148018
  46.8572378  56.7371559  18.7601507  46.7296314  57.1829128  19.5975554
  47.7696514  56.4484167  18.7791097  63.0613899  77.0593023  55.6732750
  63.6136055  76.5791750  55.0562096  62.9491949  76.4597130  56.4109325
  40.5361582  16.0195510   6.1431392  41.1470486  15.3059594   5.9592088
  41.0091521  16.8115680   5.8877643  66.0929823  58.3322144  23.3080578
  66.8420076  58.8028288  22.9423881  65.3925371  58.4633160  22.6689792
  62.6625776  47.3380327  47.4978161  63.6050224  47.4959564  47.4422121
  62.2646666  48.1624079  47.2179937  72.2534752  55.6339979  16.0203040
  72.5344419  55.6717873  16.9345582  71.4511967  56.1554575  15.9945428
  60.4069757  54.6243382  43.6203146  59.4517136  54.6146822  43.6804056
  60.6764555  55.3342485  44.2031097  41.3219477  30.0446261  15.6846011
  40.9763170  29.7245635  14.8513317  42.0994783  29.5092524  15.8428574
  16.1617828   2.4946917  27.2394013  15.5886341   3.0526103  27.7651906
  15.6946016   1.6614855  27.1782255  73.2929897  52.1733475  26.9330025
  73.6896038  51.3032532  26.9761586  72.5690699  52.1378613  27.5582361
  28.9247894  65.6837702  45.9181023  28.8203406  65.9724712  45.0114775
  29.6555591  65.0661755  45.8901215  57.6973104  69.0743685  56.9141531
  57.2825384  68.8548899  56.0798740  57.0405960  69.5928526  57.3790503
  30.7534217  51.9668075  68.7368454  30.7395553  52.5642272  69.4845961
  30.4275322  52.4911090  68.0053119  62.6850939  64.7118664  42.3566675
  62.6499987  64.5056295  41.4226055  62.5642586  63.8684511  42.7928782
  82.7338505  72.3592091   4.2238793  83.4382534  72.7499390   3.7067875
  83.1783295  71.9630718   4.9733815  26.4691496  71.5090084  26.8638086
  27.2665215  72.0111847  27.0318747  26.0785985  71.9290686  26.0974884
  58.9361238  76.8684864   3.8702118  58.8110828  77.4780321   3.1428537
  58.0854225  76.4422512   3.9744565  18.0153703  74.5253642  67.3567270
  17.3935508  73.7976463  67.3566963  18.0005121  74.8530586  68.2559635
  83.8671684  72.8027105  22.4693298  84.5495701  72.7288723  21.8021631
  84.3041801  73.2154083  23.2142735  61.6445732  78.3525515  66.6903543
  62.0862818  77.7050066  66.1409807  61.9289637  79.1970778  66.3408804
  52.1403837  61.8045712  50.1223898  52.5257683  61.3658381  50.8808231
  51.7969179  62.6273775  50.4706049   1.0249639  61.2630272  55.8531904
   0.1160837  61.1297321  56.1222649   0.9746194  61.4244270  54.9110413
  62.6159763  75.4756117  57.6823568  63.0870533  75.8061457  58.4472561
  63.1431723  74.7373390  57.3769808  72.6778603  71.4847803   1.9012426
  72.7724552  70.5483723   2.0756450  73.4732103  71.8770504   2.2614834
  60.1052237  74.1877699  48.9589548  60.4944086  74.9852133  48.6000061
  60.7935667  73.5276413  48.8774347  11.9611383  77.5779009  20.0061774
  12.5466466  78.0649805  19.4263709  11.4091135  77.0665503  19.4145620
  -0.1441931  70.4352331  41.1806107  -0.0000071  69.8256445  40.4568386
   0.3270555  71.2278032  40.9237051  62.8529787  72.8187656  61.6037226
  63.0778456  73.1277227  60.7261038  61.9045210  72.9337358  61.6624069
  20.4865576   8.3529604  12.4324143  21.2331606   7.7867068  12.2370374
  19.9580170   7.8477896  13.0502152  11.9018770  75.6241131  24.9922371
  12.7993036  75.9286737  25.1267552  11.4173532  75.9675026  25.7429409
   3.4008337  63.6409330  31.8698668   3.8808656  64.4687605  31.8922305
   3.4283376  63.3728552  30.9513855  81.1178398  70.2202034  27.9487371
  80.5147934  69.5615339  28.2932997  81.9653702  69.7763586  27.9182482
  37.8861928  73.9686251  49.0442896  37.5321984  74.8556376  49.1085243
  37.6870155  73.6955214  48.1487560  11.2612224   3.9955939  26.7850661
  11.7723108   3.2075633  26.6006088  10.4283357   3.8514842  26.3358855
  29.3937778  76.7386627  26.4699268  29.0955806  77.4281597  25.8767152
  28.6358476  76.1622286  26.5674019  53.5273457  64.4254780   8.3054733
  53.8571072  64.2860317   7.4177539  54.2436123  64.1430187   8.8741696
  38.7537909  11.4465464  30.5044675  38.8113237  12.4008978  30.5507517
  37.9266936  11.2780703  30.0530696  29.1355730   3.5184325  15.6540227
  29.0186716   3.9643420  16.4929104  30.0324465   3.7286890  15.3939521
  39.3697023  39.0448304  68.5367898  39.9946022  38.7384864  69.1939707
  39.6986675  39.9051067  68.2761435  48.6130810  81.5346909  37.9276085
  48.4236431  82.2935009  38.4794736  48.5880613  80.7896423  38.5280275
  29.0423226  78.7283945  52.6854467  29.6110773  79.2872000  52.1558380
  29.1467905  77.8546953  52.3086596  46.2309885  81.1109829  62.5481415
  46.1878777  81.5583420  63.3932686  46.6746140  80.2841282  62.7371836
  35.6948900  73.2922697  31.2552023  36.2230301  73.0991459  32.0298004
  35.5274510  72.4366570  30.8600736  72.1222925  65.7275915  37.1205854
  71.9486523  65.1323032  37.8497696  73.0513859  65.6038427  36.9263983
  69.8466253  58.6632919  31.0276127  69.2551374  58.5213041  31.7666745
  70.6777287  58.9142132  31.4307666  11.0908819  56.5645313   8.6018312
  11.7958856  56.1325216   9.0840876  10.4236818  55.8866167   8.4945208
  68.8818216  48.9712954  46.3790989  67.9623842  49.2372608  46.3905001
  69.2547941  49.3648672  47.1679115  39.0436339  71.2838364  36.2380457
  39.5853615  71.8984556  36.7330289  39.6699929  70.7661486  35.7321739
  38.5488557  36.4400741  67.8252657  38.0020237  36.3759013  68.6082668
  38.8646316  37.3436853  67.8270562  68.7373161  72.8675938  54.7053099
  69.5709419  72.6460838  54.2902946  68.9034319  73.7004566  55.1468658
  69.5657015  59.7773123  13.2243812  69.2060423  60.4087257  12.6013255
  70.4702091  60.0608110  13.3575177  59.5595551  69.2468500  17.7749789
  59.8966646  70.1184082  17.5676632  58.8179350  69.1294384  17.1813059
   0.6746603   3.8236464  37.3075509   0.3055883   3.1991518  36.6830301
   0.6379772   4.6658553  36.8541574   3.6275793  36.2623048   3.2383934
   4.3575120  36.7819381   2.9016253   2.8705621  36.5560246   2.7315575
  33.5020399  22.4307796  63.0770068  33.2919216  21.7402240  63.7056689
  33.0140400  22.1934196  62.2884957  13.7214304   1.4269389  48.0568886
  14.0555979   1.5186251  47.1646118  13.7240959   2.3180521  48.4063911
  66.5325117  53.5205889  23.1400561  67.4297953  53.7802982  22.9310942
  66.5202665  52.5728083  23.0066562  70.4791975  50.3217459  60.1531887
  70.5569887  50.5529356  59.2275906  70.1327610  51.1112690  60.5689621
  65.0908089  39.5390439  61.3259172  65.6372738  38.8681984  61.7352772
  65.7127047  40.1942635  61.0094357  72.5934172  54.3535614  32.5157714
  71.8797207  53.7192535  32.4485469  73.1139565  54.2131281  31.7248535
  64.4699144  67.5837135  55.2248001  64.8993540  67.6234007  56.0793400
  63.7837744  68.2495689  55.2704000   8.0803753  10.8671988   5.4650229
   7.3180033  10.9330977   6.0400718   7.7695061  10.3650225   4.7117528
  58.4812498  75.4620790  12.4643052  59.2378139  74.8838186  12.5615573
  58.4103441  75.6070995  11.5208161  47.2453308  75.6345129  55.0288582
  46.9117355  74.8052883  55.3713942  46.8379402  76.3026094  55.5801392
  43.4465265  49.5552826  33.2292938  42.8336525  49.0623760  33.7748790
  42.8927040  49.9948311  32.5840712  62.5540567  17.0289839   4.3566492
  63.0097342  16.2208212   4.5921376  61.6252709  16.8015517   4.3998027
  26.8054272  29.4129388  12.3869355  26.7010046  28.5478465  12.7830918
  26.2949539  29.3693034  11.5783914  50.6530714  37.4840474  11.9459808
  50.7307768  37.0150495  11.1151767  50.3513050  38.3585119  11.7000628
  60.0439287  16.5635050   4.6175113  59.4150472  15.8606566   4.7810343
  59.5419765  17.2295130   4.1477132  34.9116325  80.0941467  63.0987501
  35.2177548  79.7239780  62.2708035  33.9571214  80.0493908  63.0427456
  20.2069641   3.8473357  23.0285931  20.3933073   3.2788599  22.2813725
  20.3223110   4.7348059  22.6889920  34.6738267  44.7803688  16.6415024
  34.6384358  44.5276833  15.7189369  35.4764342  45.2963352  16.7178953
  66.1964273  74.1825342  47.7100325  66.1864519  73.2440186  47.8979540
  65.6437159  74.5687294  48.3894396  34.1748358  12.2409762  30.8308053
  33.2445646  12.4409903  30.9348321  34.5079065  12.1783007  31.7259955
  65.2118898   3.5754813  37.1822524  65.9811664   3.0677069  36.9241762
  64.4907022   3.1854380  36.6883016   3.8389088  -0.1922094  38.1372213
   4.6586872  -0.2909624  38.6214232   3.5835338   0.7188834  38.2819128
  60.6119347  48.4176779  44.6157312  59.8561001  48.4407282  44.0288639
  60.5183077  49.2010689  45.1577330  80.3640175  64.1235065  27.3161149
  79.7830200  64.8290110  27.6005960  80.7575512  64.4490671  26.5065622
  63.3883667  35.1406646  24.1157269  62.9541826  35.9391260  23.8154316
  62.7036715  34.6536684  24.5742631  49.6327543  74.2973614  23.3457398
  49.3113756  74.8004007  24.0940046  50.5260658  74.6134806  23.2105064
  22.2604013  15.3164519  11.4520538  21.8160797  15.1007975  10.6321132
  22.7164293  16.1377848  11.2685263  72.5384808  77.0707178  11.4970124
  73.3060455  77.4920130  11.1102545  72.1525192  76.5699577  10.7783282
  35.0482082  56.5916157  17.3269510  35.9700656  56.3374710  17.3696196
  34.5969629  55.8053303  17.0197654  38.1544995  46.9283438  29.0062451
  38.6571598  47.6520205  28.6322713  38.7650728  46.1912012  29.0135026
  70.1937628  46.2194586  37.9753041  69.4612265  46.7781496  37.7155304
  69.8871088  45.3285551  37.8065324  76.5793944   4.6026457  30.1757407
  76.2958432   5.2519835  29.5321679  75.8580399   4.5564974  30.8032322
  47.0662689  54.2853165  39.1093159  46.1996174  54.1086769  38.7433314
  47.3737907  53.4333086  39.4187379  60.0683641  61.5355873  40.0433302
  59.1520262  61.2628984  40.0902033  60.5645561  60.7461166  40.2595854
  86.7929554  19.5691908  42.8591061  86.8499661  19.6588839  41.9078255
  85.9015990  19.8450411  43.0727005  13.5119415  19.5582427   1.5319046
  13.8085867  20.4679717   1.5067707  12.6519752  19.5750464   1.1118933
  60.0436449  67.1436882  23.1399369  59.6927881  66.6946077  23.9090014
  60.0780535  66.4678955  22.4629188  13.2356430   1.8063868  56.2665319
  13.1273676   0.8584059  56.3429403  13.2146812   1.9746912  55.3244781
  81.9574451  76.0924435  29.0314364  82.1897507  76.1818314  28.1071663
  81.0564327  76.4112949  29.0838575  47.2910906   1.1451663  27.5091004
  46.9384027   0.9804381  28.3835816  47.4654413   0.2738894  27.1531367
  52.7865839  74.9301910  31.2820697  53.2123661  75.5075645  30.6483698
  52.2775459  75.5194664  31.8387270  62.6804447  76.7726040   1.5662062
  62.8043699  76.0018492   1.0123021  63.5683584  77.0672703   1.7687280
  59.2365456  71.1252880  25.7520533  59.6458292  71.8225145  26.2644982
  59.6451998  71.1909342  24.8889637  64.7401237  69.4790030   5.3747177
  64.7443295  68.5836744   5.7132411  64.6957397  69.3754578   4.4241706
  58.1909395  12.3289813   8.8685763  58.6748815  11.7448176   9.4523418
  57.4399210  11.8105734   8.5796881  46.7324209  76.3552523  34.4699192
  47.0936155  76.5639830  35.3314304  47.4911213  76.3527822  33.8863111
  81.2529373  75.1687670   3.1496978  81.2646866  74.2117262   3.1626007
  80.9268856  75.3925657   2.2780129  84.1962051  22.9348183  22.1244788
  83.4572601  23.2604194  22.6384640  84.3131256  22.0315146  22.4187636
  60.5698633  64.2651415  26.0330367  61.1451101  65.0291872  25.9935617
  60.6680584  63.8469553  25.1776385  84.8637581  77.3635674  42.4219704
  84.7964287  77.0031118  41.5377951  83.9571476  77.4384212  42.7197838
  23.0530573   1.6079749   8.4040308  22.4053217   1.2398470   7.8030801
  23.1674505   2.5113142   8.1088674  30.4462458  39.7984474   0.6996043
  30.5724932  39.8679702   1.6458924  29.5048071  39.6622627   0.5929406
  53.5182190  58.9383984  35.4514289  52.7040720  58.6913204  35.0128508
  53.7090826  58.2032776  36.0340047  57.1212101  72.0699167  28.2406569
  57.9903078  72.2517347  28.5982060  56.5162039  72.3512840  28.9269757
  47.0445776  69.7512484  54.2588949  46.2978935  70.0675821  54.7674417
  46.6883087  69.5901489  53.3851910  41.1168505  11.5714205  10.7717681
  40.9852815  12.4891699  11.0098124  42.0438696  11.4091815  10.9465623
  28.0683660  65.3760215  65.7071821  27.5193500  64.8918029  65.0904624
  28.3929538  66.1226436  65.2037589  11.9334054  55.7771254   5.9164310
  11.9380117  56.4058495   5.1946837  11.4860177  56.2336683   6.6289240
  24.5245386  18.2227934  63.6458588  25.0474192  17.4541796  63.8740015
  23.6601091  17.8702487  63.4344244  54.9742342  17.4161280  63.8372993
  54.5548368  17.3606432  62.9786634  54.2484785  17.5255908  64.4517279
  60.2360725  54.2716837  30.5808973  60.5512285  55.1741982  30.6296086
  61.0010910  53.7652493  30.3079343   7.3766208  21.0230101  12.5714624
   7.9411293  21.4700163  13.2021344   7.5109411  21.4977587  11.7512190
  50.0503635  75.2783394  44.2291307  49.2292261  74.8013353  44.3492794
  50.3006840  75.0997305  43.3226681  66.3357162  60.3664064  56.1650801
  66.0450506  59.4549894  56.1977005  65.6017923  60.8379030  55.7710266
  80.3242493  68.0928183  37.7603602  79.6171045  67.9965925  38.3982635
  80.6214619  67.1980000  37.5954533  68.2960939  52.2416687  46.7596865
  68.7694359  52.3488188  45.9346437  68.9411497  52.4518347  47.4349403
   6.5351797  66.5536070  22.3244953   6.3372064  65.6171036  22.3271394
   6.5220571  66.7985773  21.3992667  62.7007532  45.7568073  20.7313418
  63.2078791  44.9458361  20.7684803  61.8257523  45.4798889  20.4594493
  76.2259245  47.3625135  28.3404231  75.8023453  48.2032061  28.1670690
  77.1624708  47.5601387  28.3329201  80.3532600  75.4494333  25.6516743
  79.9480391  76.3134670  25.5776882  79.7544146  74.9508429  26.2075758
   5.3403498   5.5261649  48.6234808   4.8310495   6.3083876  48.4113932
   4.9188495   5.1707972  49.4059610  11.1186815  80.5291271   8.6283296
  11.9695688  80.2031136   8.3351803  11.3299394  81.2465858   9.2257029
   1.0742116  42.0180178  28.8821363   1.8067193  41.4245844  29.0479755
   0.3086400  41.5541124  29.2211628  17.2558285   7.5992716  48.2054996
  18.1187178   7.3794306  48.5566759  16.9173933   6.7709006  47.8656578
  66.9303155  11.7153014  40.8735943  67.7814389  11.2904204  40.7673216
  66.8661285  12.3126925  40.1284504  22.7967764   7.4538458  15.1518786
  23.4669901   6.9519747  15.6157327  22.0849109   6.8296660  15.0108564
   0.6677270  78.6030579  19.1232240   1.2162996  78.0459452  18.5710263
   1.1845232  78.7357616  19.9179208  62.7490234  70.2956724  67.9610872
  63.6977768  70.3066826  67.8347111  62.3994589  70.7419205  67.1897936
  80.9850597  50.9907293  44.3376780  80.1351452  50.9570694  44.7767019
  80.8500957  51.5852976  43.5997725  67.8973532  40.1750517  17.9585147
  67.7183962  39.9289656  17.0509648  67.0397806  40.1628351  18.3835471
  10.2341963  28.2632674  18.4236562  10.7518125  27.4686373  18.5535133
  10.6513334  28.7023772  17.6824307  54.2344284  51.1692210  66.1676515
  54.5905494  50.9275409  67.0226370  53.3015346  50.9641906  66.2301244
   6.4406420  80.2273539   0.7246812   7.1112610  80.7143024   1.2036212
   6.9259287  79.7503260   0.0514968  40.9360720   6.7939890  38.2817006
  40.4033781   7.4730719  37.8677845  41.7265249   6.7485655  37.7437854
  76.8483950  31.1579053   0.7471545  76.7394568  31.0677163  -0.1995389
  77.5550104  30.5503814   0.9658893  40.5556726  78.6647388  57.3986618
  41.2961816  78.2603618  56.9466047  39.8186350  78.0803367  57.2212486
  57.3096371  71.2498713  44.4572353  57.4520969  70.6933498  43.6915827
  57.3706722  72.1431398  44.1187429  53.8792944  64.4078159  24.8648310
  54.7402477  64.7175074  24.5836210  53.3033133  64.5959091  24.1238165
  78.1985331  70.3242445   6.5273178  78.8627863  70.8438063   6.9801486
  78.3755922  70.4669905   5.5975294  26.3350057  16.3073321  68.5443002
  27.0735359  16.8585464  68.2855229  25.6664753  16.9256135  68.8392956
  14.9094511  25.4339255  20.6609035  15.0421787  24.6804751  20.0856495
  15.1409078  25.1134146  21.5326452  74.0927744  70.4960012  36.6453004
  73.9171600  69.7720575  36.0442209  75.0284529  70.6702709  36.5434527
  81.0401535  42.6792574  43.4345055  81.3737965  42.9703045  42.5858593
  81.8231964  42.5627136  43.9725447  47.9911613  21.9132682  61.5713660
  48.3871841  22.1013137  60.7204620  47.8083372  22.7748796  61.9461177
  81.9192219  79.3623495  40.0028706  82.0892620  79.3360186  40.9444809
  81.8607903  78.4426069  39.7442293  77.7774096  12.9755534  27.5873542
  78.6402369  13.3546866  27.4199700  77.3955489  13.5375441  28.2615781
  41.1037540  64.5385742  17.7913642  40.4618740  64.5117283  18.5009432
  40.7405806  65.1630449  17.1633732  36.9082164  40.2592918  68.6777873
  36.2974119  39.6852847  69.1400312  37.7391147  39.7842189  68.6898213
  30.6677557  12.1892680  39.2511344  30.7697607  11.7976321  38.3836985
  31.5472723  12.4859560  39.4849157   8.9486576   7.0726050   7.7434826
   8.9236427   6.2827719   7.2033197   9.3865991   7.7238120   7.1954280
  11.3846660   4.1393794  61.9249630  11.3623548   5.0961531  61.9070673
  11.7579676   3.8926447  61.0787964  76.5161848  80.7199383  23.1636763
  76.3067293  79.9626923  23.7104321  76.2243557  80.4703426  22.2868824
  40.6039930  11.5610922  57.3576117  39.8954798  11.4857615  57.9968023
  40.1832891  11.3981760  56.5134001  16.3326097  19.2542780  61.9807863
  16.0262943  18.8131560  62.7731276  16.6723705  18.5489214  61.4300919
  76.3556433  72.7720165  49.4086218  77.0549202  73.3913469  49.6175957
  76.2287426  72.2728825  50.2154636   1.0280157  58.5128164   9.7092223
   1.8228651  58.5493898   9.1771460   0.4943395  59.2417955   9.3929750
   1.5637327  69.7351837  34.2287946   0.8564687  69.0928078  34.1707516
   1.6292882  69.9355412  35.1624918   9.8605753   3.5818995  19.1866875
   9.5228935   2.7220858  19.4375372  10.8084036   3.5089530  19.2986476
   9.2845989   8.7604369  27.3147798   8.6897159   9.2557276  26.7517161
   8.7077833   8.2787074  27.9076099  70.1202917  79.6848965  16.6101468
  70.7076311  80.3696251  16.2901282  70.3101873  78.9280748  16.0557163
  38.6322523  11.6730917   7.3243809  38.4863211  11.3776053   8.2230604
  37.9257608  12.2976340   7.1599019  85.2601217  80.1153047  68.5586224
  84.6983026  80.4769213  67.8731851  84.7862695  79.3465240  68.8759063
  57.2401142  55.8871508  23.9276910  57.1577215  55.4642963  24.7824669
  57.9496431  56.5196180  24.0407515  17.8191543  26.9946803  20.3439331
  17.7828384  27.8793562  20.7075977  16.9021726  26.7425765  20.2352285
  13.4859587  21.1024607  19.1806519  13.9222694  20.9546603  20.0197101
  12.5807072  21.3077868  19.4143140  70.0648308  58.5741901  51.4639282
  70.1630783  57.6986122  51.0898399  70.8649111  59.0342617  51.2100840
  73.5558081  74.5950460  41.3875484  73.1823349  75.3551054  41.8337059
  74.1819620  74.2330408  42.0145369  78.8727045  80.8511829  25.4184055
  77.9425621  80.9722614  25.2276063  79.3073511  80.9647751  24.5731783
  67.4381256  40.8633900  34.8459864  67.3393631  41.7139053  34.4180799
  67.4669123  40.2344370  34.1249990  11.3131261  78.4988546  43.0149317
  11.2565446  78.0241060  42.1856928  11.9981695  79.1516924  42.8709030
  63.0012465  65.6680965  28.1558990  62.7763081  66.5914059  28.0412602
  62.4578094  65.3783798  28.8886786   7.9772688   0.4504050  53.6196184
   8.6864925   1.0250605  53.9077187   7.3224903   1.0439242  53.2518816
   1.7722441  30.2243460  36.8080616   2.3664738  29.9963702  37.5230074
   1.0159326  29.6511496  36.9332194   2.7254510  23.1690379  70.7407353
   3.0410146  22.3103782  70.4590382   2.3040318  23.5361072  69.9636251
  37.7931380  71.1318016   5.0705391  38.3216214  70.9552145   5.8488423
  37.0472646  70.5368328   5.1474482  73.0227900  63.8114071  17.8181171
  73.3908558  64.6946764  17.8424227  72.8423929  63.6525202  16.8915951
  40.0485802  70.4890585  31.9166207  40.9212685  70.3515482  31.5482044
  39.6841002  69.6083212  32.0042849  55.3083467  65.1893473  48.3314610
  56.1909056  65.5578423  48.2923937  55.0713539  65.0378036  47.4165297
  45.8676935  48.3713977   8.1103738  46.4407231  47.6702659   8.4206660
  46.4572741  48.9883392   7.6767715  32.5288606  20.8432044  21.1748242
  33.2676340  20.3998412  21.5918064  31.7629934  20.5464018  21.6663337
  72.9565573  48.2672167  29.1946220  73.5490036  48.9784813  28.9510298
  73.4881306  47.6897573  29.7425318  56.4200163  69.6052647  46.2183332
  56.6285944  70.2181578  45.5132914  56.4029551  68.7478638  45.7931232
  83.0325413  45.3666687  44.7515249  83.2133293  46.0877943  44.1485977
  83.1465721  44.5774508  44.2220306  75.9881163  70.6740952  34.0781426
  76.3097048  70.6820011  34.9796700  75.2472496  71.2801743  34.0828013
  47.7623320  61.3585567  21.0025024  47.5615215  61.8428326  21.8033648
  47.4746561  61.9356871  20.2951145  49.4298172  62.2617674  30.4256487
  49.1915846  62.4082756  29.5102167  48.6546898  61.8548059  30.8126760
  73.8044500  72.7749825  13.5312128  74.0384817  71.9085598  13.1983888
  73.0633736  72.6149559  14.1155326  86.7385340  10.3076495  10.4156101
  86.5604210   9.4839800  10.8695781  85.9278441  10.8091296  10.5024040
  51.0396004  59.8602295  44.2361355  50.8140945  60.4547882  44.9515915
  50.2158022  59.4240856  44.0184832  79.0193844  19.2992915  40.6648445
  78.0777264  19.1302622  40.6341600  79.2361117  19.2790545  41.5969658
  21.6610265  45.6965542  21.0051131  21.5087343  45.3261185  21.8744898
  21.0795618  46.4557362  20.9630227  13.7964941  14.7236193   8.9779592
  13.6479355  15.3001727   9.7274578  14.6339537  14.2992438   9.1645175
  34.2620039  49.2307731  64.8944126  33.8611936  49.3403693  64.0321044
  34.5427847  48.3158847  64.9134926  76.8052769  50.3089094  37.3862624
  77.6408100  50.7758284  37.3758531  76.5856504  50.1903152  36.4621782
   2.5236631  10.0915278  21.7427874   1.9756294  10.0945605  22.5275731
   2.2903086  10.8988894  21.2845874   2.2074533  17.4220599  32.3780513
   2.6814724  16.7849101  32.9124403   2.1686960  18.2089652  32.9216528
  59.5722818  78.9492798  17.2783637  59.4188690  79.7839165  16.8355620
  60.5238581  78.8458920  17.2715533  64.6438074  71.4675665  39.2054510
  64.8356199  72.2986603  39.6398735  64.6238947  71.6836262  38.2731676
   9.8303753  76.5204811  44.8615074   9.9933195  76.1447573  45.7266712
  10.4010916  77.2879314  44.8223209  66.8212938  48.5282326  16.1018693
  67.2611475  49.2738485  15.6934464  67.3539591  48.3281469  16.8715858
   2.9599023  62.6320791  29.2323017   2.3294473  63.2017088  28.7915373
   3.2705904  62.0420837  28.5455608  34.6749425  78.6652803  39.0050030
  34.6717572  78.8672972  39.9406385  35.1728320  79.3796158  38.6074328
  25.0623632  79.8825884  18.0371356  25.5784822  80.6391048  17.7586663
  24.1788793  80.0643444  17.7167487  41.8976999  22.2006262  31.1474586
  41.8109442  22.3975981  30.2147698  42.1607614  23.0310763  31.5441775
  64.7361803  54.6529055  56.4688969  64.9908781  53.7906694  56.7973995
  64.3075609  54.4733667  55.6320715  30.3349424  74.3807316  63.0415535
  29.7797895  74.5262289  62.2754812  30.6011796  75.2586746  63.3146286
   2.2940374  69.2593431   8.8426447   1.6129804  69.9248409   8.7451416
   2.4171281  68.9114189   7.9594529  83.9317799  81.1774731  20.9712720
  83.4489632  80.4092312  20.6664324  84.7133064  81.2037849  20.4192209
  11.0825945   1.0476531  47.2997093  10.8117557   1.9580306  47.1810341
  12.0235515   1.0977019  47.4680138  59.2654705  62.6971102  20.7681561
  58.6572218  62.0069408  21.0326004  59.8839092  62.2599697  20.1827765
  79.3924665  57.6744604  30.6109524  80.0619030  57.1300697  31.0253596
  79.5204782  57.5383711  29.6721625  17.4351192   8.5125102  44.0529013
  17.8650976   7.8755129  43.4823084  18.0266882   8.6024989  44.8000193
  65.4296470   6.0568465  21.0298014  65.7093597   5.4774035  21.7384958
  66.2330366   6.2486876  20.5460715  81.1524582  65.7185936  25.3541946
  80.7524014  66.5026522  25.7302809  80.9397793  65.7647896  24.4220638
   8.1692434  37.5086630  24.6694183   8.2493091  36.7161025  25.2001524
   7.2659326  37.4948443  24.3530798  70.9950637  25.5612060  43.7019388
  71.8087196  25.9057351  43.3338348  70.4063320  26.3154431  43.7293474
  81.6724396   2.3628558  16.5541756  81.3806677   2.9588259  17.2440457
  81.5417052   2.8534640  15.7427299   7.0078779  16.4217890  43.4570026
   6.6128946  15.6957663  42.9741716   7.1519256  16.0739268  44.3370485
  77.0445252  14.1701640  58.7700319  76.3015080  14.2428339  59.3690968
  76.7035962  14.4715823  57.9279232  29.0396524  23.6273802   9.8336786
  29.2298723  24.0948809  10.6470001  28.1020857  23.4398879   9.8788369
  72.4808645  62.9788637  38.1999826  73.0415344  63.6471987  38.5939479
  72.9747248  62.6690340  37.4408126  75.9671498   2.9091013  18.9736164
  76.9012070   2.7736701  19.1330588  75.7743216   2.3693980  18.2069540
  68.7656736  74.7619820   9.8537958  68.2070827  74.2670822   9.2543930
  68.1543064  75.2736616  10.3835499  36.7410494   1.2141837  40.6717491
  37.2054029   1.0283125  41.4878702  37.2295309   0.7335795  40.0034380
  32.1238495  73.5430877   1.2993796  32.7889658  73.2358615   0.6833728
  32.2522665  73.0033367   2.0793899  71.3885164  29.9839520  63.6310911
  71.0077620  29.6894670  62.8037214  71.9045162  30.7551908  63.3962154
  79.4037653  12.8207939  14.5972379  79.0310312  12.6663558  15.4652532
  78.9639975  12.1862619  14.0313752  75.8987331  63.8058949  67.9532671
  76.1570549  64.5238495  67.3753023  75.5609608  63.1326294  67.3626280
  21.2136078  26.1566182  60.2080314  20.8629369  26.3004848  61.0869877
  20.7129669  26.7517968  59.6500437  51.6428232  74.5265961  51.6504049
  51.2316322  75.2290773  52.1540689  51.2297297  73.7261868  51.9743395
  55.6531572  58.9096594  44.0053225  55.9047937  59.5983744  43.3900309
  56.3534069  58.2605696  43.9377642  17.5977754  71.7397677  48.0780172
  16.6989565  71.9717883  48.3115101  17.9959774  71.4635502  48.9034653
  35.1130300  32.3042329  67.5702528  34.6091120  32.0172538  68.3317919
  35.4056059  31.4920516  67.1567406  42.9198097  67.0958268  32.4982667
  43.2170581  66.2567388  32.1464014  42.7259838  66.9147169  33.4179735
  12.3252153  16.0480726  30.2074647  11.5995252  15.6473243  29.7289181
  12.9975033  15.3673506  30.2371097  67.0702796  76.1871259  11.4630389
  66.3168191  75.9996848  10.9032214  66.9174915  77.0772471  11.7801690
  80.0535845  28.6209090  69.1101530  80.7943319  28.8632615  68.5544619
  80.4102968  28.6213179  69.9984030  52.7934932  25.9604986  42.3466436
  52.4909161  25.0532050  42.3853723  52.3126601  26.3421924  41.6122477
  50.9994667  68.3749520  15.6104159  50.9192663  68.1267213  16.5313840
  50.2503210  68.9490544  15.4509830  65.5327867  20.4330905  66.6907219
  64.6355723  20.6632478  66.9321047  65.5671715  20.5647190  65.7432394
  36.8822204  47.4863471  69.1083233  37.5226204  46.8365522  69.3979548
  37.3827075  48.2987816  69.0328589  20.2155328   7.9286438  28.7559438
  19.6027195   8.1873167  28.0676270  20.3509641   8.7259072  29.2680573
  38.5626434  52.7756797  24.3517971  39.2942452  52.8369628  24.9659920
  38.9141153  52.2850834  23.6088204  29.1085052  80.4879031  25.5860400
  29.5944166  79.7990074  25.1326728  28.2260275  80.4402179  25.2183580
  42.6607561   0.9932479  32.6190901  42.2962904   0.2406690  32.1532297
  43.2688951   1.3896000  31.9951463   9.3173527  66.9067203  31.7025900
   8.7436294  66.9099473  32.4687886   8.7895417  66.5095805  31.0098219
  50.9790014  41.7104476  66.8116824  51.5346097  42.4438278  66.5477054
  50.9670113  41.1323498  66.0488648  38.9716469  45.2696253  69.4535705
  39.0093361  45.1293732  68.5074518  39.8863958  45.2521162  69.7349234
  16.8584967  10.2007759  29.7524858  17.0226657  11.0964370  29.4574070
  17.0275116   9.6597177  28.9811730  43.7585688   3.3865947  35.3676629
  42.9928493   2.8364578  35.5327535  43.8976049   3.8565463  36.1898851
   5.6015992  70.0841903  30.2922726   4.9869275  69.6948217  30.9142089
   6.1877632  69.3661427  30.0534248  53.2382392  21.6032859  65.8933727
  54.0097614  21.3557645  66.4029972  53.2323467  22.5601741  65.9171901
  16.7005277  36.2571073  26.0193801  17.3335230  36.1541319  25.3087854
  16.8064260  35.4679847  26.5507030  48.9227520  45.3271209  63.0304532
  49.2705201  44.9627678  63.8444160  48.0242859  45.5780484  63.2449876
  15.4984725  12.7927744  40.6157875  16.4360976  12.9382217  40.4895496
  15.4251313  12.4683154  41.5133286  16.3461673   1.4779921  22.5821495
  16.8529105   1.6825217  21.7962670  16.9864345   1.5030722  23.2932496
  81.1629724  65.4542779  52.1549892  80.3879642  65.3293990  52.7027082
  81.4328336  66.3569509  52.3240662  21.6520834   3.3229163   4.5570052
  22.2862911   3.9368588   4.1867551  22.1863079   2.6160288   4.9191460
   1.4214134  74.4864862  33.1927943   1.1355209  73.9588009  33.9384794
   0.7068729  74.4138985  32.5600243  43.9358997  16.2301683  40.8962679
  44.4112444  16.6813207  41.5939379  44.4936800  15.4863286  40.6686354
  54.9034594  65.5846579  67.6408387  54.3887543  65.6429489  66.8359090
  55.5756973  64.9309595  67.4484642  20.7874036   3.7886873   0.9572410
  20.8983350   4.3178874   1.7470977  20.3116298   3.0127931   1.2536503
  31.5115428  10.8467042  26.6077805  31.5367317  11.6608906  27.1104717
  31.8847275  10.1903296  27.1961164  62.0221090   6.6398954   5.1596344
  61.5600061   5.8017361   5.1730627  61.6487026   7.1310210   5.8914769
  82.5312566  71.6488098  30.8249760  82.8294109  72.4162113  30.3366828
  83.2248758  71.0011016  30.7000828  20.4794550  47.5081860  34.8414779
  19.6923685  47.6729952  34.3222809  20.6339836  48.3288585  35.3092933
  61.5220070  25.6381607  14.0944183  61.4039040  26.2027812  13.3305550
  62.4508476  25.7193637  14.3109655  63.8838243   3.6820063  23.1577635
  63.2747173   3.1867498  23.7054300  63.6549568   4.5983440  23.3132505
  61.1510992  19.5933104  25.8344269  60.6686497  19.0560663  26.4627910
  60.8026218  20.4763556  25.9570098  35.5601954  33.5988379   8.3718246
  36.4999676  33.4172535   8.3624989  35.4018879  34.0836930   7.5618327
  40.0991106  36.2159848  28.1271577  40.6046867  36.2889504  27.3176527
  39.4633007  36.9297934  28.0776119   8.5532761  28.5956144  20.7946706
   9.3809545  28.4401679  20.3396797   8.3796531  29.5278525  20.6642151
  84.9537825  61.1350309  20.0239778  85.0213193  62.0894896  19.9979186
  85.1033663  60.9093129  20.9420800  30.2908993  10.7492745  33.4410119
  30.0343633   9.9252456  33.0270100  30.9388876  10.4955542  34.0982533
   0.9420156  35.4570897  69.4396691   0.8885383  34.7363247  70.0672597
   0.0414562  35.7710989  69.3582597  59.4461297  61.9135363  65.5511181
  59.2683767  61.6759188  64.6410779  59.6554660  62.8469927  65.5184220
  39.6178079  15.8561027  41.9037580  40.1253080  16.5935373  41.5648413
  40.1924562  15.4471576  42.5508881  21.2286639  21.0167289  19.7877061
  21.6229773  21.8828416  19.8906672  20.6915522  20.9033418  20.5718517
  81.5856456   8.2641494  13.2006836  81.5388381   8.0978572  12.2592020
  82.2238153   8.9722830  13.2873893  65.1499658  46.0622632  18.9304817
  64.2483192  45.7996809  19.1157269  65.3836428  45.5754196  18.1401598
  26.5344739  10.9659445   3.4752861  26.3680935  10.8815968   2.5364384
  25.8338904  11.5358865   3.7924311   7.5576448  50.3888042  68.1957786
   7.8982686  50.2684910  67.3093627   6.6064357  50.3600372  68.0928014
  61.0729574  55.7866485  70.0384017  60.6686829  56.5608306  69.6466900
  61.7403029  56.1374135  70.6281863  64.2122627  34.5004670   1.1913140
  63.6660552  33.7465761   0.9687503  65.1053381  34.1560481   1.1963018
  39.0103267  53.9202542  70.6064420  38.3227472  53.7034745  69.9767818
  38.5687660  53.9117046  71.4556664  83.9071416  65.8574354   6.4186990
  83.8284921  64.9040412   6.3857532  83.2238650  66.1331533   7.0297205
  74.4567035  27.8054269  58.3999125  73.8968967  28.5673042  58.5495476
  74.2636226  27.2189791  59.1313712   0.6126713  64.3748521  12.4544060
   0.9615993  63.9144575  11.6911769   0.7970047  65.2981936  12.2820842
   0.1365457  28.7107301  27.1741557   0.9866551  29.0417790  26.8844104
   0.3358611  27.8740525  27.5942469  62.2774935  36.0392380   2.3692480
  63.1075001  35.6044149   2.1736628  61.7808628  35.9857893   1.5527105
   5.5717796  29.4170952  36.1091280   6.3878667  29.8021960  36.4283967
   5.3975707  29.8734188  35.2859306  82.7199148  80.8487944  14.3525589
  82.1118282  80.6332280  15.0596595  82.9004168  81.7817104  14.4679666
  48.4999561   5.6768394  17.7725983  48.4382486   6.5934467  17.5037956
  49.0698147   5.6905866  18.5415614  37.0305120  64.8196299  67.3096256
  37.1909254  65.4824264  66.6379104  37.2751890  65.2465828  68.1306471
  79.1116833  58.9105745  62.3103921  78.8710617  59.6660788  61.7741571
  79.7579693  58.4395881  61.7843525  71.6143440  61.1629684  65.9853197
  71.9705509  61.3285287  66.8582110  72.3748325  60.9157713  65.4592214
  46.3348007   8.6939329  36.4887309  46.0797453   9.6158248  36.5247202
  45.7320547   8.3031881  35.8560801  48.6353337  76.5849025  51.1214511
  48.2594727  75.7117994  51.2339239  49.0398430  76.5616329  50.2542369
  68.8282597  29.1183662  41.0437107  69.4873082  29.7585487  40.7752800
  68.7244975  28.5477710  40.2822065  30.0058079  15.8649218  17.4916971
  30.3796649  16.7459226  17.4743426  30.3526616  15.4420316  16.7061472
  16.5297031  32.9304218  22.7010226  17.4817801  33.0231738  22.6666927
  16.3611817  32.4984217  23.5384035  52.9624510  47.1892881   4.9288887
  52.3711205  46.4639568   4.7277611  53.0968857  47.6286221   4.0891573
  56.9784403   7.0028543  17.4155045  57.1313143   7.6574403  16.7340517
  56.8037605   7.5152338  18.2049263  12.8219986  39.0580093  34.0101266
  13.0041742  38.1187927  33.9798045  13.5288238  39.4556200  33.5016656
  72.1642113   9.9686760  52.5397158  72.2899818   9.7395575  53.4605408
  71.5848827   9.2865461  52.2001410  20.0715494  79.9499627  47.9338837
  20.0880098  79.5569726  48.8065338  19.7729873  79.2449992  47.3593235
  22.1558547   5.2687228  35.9413481  21.5885901   5.9927481  36.2063551
  22.2947121   4.7668853  36.7445350   5.6607341  81.5265409  19.7236013
   5.7559800  81.5062022  18.7713683   6.2116480  82.2574205  20.0038552
  33.0910206  18.9537907  13.6148059  33.1136107  18.4449196  14.4252205
  32.5238633  19.6983624  13.8152492  10.4568791  65.8050369  39.0166998
  10.3406262  66.5063738  39.6576715  11.1986589  65.2986216  39.3476653
  32.9719448   0.8695191  11.0876536  33.7362528   1.0831854  10.5524778
  32.2285557   1.2111481  10.5907667  23.3166146  13.0272949  30.5139709
  23.7138009  13.8355935  30.8382034  22.3888469  13.1112814  30.7340240
   0.7696628  36.4563946  38.9045135   1.3604306  37.0153783  38.3997743
   0.4476213  35.8148534  38.2713119  68.1861566  41.5626502  51.1599593
  67.9719590  42.3215322  51.7025916  67.4990462  40.9259351  51.3566904
  61.5958523  75.7128532  62.3078023  61.0229157  76.4729746  62.2068445
  62.1778964  75.7491405  61.5487645  85.3812860  34.3712015  60.2042214
  84.9651884  34.4085093  59.3430011  85.0220178  35.1222463  60.6765429
  52.7504730   3.0105555  13.6945915  52.5960493   2.0843895  13.8806069
  51.9450474   3.4478587  13.9707899  26.7140079   8.4594166  37.2157907
  27.0480347   8.5436422  36.3227272  27.4978924   8.3631325  37.7566123
  44.8525715   2.8692740  27.0045233  44.4526434   2.0288986  26.7807865
  44.2833567   3.2323152  27.6830697  37.0018046  58.7382515  66.6773008
  36.8384992  57.8162511  66.8759908  36.5893762  58.8762005  65.8245961
  35.4778051  11.0586023  43.2406092  35.6951165  10.1294756  43.3163166
  35.6936145  11.2820542  42.3352242  34.1872882  80.1201879  25.2302170
  33.6325168  79.4103720  25.5536675  33.5790919  80.8377692  25.0530005
   2.8957462  79.1948135  62.3052697   2.3428582  79.1933162  63.0866436
   3.7430000  78.8706572  62.6107441  21.7555356  24.3121767  19.5618510
  20.9440422  24.7035933  19.8851228  22.0993328  24.9531460  18.9396012
  24.7892022  18.5457170  17.6861966  25.0134206  19.3270218  17.1807051
  23.8329554  18.5108209  17.6616406  68.6784363   3.6285347   6.9388771
  69.0632486   4.1310889   7.6569223  69.2084742   2.8328386   6.8924350
  13.6374044  34.4384980  35.4474163  13.7865877  34.2355680  34.5239472
  12.7323306  34.7482038  35.4814076  12.9141271   8.4644711  27.2497940
  12.1991873   7.8589934  27.0536041  12.7322757   8.7698638  28.1385541
  -0.1556683  28.7124093  70.8480501   0.5609559  29.3468805  70.8593337
   0.2376460  27.9130562  70.4979439  35.0202966  30.1806092   3.5848853
  34.3496990  29.4979072   3.5636631  35.5075312  30.0631785   2.7693838
  33.8483310  33.3565235  12.5617898  33.3819556  33.6233425  11.7696190
  33.2702684  32.7155828  12.9756391   9.3216491  19.1630542  13.8987267
  10.1532269  19.5933771  13.6998987   8.8819236  19.7598386  14.5043027
  51.8615913  20.8606839  22.9163074  52.3941374  21.2924004  23.5843229
  50.9919834  20.7924604  23.3104634  10.5309653  72.1532737  31.2728763
  10.9388899  72.9690694  31.5632319  10.0801873  71.8213086  32.0492983
  41.0729074  22.5154376  20.4002953  40.2828836  22.8317308  19.9620605
  41.6672325  22.2854853  19.6860588  75.2524090  45.0593090  10.3151762
  75.8925152  45.5137968   9.7675127  74.4032812  45.3300381   9.9659997
  83.3325456  31.1246396  70.0557827  83.0895351  32.0245971  69.8384035
  84.2768453  31.0880907  69.9034814  31.1702061  22.2898245  29.1315389
  30.5172849  22.6249695  28.5170484  31.5584636  23.0739093  29.5197368
   6.1873459  66.4416038   9.8605233   5.5688214  67.1537720   9.6978116
   6.4314031  66.5418707  10.7806396  64.0234135  44.9265008  65.8998109
  64.1058325  44.6689813  64.9815939  64.8848938  44.7479297  66.2768991
  34.1100359  56.4378821  14.0778935  34.0445661  55.5767166  14.4906175
  33.4379005  56.4286052  13.3964384   9.0998387  81.3390234  25.7738757
   9.1707301  80.5684177  25.2105165   8.1639838  81.5394817  25.7888603
  80.8868526  20.5893500  62.3038588  80.7379459  19.7006400  61.9809757
  80.4804634  20.6005724  63.1704329  52.7021431  63.3731516  62.5608073
  51.9492577  63.6727984  62.0512925  52.3777198  63.3216722  63.4598790
  51.1112165   1.2905468  30.8071470  50.4731464   1.0383096  31.4745879
  51.6501474   0.5091918  30.6835818   1.2444830  49.9297987  49.5175314
   1.2556958  48.9889108  49.6931410   0.5333709  50.0474297  48.8876772
  73.6057400  44.2993466  66.4195309  74.3248056  44.8954992  66.6287584
  72.9969095  44.3919547  67.1523218  51.7336607   8.3277762  18.5411501
  51.0504246   8.2503545  19.2070532  51.6874790   9.2402130  18.2555664
   8.6954421  14.9655104  22.8916097   8.0016208  15.6246960  22.8737569
   8.4320724  14.3592596  23.5839462  42.6551247   1.7576165  41.3013077
  43.4677935   1.5235080  40.8529854  42.0513868   1.0454752  41.0901594
  60.1443170  51.5383382  70.0026509  59.8478292  50.9604080  70.7057330
  60.5565046  52.2741921  70.4552570  38.7342739  21.0394335  23.6746955
  38.8961816  20.0983572  23.7409806  39.3490362  21.4324546  24.2942381
  48.3299255  33.1091285  10.9716821  47.9291534  33.9528584  11.1808085
  48.1316757  32.9728723  10.0452030  23.2952666  27.4761128   1.4215568
  23.4820771  27.5932288   2.3530166  22.3654461  27.2509742   1.3902156
  79.3403769   2.5393268  44.4216013  79.0818119   2.9336947  43.5886288
  79.5340729   3.2849520  44.9897194  54.7103119  14.9877298  28.8307548
  54.5524931  15.2894342  27.9361606  53.9072561  14.5267069  29.0732193
  70.1782846  13.3649576  34.3222523  70.3927326  14.2034340  33.9133501
  70.6890631  12.7214026  33.8311577  62.1827364  15.3090286  37.8011370
  61.4424133  15.2200794  37.2009373  62.9517031  15.3300357  37.2315025
  41.2217497  56.2568457  66.9566284  41.5151106  56.1404355  66.0529582
  40.5939590  56.9781358  66.9136105  81.9106506  66.6075499  32.1219484
  82.1127485  67.4117358  32.6001470  82.2667097  66.7540915  31.2456028
  84.1746377   4.1365167  46.0571639  85.0483202   4.4950124  46.2133305
  83.8170194   3.9872810  46.9324200  13.2118261   8.3998901  46.3008499
  12.6062286   8.8150412  46.9149590  13.4518635   7.5745934  46.7221546
  43.4929275  63.5114395  18.1393528  42.6304054  63.9234566  18.0890429
  44.1101122  64.2418598  18.0969727   1.2119460  71.6589951  32.2059083
   1.4955473  71.1278903  32.9500365   1.9669270  71.6695105  31.6175842
  45.6787443  15.7601297  11.7886329  45.6621456  16.6928375  12.0031381
  46.3906193  15.6727815  11.1547303  34.5173120  12.0816839   1.1460727
  34.7265935  13.0026984   1.3015270  34.4371343  12.0115387   0.1948192
  67.3122191  29.5010161  52.4420691  68.1215095  29.1405654  52.0796394
  67.2938466  29.1868567  53.3460617  25.1047635   2.5668618  29.5584369
  25.1151228   3.4607905  29.2163587  25.4794812   2.0368512  28.8549399
  49.2665958  18.7369537  21.6701126  50.1704788  18.6777723  21.3607216
  48.7949514  19.1596091  20.9523726  82.4482702  57.4068533  32.0682907
  82.3336958  56.4616643  32.1669054  83.2533192  57.4986540  31.5586805
  12.2678125  63.1864166  31.9058728  12.2414613  62.3188829  31.5022278
  13.0891824  63.1970978  32.3972678  39.3425202  32.4010372  31.2222505
  39.6045852  33.0908346  30.6125522  39.0504098  31.6831493  30.6605196
   2.1702551  76.7310684  17.6437747   3.0381322  77.0180370  17.3597467
   2.0333719  75.8985870  17.1915925  63.5125256  33.4462380  16.1489451
  63.9690351  34.2836475  16.2300313  63.2671690  33.2193637  17.0459187
  44.8846960  10.6498528  65.8337450  44.1045904  10.7463717  65.2875280
  45.5023527  10.1656425  65.2857733  52.1378708  17.2259736  40.1202869
  51.8198442  16.7065382  39.3818617  53.0905914  17.1434367  40.0784969
  51.0997962  59.8009951  70.0612654  52.0074366  59.8106547  69.7574165
  50.7959341  58.9116235  69.8798323  39.2922996   2.9042251  64.5491580
  40.0665365   3.3449061  64.8992835  39.5375191   2.6628168  63.6559497
   2.1920484  25.6404853  17.5067890   1.9349036  24.7322202  17.6654232
   3.0362704  25.7310748  17.9487324  15.6484819  12.0626450  23.0527592
  15.9634042  12.1246517  22.1509790  15.4954172  11.1276722  23.1892490
  84.5511793   7.9446132  69.2928430  84.9083589   8.0686696  68.4134885
  83.7479328   7.4422009  69.1564141  45.7364893   6.4353108  43.8406086
  46.4898825   6.7575788  44.3353558  45.6130600   5.5378586  44.1497612
  48.7173033  18.0226552  27.6827908  48.2449245  18.5853958  28.2963157
  48.0352879  17.6568878  27.1194911  54.4972657  71.9574411  61.5903072
  53.8025593  72.4663265  62.0082174  54.7282862  72.4625213  60.8107213
  36.3724446  28.7987590   7.5920188  36.2610745  27.9370713   7.1903658
  35.5153894  29.0005898   7.9674554  80.0357819  36.6599560  40.7644749
  80.5686855  36.1849308  41.4021254  79.3423462  37.0644474  41.2857914
  31.8286324   9.4466370  42.2990227  31.1505818   9.9752963  42.7197361
  32.0621181   8.7901455  42.9553270   0.3946232  77.2041034  36.0326004
   0.7805514  77.9631697  36.4697623   0.9424281  77.0688592  35.2593946
  41.8410826  29.2613506  37.6235580  40.9566069  29.0940714  37.9490662
  42.3091412  29.6222091  38.3765078  45.0404476  50.2630235  67.4612377
  44.1064571  50.4235609  67.3266192  45.2693032  49.6109874  66.7988889
  50.3365993  23.2256842  26.1343813  50.8409739  22.4488115  25.8929086
  50.2851868  23.1905174  27.0895529  45.2736855  19.8421443  37.4230385
  46.2126541  19.7105885  37.5544000  45.2055311  20.2250910  36.5484309
  78.1384993  11.2208724  39.2451239  78.1894064  10.3406942  39.6178532
  78.9303684  11.6591132  39.5567656  71.8309473  36.6011257  67.4277349
  70.9580921  36.2865753  67.6631327  72.2917913  35.8207209  67.1198044
  27.6836658  14.4915545  15.7401812  27.1809649  15.1257181  16.2514174
  28.2595038  15.0267410  15.1940882  14.4887018  64.0687739  39.7212267
  14.6081161  64.8714828  39.2136550  15.3782081  63.7783932  39.9229479
  33.8877058  69.2176818  19.2735434  33.7876892  68.2667266  19.3172646
  33.3689928  69.5470678  20.0074840  18.1782985  45.0070572  22.0596838
  17.7919424  45.8502293  22.2963762  18.0354393  44.9346066  21.1159801
  75.1314831  44.3039989  43.9238882  74.8668051  44.4466972  44.8326302
  75.3930712  45.1702499  43.6117697  18.9235210  51.0409605  21.8850136
  18.6187124  50.5426394  21.1267281  19.4967460  51.7126285  21.5155363
   9.9257046  26.4933085  22.7318311   9.7339493  27.1942306  22.1088004
   9.5451105  25.7096362  22.3352981  20.1406192   8.5583718  47.4840276
  20.6202888   9.2405160  47.9539506  20.0956487   7.8284509  48.1016247
  14.7978079  24.6181822  33.6543918  15.1724172  25.4195714  34.0200090
  14.3985772  24.1767168  34.4040298  42.3276854  25.3371382  16.7990685
  42.2537422  25.0462627  17.7079999  42.8945446  24.6865606  16.3847578
  29.6742004  79.0324934  55.3860239  29.3885478  79.9450333  55.3424184
  29.3829567  78.6505277  54.5580677  51.2907219   7.8852266  67.8651333
  50.8095312   7.9658985  67.0416164  51.7482853   7.0474792  67.7941036
  29.2178822   1.0011861  34.2728519  28.3335757   1.0290347  33.9075351
  29.5664215   1.8801138  34.1237259  73.8547659  31.0908365   2.3965496
  73.9676285  30.6564784   3.2420242  74.5019007  30.6762147   1.8259919
  29.8767964  62.6281412  65.3747807  29.8696527  62.3606904  64.4557325
  30.1946496  63.5308893  65.3590558  30.1293755  23.8326359  22.7260542
  29.8212385  23.0481482  23.1797743  29.5088100  24.5156503  22.9802561
  46.8313980   3.9124086  31.6829181  46.9164038   4.6974438  31.1418772
  46.4788389   3.2494259  31.0892963  20.7955694  18.5628235  54.8386955
  21.2268233  19.4153523  54.7799873  19.9399698  18.7531960  55.2233219
  11.7335725  15.5661476   2.0618528  12.1122110  14.7131145   2.2744568
  11.7141581  15.5878341   1.1050955  22.0774579   9.2706805  24.3587351
  23.0314302   9.2470717  24.2838264  21.7633271   9.1135919  23.4682989
   0.3623533  66.6508348  67.2852944   0.1265573  67.3258836  66.6489462
   0.0485372  66.9913156  68.1230433  34.1304517  24.6243525  40.3977823
  34.1300750  24.6651602  41.3541126  33.8028049  25.4802108  40.1214027
  53.2681227  30.8044672  19.1616404  52.8632164  30.0364113  19.5645964
  53.7999344  31.1883616  19.8588026  59.8596146  63.6628925  49.5900297
  59.3508866  62.9506706  49.9775410  59.5791715  63.6873316  48.6751556
  46.5449619  18.6177850   8.1640691  45.6331587  18.5450935   8.4461409
  46.7815256  19.5264351   8.3501500  34.9090099  11.5925312  27.0005703
  34.7852731  12.3862636  27.5210595  34.2438960  11.6498387  26.3145876
  42.3972427  64.0882976  61.8665240  41.6395890  64.2732938  61.3115750
  43.1103753  64.5917804  61.4738677  48.7212181  80.3776996  24.0101314
  47.9479885  80.0502271  24.4695973  48.7123203  79.9196223  23.1697035
  73.5930513  26.7545564  66.0468359  72.7341722  26.9283397  65.6616626
  74.0124582  27.6136620  66.0944433  10.7658494  10.9408522  45.1096630
  10.0797331  10.3483737  44.8023415  10.4271555  11.8165672  44.9235439
  51.7679358  40.0965261   5.5734289  51.3796616  40.5643368   4.8340866
  51.0834694  40.0958824   6.2425631  24.9058795  14.2431331  10.1407242
  25.4767132  14.8276544   9.6420109  24.4539332  14.8187041  10.7577300
  21.3859296   0.5076313  22.9668331  21.7098975   1.3299237  23.3344102
  21.0506988   0.7471196  22.1028328  79.4572805  73.9417894  57.4751381
  80.0836824  73.8224156  56.7612724  79.5081352  73.1282623  57.9769556
  15.4807472  72.8331046  23.4181023  14.7069931  72.7601491  23.9768624
  15.6511354  73.7736057  23.3665419  57.1449827  38.9304513  66.2947283
  57.4982857  38.0457692  66.3882507  56.2895798  38.8932235  66.7226632
  30.5467319  20.5094051  14.0802574  30.7674241  21.2532806  14.6407712
  30.3910518  20.8965182  13.2187831  79.9964857  41.7378044  21.6114640
  80.6969357  41.1986685  21.9787979  79.4497824  41.1210775  21.1246467
  54.7898124  62.3217137  60.9717373  54.0328716  62.8154142  61.2872205
  55.4362272  62.9913218  60.7481150  56.0674094  40.6840919  62.7578299
  55.3455781  40.5007783  63.3591513  56.4749073  39.8314126  62.6057915
  29.7193813  79.3092226  19.1762233  29.7434568  78.3555829  19.2551100
  28.7889957  79.5195300  19.0963173  24.9336314   3.0825788   2.2521009
  24.2647982   3.6643267   2.6133010  24.5908523   2.8259262   1.3960257
  58.2574343  70.7243402  65.2290611  57.6715778  70.5168874  65.9570510
  57.6833009  71.0908373  64.5565407   2.8728372  51.0569048  47.7528811
   3.1656364  50.2566099  47.3169661   2.4045420  50.7493162  48.5289717
  33.0638409  37.9864717  24.9841499  33.5916066  37.2267532  25.2301621
  33.2483721  38.1151557  24.0537620  47.7037811  26.9388771   9.1241777
  47.4157572  27.1857238   8.2453483  47.0227528  26.3459039   9.4416893
  51.9808388  18.8526583  59.8024607  51.9476700  18.3307838  59.0007257
  51.2591124  18.5190606  60.3354263  17.1083558  22.6827216  26.8804288
  17.8556955  22.8823566  27.4442196  16.8894243  21.7738152  27.0858335
  31.2441683  20.2426648  26.6642880  31.7585015  20.5185056  27.4229741
  31.7188573  19.4886708  26.3144374  19.6244371   7.9713297   1.1401917
  19.9898100   7.9375952   0.2561124  19.5375943   8.9059061   1.3279611
   9.4112587  46.6634750   0.9258053   9.5928437  47.0493317   1.7827633
  10.1697218  46.1072874   0.7479918  34.9951625  29.2664814  33.9741421
  34.6879411  28.5681033  33.3961177  35.5361462  29.8216033  33.4125304
  27.2605610   5.5189323   7.1320200  27.3202014   5.5484968   8.0869031
  26.8184805   6.3339716   6.8943048   3.8268184  79.3640981  10.3641355
   3.8342857  78.4247511  10.5479920   3.1301498  79.4760246   9.7173303
  65.3349375  80.1290829  67.8215326  64.6388053  80.2578838  67.1772943
  64.8883342  80.1659997  68.6673541  78.2180905  79.8474381  32.0922732
  78.3119225  80.2838328  32.9390240  78.6868524  80.4126718  31.4782667
  50.4131269   5.4542249  20.3042984  49.9499941   4.8453233  20.8796072
  50.2598095   6.3151497  20.6935740  79.7515589  40.8806419  30.0392652
  79.0445405  41.5152216  30.1561666  79.8675870  40.8233500  29.0908527
  35.8322096  77.0617597  10.6244028  34.9477720  77.3646404  10.8299935
  36.0413026  76.4413845  11.3227201  27.0646930  36.8658376   8.8000327
  26.1421204  36.8352628   9.0533215  27.0485330  36.9852734   7.8504509
  59.3209267  10.2204084  10.3547025  59.2469740   9.3308121  10.0091851
  59.1957188  10.1219392  11.2985563  42.5974369  24.7586322   0.0671525
  42.4566507  24.0902019   0.7376823  43.3646393  24.4539428  -0.4174084
  74.8306656  14.0955234  40.0011969  74.0979004  14.7046769  40.0918579
  75.2242374  14.0628374  40.8731270   5.1554393  31.2555022  70.5188991
   5.6860828  30.7742663  71.1537713   5.5800103  31.0896452  69.6771974
   1.8980624  20.6993175  11.8808091   2.4401318  21.2077713  12.4840224
   2.1553910  19.7904420  12.0355976  12.6609302   6.8845588  20.5896258
  12.2497833   7.7102500  20.8454061  12.1344125   6.2112457  21.0205078
  49.7708273   5.5711585  31.0300899  49.7170162   5.5500728  31.9855428
  49.5253658   6.4662647  30.7960701  81.1696243  23.1722283  29.9017763
  80.6515121  23.3796668  29.1241121  80.8762932  23.8022041  30.5600500
  63.6949873  22.1169782  20.7747889  64.3191338  21.3956022  20.6954885
  62.9096556  21.8047118  20.3253675   3.2731423  26.3076615  42.7381897
   3.9872974  25.8224320  43.1514263   2.4792421  25.8575106  43.0268383
  21.1073995  36.7574096  14.2536044  20.4284596  36.6804123  13.5832715
  21.7815709  36.1334848  13.9844573  44.7271061  22.0114017   8.9109695
  44.1313601  21.7056155   9.5949405  45.6015253  21.8449616   9.2629921
  84.1320728  70.1827104  68.0459089  83.8688778  70.1028116  67.1290789
  83.3725332  69.8754199  68.5407860  54.9037647  68.5436375  64.9911020
  54.8921775  68.5850055  64.0348671  53.9799785  68.5350878  65.2416758
  16.5276039  51.2265825   9.8853236  16.9488072  51.1147785  10.7375669
  16.0376430  50.4151630   9.7520202  24.7762585  11.7853081  10.8412623
  24.5809054  12.6937950  10.6116509  23.9258766  11.4062846  11.0635781
  35.2835451  77.3888095  55.7958834  34.8127048  76.9362505  55.0960748
  35.7708048  78.0805428  55.3483169  40.9603834  69.8341703   0.5629001
  40.7071829  69.0645027   0.0532567  41.0352278  69.5125151   1.4613257
  81.2738537  63.0061586  56.7691140  81.3661073  62.6344569  55.8918695
  81.3880419  62.2605426  57.3583929  37.9173183  11.6548014  25.8482718
  38.1117582  10.8340120  26.3007450  37.0048976  11.8403590  26.0702801
   9.9372703  31.8697739   8.1728047   9.2339718  31.7939305   7.5279403
  10.4770827  31.0921216   8.0310553  18.6989594   3.9041704  42.5893927
  17.8400564   3.8942191  42.1669960  19.1863060   3.2024729  42.1577120
   7.7178144  79.5601471  68.2366346   8.4736299  80.0520666  68.5575580
   7.3426770  79.1590221  69.0206015  83.0800413  58.9515125  21.0441971
  83.0290078  59.8374950  20.6855011  83.5344838  59.0572964  21.8799758
  18.8436842  66.6097962   2.8230557  19.5676231  66.9358467   2.2884217
  18.2250595  66.2437366   2.1909639  52.8037643  17.3013747  10.5091059
  52.6250267  16.4783764  10.0541782  52.1561432  17.9136324  10.1598799
  69.9739265  37.5203085  11.6710639  70.4805756  37.8761435  10.9410477
  69.2282009  38.1142187  11.7570531  82.0924591  35.6461008  42.8918974
  82.6937555  36.3393189  42.6196496  82.5961374  34.8385228  42.7901356
  40.5400038  26.7689586  15.1139545  39.8817778  27.3567009  15.4848075
  41.1643076  26.6288447  15.8258855  78.3796167  45.0307369   0.0763329
  78.4704351  45.0603247   1.0287552  79.0561581  44.4170332  -0.2098302
  65.5891657  19.8649001  30.3255296  66.2151241  19.2063737  30.6267810
  65.7573795  20.6266713  30.8801818  58.7203789   4.4660607  22.8956914
  57.8526878   4.7419503  22.6003480  59.1842890   4.2331639  22.0914626
  38.2085681  20.5664515  13.8121271  37.3981977  20.5685377  14.3215668
  38.1632233  19.7633636  13.2932603  35.1970243  54.6938705  20.5448675
  34.7453737  55.5200624  20.7170582  34.6641898  54.0329456  20.9870195
  74.0726376  19.2238522   4.1930515  73.3652544  18.5993350   4.0323555
  73.6498833  20.0814438   4.1477966  72.1353685  20.9375592  55.1407556
  71.7073857  21.5833493  54.5785980  73.0565094  20.9680291  54.8822920
  18.9080930  17.1795785  69.8618317  18.7828302  16.2950480  70.2055550
  18.4372544  17.7437925  70.4751873  41.5844679  30.3389049   3.5121542
  41.6511297  30.8060193   2.6793319  40.7432795  29.8845482   3.4652656
  39.0412259  43.2889843  20.8639455  39.5099211  44.0595531  21.1845398
  39.7085857  42.7744150  20.4099846  35.7646274  60.7289564  16.0199094
  35.0074672  60.9676825  15.4851639  36.3910007  60.3601753  15.3971040
  37.2846389  22.0968080  66.3843107  36.8372321  21.2737203  66.5807390
  36.5794063  22.7384233  66.2993860  49.1909504  15.4103982  15.4967749
  49.5239305  14.9300432  14.7387397  48.7587452  14.7443724  16.0314143
  15.2705276  36.7718029  17.5284708  14.8923647  37.1636415  18.3156729
  15.7202065  37.4958587  17.0928502  51.3023901  28.2183170  15.2730393
  51.0163355  28.0602670  14.3733585  51.4629984  29.1611743  15.3111637
  43.5768270  25.8403444  13.8288736  42.9429054  26.3237500  14.3586779
  43.0453491  25.3841829  13.1764305  46.4809370   4.4786164  70.9118986
  47.4067831   4.3794176  70.6900930  46.1392975   5.0802130  70.2503872
   2.7557921  75.4724639   7.4393350   2.0222759  75.7587182   6.8950510
   3.5120701  75.9429919   7.0887983  75.9380649  58.9743955  45.8040754
  76.0918592  59.9119861  45.9202830  75.9945177  58.8378318  44.8583500
  56.1173058  41.3599348   1.5102811  55.4875994  41.1194229   2.1898815
  55.6309032  41.2708235   0.6907059  23.7366796   5.1735258  66.0690165
  23.4405994   4.6248111  65.3427362  23.7004590   4.5988309  66.8336391
  69.7973084  15.9361291  38.0269504  69.7965860  15.0062382  37.7999401
  69.5092642  15.9601295  38.9394665  63.7584066   1.9997936  20.7585740
  64.1522741   2.6956788  21.2847328  62.8628874   2.2978272  20.5990362
  79.2711233  27.1423037  26.5520207  80.0483011  26.6671879  26.2579171
  78.7762045  26.5002258  27.0609633  38.7987852  13.9960372  31.7786145
  39.1861486  13.2612491  32.2542882  39.5475030  14.5270967  31.5072703
  19.0452671   5.8283302  70.0791797  18.6156559   5.7140752  70.9268904
  18.4276724   6.3493081  69.5659616  39.4009423  32.8415203  17.0686996
  38.5351801  33.2463312  17.1217835  39.5774865  32.7758145  16.1302185
  27.1375560  79.3307761  21.6652465  26.2074041  79.1816570  21.8349671
  27.2298336  80.2834841  21.6572070  31.7804575  11.0974944  12.9589033
  32.1708322  11.9707525  12.9944015  31.6925693  10.8369780  13.8757658
  74.4970023  25.5744362  12.0172918  75.1659619  24.9459314  12.2887814
  74.2499744  25.2954268  11.1356091  71.9348240  23.7764645  17.3859656
  72.0360708  23.6610246  16.4411616  70.9881306  23.7747765  17.5273776
   8.5182024  15.8260096  19.8318183   7.7111889  15.3746642  20.0793099
   8.3834101  16.0733355  18.9170015  70.2407145  20.0438996  70.4330012
  70.4142486  20.4227229  71.2947491  69.6606659  19.3031808  70.6093867
   1.9070530  69.8195290  26.2286568   2.0255518  69.4808291  25.3412604
   2.2952222  70.6941711  26.2050128  50.4223037  12.7212656   5.7636279
  50.8746505  11.8781508   5.7914072  49.8662877  12.7205504   6.5427798
  45.8107805  48.1407261  16.0971940  45.8910751  49.0684175  16.3189507
  46.1789560  47.6813173  16.8519258  33.0963230  26.2880707  32.7726269
  33.7612057  26.6746831  32.2028065  32.6218700  27.0384502  33.1304789
  35.9317279  11.9081283  45.9793949  36.5203881  11.1969757  46.2323236
  35.6479788  11.6807175  45.0939560  37.7504945  16.2682283  13.7722123
  38.3476758  15.5203474  13.7889004  37.6032734  16.4777982  14.6945131
  56.6603088   7.8151661   8.6666644  55.8014536   7.6462024   9.0540355
  56.7314482   8.7695521   8.6488438  82.8819513  71.2278019  19.1668117
  83.7945985  71.1416959  18.8913202  82.9218792  71.2549149  20.1227951
  38.1785345  37.8488278  28.0004716  37.4617147  38.1376910  27.4357080
  37.7853394  37.7804542  28.8705015  45.6075239  44.5653439  16.2304950
  46.0819626  44.5568800  17.0617998  45.0629425  43.7786198  16.2575006
  45.0344896  24.4630003  15.9135354  44.5984840  25.0876665  15.3339446
  45.9617805  24.6945429  15.8610785  30.3555191  67.1344764  68.6179504
  30.9795842  66.9528444  67.9152529  30.9020628  67.3348243  69.3778074
  58.5904239  59.7281940  66.8649341  58.5313605  59.2869814  66.0175411
  59.0608858  60.5409200  66.6795288  38.8149738  41.7774296  11.7471468
  37.9355025  41.6575527  12.1054614  39.1872478  42.4941969  12.2608423
  22.3127460  59.4120394  45.2349329  21.5144157  59.8986088  45.4402399
  22.2398424  59.2153107  44.3010044  12.1123266   0.1025331  19.7566116
  12.3778391   0.2821291  18.8546813  12.9029417   0.2556296  20.2740288
  38.3022070   7.7961278   4.7218472  38.3492851   7.0049262   5.2585185
  37.6933336   8.3672905   5.1901197  48.4190464   7.7237660  32.3196435
  49.0800476   7.9374117  32.9781771  47.5982428   7.6786363  32.8100276
  56.5159225  31.0750556   6.1389494  56.6647196  30.4422545   6.8415552
  57.3601961  31.5120888   6.0274601  68.7554264  36.6272664  30.3281569
  69.2855835  35.8985114  30.6507730  67.9406595  36.2193251  30.0349402
  54.8249673  63.8756855  70.6014373  54.6905350  64.8211081  70.5355833
  54.3862366  63.6274870  71.4151606  47.2025824  34.4786096  14.7385478
  47.3444366  33.5790348  15.0332868  46.8211365  34.3872356  13.8654017
  69.9666882  14.3703508  52.4726295  70.0612211  13.4245467  52.5855541
  70.5885124  14.5921481  51.7795420  44.2151880  22.5268078   1.0221795
  43.5488033  21.8640399   1.2035754  44.6027136  22.2553444   0.1900960
   8.0669450  58.1956299  33.1370108   7.9689311  58.1546385  32.1857254
   8.2161903  59.1227122  33.3226864   9.8507928  65.6864102  60.5028753
   9.1538095  65.7349832  61.1571567  10.0385188  66.5993078  60.2846794
  15.9637547   4.6058455   5.2577728  16.6476381   4.9068356   4.6594921
  16.2750077   3.7559107   5.5691642  75.9356248  18.0538722  63.6410384
  75.3549182  18.0619785  62.8801541  75.8478092  17.1708699  63.9999608
  33.2214808  40.7979107  14.0357828  32.3231220  40.7518625  14.3629861
  33.1280923  40.8344078  13.0838490  23.9010572  15.1990640   3.5261708
  24.7538567  15.6334865   3.5416818  23.3264875  15.8154583   3.0721250
  77.1623182  37.4663925  28.5788369  77.2097778  37.5338364  29.5324779
  78.0573082  37.2612286  28.3084011  20.0686073   9.6682310  26.4030719
  19.4969320  10.3768599  26.1076665  20.8485723   9.7448325  25.8535099
  15.8676862  71.1883234  21.2308526  15.7845163  71.9212966  21.8408251
  15.1866674  70.5727088  21.5018940  61.4780760   8.6167490   7.2174561
  62.1055365   9.2341113   6.8414366  61.5730476   8.7252235   8.1637359
  19.8391020  23.8974428   7.6961452  19.7676313  24.6963000   7.1736956
  19.7165561  24.1901088   8.5992295  41.8384933  47.4329758  12.3913622
  41.2126064  48.1467009  12.2684908  42.4504662  47.7617788  13.0498528
  44.0699207  77.5049622  70.9954870  44.4387375  77.5528581  70.1134939
  44.3282913  76.6410191  71.3165468  36.6367221  44.3382025  27.3879862
  36.5771699  45.0640345  26.7668176  36.1243057  44.6266699  28.1432652
  26.5620041  37.9136658  22.1606898  26.4195871  38.1417656  23.0793405
  26.7668033  38.7467051  21.7360330  37.9843998   2.7485159   4.7093776
  38.0992293   2.2669634   3.8901380  38.0937624   2.0875692   5.3930593
  19.5670033  24.9707484  66.0767221  19.5181203  25.2931976  66.9766474
  19.7530377  25.7499790  65.5528688  27.2057843  46.4386559  35.5604291
  27.2168255  46.5616322  34.6112251  27.4644017  47.2892475  35.9151649
  23.7120652  21.6355181  30.1035881  24.1298914  20.8775783  29.6947098
  24.3155193  21.8950891  30.7997894  26.9256115  32.4167824  30.3480434
  27.1334672  33.0948663  29.7052169  26.3622642  32.8556275  30.9854484
  82.4387597  76.5271007   8.9838320  82.8437518  77.2668361   8.5310560
  82.4876808  76.7581617   9.9114364  25.7797933   9.6010733   8.9006484
  26.0549092  10.2053642   9.5901239  25.4317474   8.8435161   9.3709719
  39.9091768  37.0145154  19.8017919  39.4438958  37.5459337  20.4478121
  40.2305031  37.6463747  19.1585684  19.5076108  30.9685612   3.4728405
  18.7288404  31.5002155   3.3082438  19.9003947  31.3550091   4.2555356
  75.8359563  78.1499847  50.4266167  76.7829501  78.2071217  50.2994585
  75.5512344  79.0593045  50.5177355  63.7319422  24.3933034  33.0679798
  63.9951992  24.4554377  32.1497941  63.2273197  23.5814667  33.1180501
   4.6388768  73.6263330  55.6539075   4.5496034  72.9035003  55.0327997
   4.5983409  74.4142468  55.1118926  45.9900427  14.4455934  14.3739212
  46.5473032  13.6954761  14.1665149  45.8977985  14.9123502  13.5433435
   2.3653532  19.3649793  15.9209049   1.7093873  19.0345144  16.5346920
   3.2021738  19.0812433  16.2889481  10.8918548  22.0669723   0.4614594
  10.1385629  22.3146129  -0.0746900  11.3750303  22.8836203   0.5874011
  83.3348917  81.2799652  26.3805008  82.5032782  81.4132151  26.8353558
  83.1097817  81.3263606  25.4513049  14.0034437   4.3522521  55.6893496
  13.9728355   3.5367366  56.1895744  13.2301664   4.3170282  55.1262919
  62.9015159  65.9708749   8.2544661  62.4981117  65.3652417   8.8763285
  62.3139858  65.9648608   7.4988168  49.4030762  28.0608916   5.3575945
  49.0178299  28.5575128   4.6356654  49.6656513  28.7267780   5.9931111
  64.8818701  57.5819456  32.8048730  64.1735684  57.9129898  33.3570957
  64.7448241  56.6348921  32.7816701  71.8045425  31.3655567   0.4839278
  71.9833183  30.6514335  -0.1278701  72.2170067  31.0888481   1.3021797
   3.5957557  24.5320797  10.3762949   3.1879589  24.5843768  11.2407017
   4.2107725  25.2652979  10.3568554  17.6221323  22.8454709  22.9820037
  17.5001776  23.3563375  22.1817684  17.3837507  23.4460282  23.6882162
  50.3933764  24.4551039  11.7475855  51.1981106  24.9619436  11.6392016
  50.5297613  23.9587998  12.5546253  61.7511963  80.7921059  43.7024681
  61.7744874  81.3865168  42.9525582  62.6248931  80.4018099  43.7259547
   9.0005779  74.3492420  68.7868263   9.0995168  75.1783378  69.2548467
   9.0351915  74.5910390  67.8613163  40.5964470  13.0734575  26.6004729
  40.0132990  12.4064589  26.2381482  40.1699638  13.9042211  26.3902950
  33.0994033  75.7945459   9.3813980  32.1968031  75.6964605   9.6845824
  33.0267810  75.8561807   8.4289491  39.5784569  46.3852930   8.4365863
  38.9126706  46.8588781   8.9352638  40.3026438  46.2712336   9.0520334
  36.2031031  29.4670272  19.2138636  36.1112213  30.3979516  19.4167590
  36.0180473  29.0222192  20.0409865  23.3752346  22.5001355  69.7090042
  23.7406587  23.3788844  69.6065244  24.1403055  21.9277021  69.7657385
  22.0478988  13.2454121   2.1823025  21.8720579  12.5120831   2.7718282
  22.4538565  13.9090383   2.7400041  43.4053564  22.3703480  15.7695341
  43.9576006  21.5885305  15.7741463  44.0240717  23.1005287  15.7535207
  22.5488567  80.8892631  20.3798103  22.8000736  81.7036196  20.8156371
  21.7677498  80.5972131  20.8497190  24.0443277   2.8413764  36.4123058
  23.9768600   3.0184695  37.3505569  24.6718717   3.4887645  36.0908866
  23.1733322  71.8359237  15.4170346  23.2699728  70.8915185  15.2945971
  23.8730049  72.0712804  16.0263765  57.9726315  23.7723708  16.0489583
  58.7665462  24.2814255  16.2126589  57.5311327  24.2388010  15.3392029
  21.0573959  38.5330391   9.6955514  20.1487494  38.3638573   9.9444854
  21.5695333  37.9294968  10.2337754  62.3642540  71.7716789  19.5086265
  62.8230715  72.6087475  19.5795417  62.3061752  71.4533091  20.4094601
  74.6025645   9.1414996  69.0078361  75.3686308   8.9321967  69.5422207
  74.1292643   9.8006698  69.5154908  71.9541836  50.7956314   0.6230047
  72.0351124  50.9109402  -0.3237725  71.0512877  51.0462189   0.8184956
  61.2545538  27.0646381   0.8569340  61.6364193  27.5233889   1.6052371
  61.1682081  26.1577082   1.1506240  51.0870600  16.1246812  44.6918249
  50.4544544  15.4073524  44.6532965  50.9091759  16.6433048  43.9072132
  37.4271441  26.6504955  29.0001726  37.4457240  25.6936312  29.0173793
  37.5769758  26.9093513  29.9094462  43.6012840  35.9878421  22.8988814
  43.2626820  36.8801475  22.8255773  44.4938231  36.0415339  22.5572300
   8.8364470   9.4284481  43.9894915   8.7663728   8.4808528  44.1051865
   7.9339117   9.7432834  44.0398979  66.8393230   8.9616179  34.6047187
  66.5284681   9.1957140  35.4792500  67.4693537   9.6472687  34.3829751
  41.1605358   3.7564462  50.0976753  40.3641176   3.2771039  49.8692417
  41.8448305   3.3518875  49.5644712  76.5552998  18.0264318   4.7501022
  77.3448181  18.5669196   4.7224677  75.8342695  18.6559355   4.7585362
  31.2713742  43.1556034  29.2489338  32.0275474  43.1380987  28.6623073
  31.6211081  43.4742022  30.0810480  48.5477864  66.1489995  65.8097647
  49.3183087  66.3151701  65.2667026  47.8111373  66.1927374  65.2001194
  75.9476137  54.5309782  12.2101772  76.2298775  55.4390335  12.1006882
  75.1495028  54.5899057  12.7353263  28.9530802  17.0523727  33.0029821
  29.5884514  17.3281491  33.6636496  28.2606626  17.7118301  33.0466032
  32.9357314  37.8227854  33.8196301  32.1069026  38.0609679  33.4042501
  32.8082824  38.0308938  34.7451997  74.7560501  52.4811077   2.7046138
  74.3910885  52.5488853   1.8223211  75.5755472  52.9740143   2.6633370
  34.4112110  19.1962119  62.3507742  33.7395143  18.9342710  61.7211382
  33.9373684  19.3043395  63.1754039  33.4442377  35.1858139  35.1188612
  33.2279491  36.0406113  34.7463441  34.1847444  34.8773813  34.5966029
  83.3196830  20.6007310  57.0587890  82.4270629  20.2569076  57.0940642
  83.5411548  20.7861730  57.9713635  51.7017889  31.4276981   2.9997626
  52.2032166  31.2674499   3.7992162  51.5947342  30.5615926   2.6065296
  84.7768759  80.3065120  11.5120709  84.1171526  80.9816499  11.6707718
  84.8109531  79.8082816  12.3286724  41.8245840   0.3411651  37.0314527
  42.0600271   1.2686536  37.0552111  41.0889626   0.2963634  36.4206457
  23.3674955  22.1043750  52.1288995  23.1643533  22.4013396  51.2418930
  24.3031263  21.9036456  52.1058874  69.3297863  32.1764898   8.4008378
  69.1954374  32.8961492   9.0175021  68.9791727  32.5026584   7.5720340
  27.0066428  41.1799526  28.8832974  27.4328899  42.0352173  28.8279629
  26.1146855  41.3363600  28.5731626  64.1059374  69.9942191  60.2815632
  64.4150041  70.5858834  59.5955269  64.4823860  70.3456457  61.0884206
  37.7683210  38.1148672  24.3126678  37.4253988  37.7481341  25.1276183
  37.0817995  38.7092304  24.0099335  13.8185763  47.1646357   9.3263596
  13.5209489  47.3940992   8.4460211  14.7035956  47.5250912   9.3815279
  59.1857386   1.2387794   2.4176422  59.0184259   2.1535605   2.6443896
  59.5033979   1.2699425   1.5152264  51.1961222  15.8900356  37.7549148
  51.6273642  15.1143789  37.3962736  50.9410858  16.3994682  36.9857168
   1.4823270  57.6769972  14.7555184   0.5871034  57.6716614  14.4167316
   1.4576459  58.2929993  15.4877508  28.5163212  16.6402888  19.8766088
  28.6417365  16.3620639  18.9693642  28.1592011  17.5257516  19.8083961
  60.2494669  75.6270123  46.4237547  61.0615921  76.0830498  46.2030315
  60.0335264  75.1276684  45.6361914  46.7819405  48.4304142  26.5624237
  46.5511274  48.1077862  27.4335527  46.6304016  47.6840019  25.9826541
  57.0332623  46.6848040  14.4224036  56.2840128  46.5156984  13.8512111
  57.3088980  45.8174610  14.7190034  59.8665308  40.0038756  70.3487695
  60.6508945  40.4085620  70.7192209  59.3798159  40.7328313  69.9641062
   1.5740823  80.1742847  69.1972257   1.5398597  80.6462534  70.0292759
   0.6614589  80.1233394  68.9130500  83.0981468  55.9754474  61.5658413
  82.3291324  55.5759843  61.9723867  83.8306688  55.7002230  62.1171103
  79.9154234  15.8117223   9.4528604  80.3046608  16.6045368   9.0838474
  79.6172714  15.3144419   8.6912519  10.3046059  78.6253773   2.2253498
  11.1650085  78.5047646   2.6270863  10.4476547  78.4492471   1.2954319
  71.9405842  37.8968906   3.4973791  72.5137472  38.3981895   2.9173651
  72.3789024  37.9225278   4.3479410  46.5898752  22.9117393   4.2070109
  47.4186230  22.9457927   3.7292558  46.2084341  22.0678258   3.9650545
  36.0440063   7.8308507  54.9736885  35.8972025   7.3840543  55.8073859
  36.0505962   8.7612601  55.1984815  48.4003973  35.7655096  11.4286017
  48.8844299  36.3580799  12.0037580  47.5392771  35.6840920  11.8385696
  52.6227592  80.3611667  65.4649071  53.3650230  80.8049185  65.8752222
  52.3935174  79.6619327  66.0770778  65.0745748  66.5362771  69.2035621
  64.1952728  66.2807567  68.9246870  64.9343108  67.0436652  70.0030099
  64.9647713  36.1023235   4.1160569  64.5670700  36.4405918   4.9183282
  64.2565203  36.1185527   3.4723556  30.3424883  20.3733941  67.5884069
  29.5171547  20.1197597  67.1752165  30.5409336  21.2337466  67.2187488
  75.3862619  79.8321676   3.4235087  74.8191500  79.8124886   2.6526451
  75.1726437  79.0290976   3.8985711  40.3800869  53.0236006   7.5551969
  40.4153013  53.9782667   7.6152188  40.9348011  52.7178717   8.2728666
   8.4736395   1.9893762  60.3667228   7.8812170   1.3885852  59.9147074
   9.3292665   1.5628883  60.3193728  61.7413712  74.6380758  40.7155418
  62.1342802  75.1268387  39.9923754  60.9791994  74.2079926  40.3277826
  34.6279883  23.3225775  21.7999673  35.2275920  22.6086164  22.0166826
  35.0080180  23.7259483  21.0195160   3.9940763   4.3683192  13.5255516
   4.9510503   4.3823165  13.5411274   3.7425256   4.1813087  14.4299734
  49.1424274  22.1335241  70.3619038  49.2108488  22.5912973  69.5240508
  48.3667707  22.5098535  70.7777966  62.0138836  38.0267835   4.4003007
  62.7469730  38.0352592   5.0157225  62.1161175  37.2067356   3.9172888
  80.4241943  54.6838045  29.2125797  80.5522728  55.5237913  28.7718463
  80.3369713  54.0504074  28.5002351  80.6067060  76.8155153  69.0728950
  80.7199072  75.8905108  69.2914885  79.6616339  76.9592936  69.1219057
   9.4051385  25.5557513  30.2444696   9.5233560  25.8931947  29.3565559
   9.3828416  24.6047211  30.1382709  46.4039611  12.0651075  57.4534683
  46.5800094  11.1324521  57.5775270  45.7753467  12.0963355  56.7322843
  78.0026436  45.5756140   3.1312934  77.8293943  45.2256107   4.0051997
  77.3393488  46.2549162   3.0095214  39.4008613  25.0362229  32.5866508
  39.4954777  24.1887259  33.0214214  38.8604116  25.5529714  33.1842446
  77.9795790  49.8157835  52.3659658  77.6002836  48.9638805  52.5819111
  77.8494501  50.3426981  53.1544209  72.9539776  56.1003828  28.5548019
  72.0575237  56.4007998  28.4052992  73.5029459  56.7861176  28.1744957
  45.8436155  78.7840079   0.9911476  45.5908441  79.1179048   1.8518755
  46.0798931  79.5652669   0.4911090  73.6546326  48.2524633  13.8473475
  72.7801752  47.8823996  13.7265003  74.2490530  47.5669527  13.5424316
  78.6811447   7.7277064  17.8797197  78.4265614   8.5843068  18.2227290
  78.2378054   7.0998544  18.4502339  74.3644857  23.6774230  26.9026494
  73.7710714  22.9596400  27.1237350  74.1716766  24.3556261  27.5500298
  41.1744356  30.9191537  11.3238132  42.0966768  30.6992507  11.1920929
  40.8292723  31.0436916  10.4397404  67.9737616  53.7447453  11.0597086
  67.9440784  53.6822414  12.0144045  68.8714647  54.0139961  10.8651090
  43.1863594  26.7326760  22.7337408  42.7133179  27.0445466  23.5052323
  42.7234459  27.1257377  21.9938469  78.0411911   3.0677625  63.3490757
  77.1509647   3.4190723  63.3664398  78.5997295   3.8362762  63.2322238
  13.4134603  18.3385730  31.1789298  13.9914823  18.0885148  31.8997598
  13.0498815  17.5105596  30.8651876  39.3756294   8.3661848  43.5323143
  39.4259191   9.3157798  43.4228992  39.8460317   8.1938243  44.3479443
  82.8679085  16.2209988   4.5614177  82.3534203  16.1346948   3.7588701
  82.5009060  15.5640578   5.1530027  42.4373960  80.9033897  36.0401440
  42.9481506  81.5045208  36.5823650  42.1533966  81.4344252  35.2961159
   1.8570565  80.4621442  57.2082726   1.2534427  79.7221239  57.1430711
   1.8619870  80.6859262  58.1389336  78.5547733  20.2784944  26.5483141
  77.7932835  20.7770944  26.8445587  78.8110113  20.6980205  25.7269883
  65.2839088  56.4235497   4.2172790  66.1306143  56.0113001   4.0459049
  65.2048969  56.4208412   5.1712090  86.3516258  12.8285619  30.2135055
  86.3369154  11.9749757  30.6464068  86.8075489  13.4018155  30.8297364
   5.2002168  21.4794850  53.5489225   6.0266710  21.2724161  53.1126499
   5.4500223  21.6861606  54.4495440  23.0081558  47.5186682  18.8798487
  22.5117016  46.9266176  19.4448614  23.9177966  47.4066353  19.1559541
  44.2142486   4.8675891  56.3184814  43.4819221   5.4510423  56.1196987
  43.9518833   4.0216561  55.9554402  72.2189665  50.3875923  39.5997596
  71.8562794  49.6654034  39.0867972  72.6117229  49.9652004  40.3636742
  86.3725090  43.2575893   9.4031703  86.4785099  44.2025280   9.2932534
  87.2594166  42.9337788   9.5605475  80.8224934  16.9650817  29.9528933
  81.5224373  16.5334630  29.4629788  80.2928072  17.3975432  29.2830873
  78.4504795  55.8953810   5.7776755  77.7885389  55.9320068   5.0872242
  77.9505730  55.9520626   6.5919924  12.9313326  12.2236940  51.0635488
  13.7147855  11.8235847  51.4408307  12.5771522  11.5527984  50.4798691
   2.6679420  55.3874881  67.1260054   2.2620296  56.1748166  67.4887509
   2.6861858  55.5409331  66.1813606   1.2335586  73.0130322  41.2691609
   1.5137433  73.2145937  40.3763549   1.1326932  73.8681252  41.6873424
  37.4586082  43.3764887  30.0835824  37.5651717  43.7395716  29.2043519
  38.2817030  43.5796118  30.5279756  22.1642399  38.3989525  24.7101212
  22.5791812  37.5951028  24.3972659  22.8897047  39.0115786  24.8310304
  47.6060534  62.6783323  23.5342431  48.2792044  62.6405239  24.2137027
  47.7694035  63.5054588  23.0810189  50.0592970  75.2273925  60.6194572
  49.9248623  74.6409757  59.8749606  50.9904074  75.1438267  60.8250849
  72.4521494  34.2704129   0.6579115  73.1699753  34.0330458   1.2449474
  72.0972157  33.4320140   0.3623772  14.9655532  69.4543035  65.1367824
  15.8232736  69.1919835  65.4710607  14.6370839  70.0786598  65.7837121
  24.9209022  78.9263184  48.3121626  25.8320808  78.6350949  48.2778565
  24.4835281  78.2798321  48.8662331  17.5881767  12.5751802  56.9855885
  17.1572590  13.4056874  56.7835991  18.4746647  12.6746722  56.6385035
  74.3149589  62.3557551  66.3227622  74.2058491  62.9564912  65.5855773
  74.7545408  61.5929539  65.9470846  65.0783371  70.0783189  52.9085605
  64.2931436  69.5309026  52.9022376  65.5329799  69.8356826  53.7151937
  19.1819429  10.5635616  65.3289537  19.0743112   9.8351737  65.9405915
  20.1080608  10.7964727  65.3944652  30.7497597  18.3409655   1.3616942
  30.5776262  19.1313565   0.8499477  31.5335917  17.9632807   0.9627035
  61.5825509  76.2233622  70.2927222  62.4433349  75.8943684  70.0337877
  61.7641853  77.0627196  70.7154711  53.5900259  69.8504782  17.9571688
  53.4934139  70.0103617  17.0183742  54.4013929  69.3482208  18.0323386
  56.3307906   0.6353606  10.5569756  56.9681740   0.2998484  11.1873770
  55.4941249   0.6004752  11.0206640  74.7827994  27.4964639  68.6180508
  74.1637193  27.0169135  68.0675952  74.8240184  28.3694574  68.2276417
  53.9284658  79.6181393  21.6671705  54.3675470  79.9413586  22.4539185
  54.6185875  79.5836973  21.0047674  53.1566715  37.3520565  13.5832942
  52.7613974  37.8061008  12.8390956  52.6911783  36.5169239  13.6290789
  60.0052929   4.9116775  50.0425450  59.5188236   5.6731244  49.7266738
  60.5012607   5.2387878  50.7930462  37.1472287  30.5082560   5.3056788
  37.1652317  30.1447487   6.1909866  36.2161422  30.5901742   5.0992882
  24.6049403  66.8813927  60.8774821  25.3782558  66.8941910  61.4414488
  24.8846149  67.3262198  60.0773923  18.2469606  64.5504506  53.8542180
  17.2902583  64.5344455  53.8278584  18.4975337  65.1087387  53.1181769
  34.5428705  51.8134975  33.1514549  34.2362213  51.0934830  33.7026167
  35.3254962  51.4691877  32.7211332  86.5832065  75.9143169  56.8432133
  85.6452106  75.8570011  57.0251898  86.8599914  75.0058062  56.7239241
  69.5848083  25.5980611   2.8832933  70.0229454  24.9511099   2.3303735
  69.0329981  25.0788236   3.4682119  82.6469135  12.1428287  58.0820942
  83.3022499  12.6648116  58.5450125  82.2781849  12.7420855  57.4331236
  74.9285698  47.4525595   6.6413039  75.8584929  47.5379705   6.4311135
  74.5135212  47.2339392   5.8069348   0.7600354  75.9349115  52.5900773
   1.3884258  75.3296073  52.9837243  -0.0920821  75.5240948  52.7362327
   5.4647947  21.1005735  15.8345795   5.4100156  20.3494358  16.4253628
   6.1903501  21.6224384  16.1773026  54.4091177  47.7355051  14.3319130
  53.5438061  48.0695343  14.5683408  54.9504519  47.9059076  15.1027262
  54.5272611  77.8360279  64.3367050  53.6488389  78.1412203  64.5635627
  54.7781371  77.2663815  65.0638877  55.6145000  42.5665665   4.8566768
  55.8373260  41.9681883   5.5697846  55.4379177  41.9941854   4.1100645
  52.3290110  48.8839722  28.6864424  52.2023439  49.6718073  29.2151260
  51.8763924  48.1943464  29.1720200  37.6709104  27.5866795  31.9091082
  38.4805679  28.0888796  31.8170047  37.7435660  27.1705580  32.7680564
  71.1591791   9.3662854  64.3513892  71.7083453  10.0338241  64.7625385
  70.7976412   8.8685819  65.0847463  43.6138916  78.3547592  44.9645901
  44.3001938  78.3353376  45.6315613  43.6610365  79.2377472  44.5980597
  67.8470850  64.7613001   9.7887021  67.1150589  64.6183252   9.1887611
  67.5102139  64.4971228  10.6448340  60.2089453   6.6737014  45.0087118
  60.9414864   6.1562574  45.3431797  60.4736853   7.5826925  45.1497126
  45.5146313  74.9388075  32.0744085  46.3028145  75.3381777  32.4425125
  45.7498598  74.0200758  31.9446826  22.9803561  63.1241353  61.6696952
  22.6112556  63.8073118  61.1099873  22.2303199  62.7817114  62.1559398
   3.2684732  45.3078699  31.0226846   4.0911031  45.2386808  31.5071726
   3.4162450  44.7984982  30.2258539  50.2143288  27.1898508  10.2900958
  49.3776798  27.1645045   9.8257601  50.4766178  26.2720490  10.3613353
  60.8977126  72.0229085  66.6428624  60.3053640  71.9312055  67.3891498
  60.5563234  72.7736147  66.1569343  39.4628310  58.8785887  26.7173743
  38.6090183  58.4506130  26.6535354  39.7194433  59.0378189  25.8090639
  57.5580454   1.4214887  43.1944704  57.8466463   1.7987624  44.0254974
  56.9671869   0.7116768  43.4460306  19.1350294  59.7103691   0.5946984
  19.3367315  60.5730534   0.2323101  18.3068967  59.4649458   0.1821555
  74.2677021  39.0766954  46.0985947  73.8475990  38.2166839  46.0873222
  73.7081671  39.6091890  46.6639280   0.9235502  10.9701037  12.7961051
   0.5664182  10.9934473  11.9083297   1.8360162  11.2408555  12.6944041
   4.3764305   0.2938481  68.8083289   5.0282335  -0.4042415  68.8720271
   4.7246551   0.8866235  68.1423037  46.6756248  49.2696381  11.8119192
  47.6069450  49.3321419  11.5998673  46.2468100  49.8464870  11.1797822
  69.7790051  20.3546047  40.6942511  69.8314381  20.5832386  39.7662377
  68.9540339  20.7398605  40.9896040  19.3795705  50.7218027   7.5308818
  18.8104654  50.7595062   8.2996035  20.1746870  51.1825752   7.7986860
  73.5401201  39.5714808  12.1634638  72.6645136  39.1847801  12.1649349
  73.4960699  40.2615833  11.5016091  72.1395874  40.9303284  40.1418638
  72.8647137  41.2403727  39.5993805  72.4395561  40.0882673  40.4841805
  57.9125500  49.4587564  17.6734078  57.4677610  49.7590923  18.4659958
  58.6716747  48.9721203  17.9945636  74.3376350  47.2557497  35.1686573
  74.2097378  47.5219250  36.0791636  74.0096521  46.3571835  35.1334763
  31.0284471   3.2819053  62.7360825  30.1636314   2.8916474  62.8626738
  31.1054659   3.3912440  61.7882715  70.9235334  42.7167416  37.1064806
  70.5594921  43.2758093  37.7928853  70.4555225  41.8870211  37.2000670
  79.8437500  34.5048308  16.4874840  78.9694405  34.8935819  16.5136278
  79.7495937  33.7416625  15.9174514  56.9698620  50.2110052   5.8597302
  56.0572195  50.4928493   5.7974339  56.9297552  49.2560911   5.8072329
  35.3967834  10.8328772  17.6352084  34.8784065  11.3208318  18.2750678
  35.8693552  11.5064383  17.1461046  76.9567954   0.0560018  67.6470305
  76.0826301   0.4281303  67.7635862  77.5530099   0.7757970  67.8535707
  52.7729321  23.9965582  21.9115758  51.8197680  24.0757990  21.9494963
  52.9342842  23.0532455  21.8926883  29.8152065  79.6736152  68.8526439
  29.1401290  80.2761228  68.5404140  29.3661403  78.8322361  68.9342323
  29.9006366  75.9434961   6.3346153  30.1620340  75.0871622   5.9960943
  29.2687416  76.2712966   5.6947064  19.1509532  72.0600684  58.6662428
  18.8549947  71.8800361  57.7739267  18.6363267  71.4668925  59.2135386
   9.2040395  71.6280611  68.1613941   8.8647794  72.4348099  68.5490694
  10.0161266  71.4563139  68.6380952  82.0128632  44.7370338  25.8489990
  82.6677322  44.8697281  26.5343976  82.1560669  45.4596329  25.2377892
  85.2689266  50.9482622   6.4489377  86.1630917  50.6842470   6.6657430
  84.8638248  51.1393023   7.2948837  57.3770237  27.7887508  68.3333276
  58.2694339  28.1223603  68.4256708  57.4762439  26.8367120  68.3311893
  63.6324883  12.3532629  40.5738544  63.9668322  13.1349790  41.0135937
  62.6834154  12.4013400  40.6886292   2.1996618  48.7245464  22.3591781
   2.4036241  48.7895918  23.2921290   2.7527929  48.0105019  22.0422959
  37.1085048  27.1021295  11.6200066  36.2697864  26.7536306  11.9222236
  37.0870352  28.0264711  11.8677223  84.1841292  14.8677703  66.2025942
  84.1970538  14.0024873  65.7935123  83.3503222  14.8984929  66.6716914
  71.8954729  72.0083077  70.9137804  72.2236322  71.2301643  70.4631859
  70.9444736  71.8996151  70.9176916   0.7499742  63.9364965  70.3767504
   1.5633058  63.4742840  70.5794444   1.0336494  64.7424085  69.9451665
  59.9881601  62.3190975  23.9852405  60.6914997  62.6283216  23.4143424
  59.4001055  61.8389320  23.4022641  73.4057426   6.3759061  62.6329402
  73.8533079   5.5318566  62.5738375  72.4867081   6.1723682  62.4592177
  38.2515073  68.3025026   1.3619186  38.7052083  67.7779341   0.7022077
  37.5003147  68.6727667   0.8984054  70.4304838  12.7186561  20.4973102
  70.7050371  12.4369633  21.3699508  71.2222385  13.0855227  20.1039100
  27.7821159  81.3990243  68.3024017  26.9984912  81.1190159  68.7754321
  27.4802875  82.1123345  67.7399771   2.8680206   0.2259768  30.6409025
   3.3893705   0.0557364  31.4254022   1.9639564   0.2492465  30.9545231
  68.4689283  51.3038540   5.7584232  68.7317801  50.3843212   5.7983369
  68.4260750  51.5806580   6.6737247   2.7232576  53.1747437  24.0106225
   2.5547529  52.3849487  23.4967518   2.2158075  53.0513573  24.8128057
  24.6262264  75.5176544  25.7279086  25.1980352  75.0990391  25.0844574
  23.9302397  75.9169102  25.2059650  79.4018507  60.8538389  12.2769833
  78.9297056  60.0403881  12.0992005  80.2733326  60.5696058  12.5526106
  39.3479658   1.0199393  38.7515879  39.4174028   0.2245844  39.2796183
  40.2127863   1.4253653  38.8143563  53.5234356  13.9128991  61.1924545
  53.0940055  14.4002696  61.8955116  53.4660720  12.9974004  61.4659600
  60.5505276  73.2160044  26.9621158  61.3077974  73.7920952  27.0665002
  60.3179359  72.9619646  27.8551984  86.8186760  29.0833759  15.9219229
  85.9232521  29.3924689  16.0594690  87.0770645  28.7143755  16.7664957
  10.2732969  68.7359619  49.1776085   9.9757505  69.5477533  49.5883322
  10.8649660  68.3451080  49.8205709  41.0518026  61.0776138  12.2542071
  41.9594288  61.3029146  12.0500267  40.5626106  61.8843603  12.0926905
  63.1224489  57.4041939   6.8170631  63.9974785  57.7711439   6.9431752
  63.2694864  56.4638805   6.7149729  73.5990667  25.5995917  28.5483170
  73.2265663  25.6825471  29.4261503  74.4336510  26.0657525  28.5972476
   7.9504132   2.6304217  65.4819725   8.1775307   2.3187276  64.6059040
   8.7938594   2.7860900  65.9069414  85.8647823  57.5364161  13.6148524
  85.7611275  57.1968699  12.7259243  85.5736160  58.4465504  13.5590649
   8.7897516  79.8983240  47.0150089   9.3049646  80.0788498  46.2287474
   9.3144918  79.2653275  47.5051022  12.3821950  25.4719114  10.3245127
  11.8339277  25.9485960  10.9477353  12.9866147  26.1314011   9.9839514
  66.8787241  58.3652210  17.0073247  65.9464216  58.1757498  17.1129131
  66.9027853  59.1591311  16.4731383  71.5860033  47.9063606  10.8397651
  71.8456936  47.6445770  11.7230892  70.8424091  48.4941864  10.9730399
  75.7760048  31.7487641  68.4039919  76.2159443  31.0641071  68.9079104
  76.1480522  32.5662538  68.7349312  49.7322273  56.2058210  18.0106378
  50.0688314  55.5309105  18.6000621  50.3945684  56.8964577  18.0342376
   9.0995883  78.3958705  51.7838387   9.2238569  78.1198056  52.6919000
   8.1780528  78.6500366  51.7347459  71.7331123  61.3590193  16.4813507
  70.9008455  61.8272209  16.5473700  72.1996641  61.5852356  17.2859561
  20.5736042  64.0648143   2.2737392  19.9578024  64.6450775   2.7212985
  21.4323689  64.3226211   2.6088412   3.8873077   8.9784754  67.3425722
   4.5021940   8.2520903  67.4450970   3.3377910   8.7242926  66.6011906
  74.1222620  73.6573505  55.2167082  74.0541792  73.4626961  54.2819881
  74.1274595  74.6134424  55.2624989  16.5578008  51.5443563  52.5702000
  16.3644052  52.1570349  53.2797480  16.6494966  50.6962490  53.0044079
  73.5776091  37.8113866  38.4970760  73.4308863  38.0872297  37.5923014
  73.2064009  36.9302416  38.5420251  86.1006546  48.8965511  23.0913925
  87.0537186  48.8333225  23.1537700  85.9252548  49.8365784  23.0488086
  57.9850578  70.9480286  33.3316445  57.9178905  70.7244301  32.4033523
  58.5375929  70.2608824  33.7041545  80.1442814  71.7939472   7.7540123
  80.2544308  71.1231852   8.4279376  80.8950329  72.3761892   7.8706259
  22.8042698   1.2583562  67.9798443  22.5630998   0.5131408  68.5300483
  22.2168064   1.1998340  67.2263925  72.3003721  45.1281071   5.5401051
  71.8908739  44.5805502   4.8702341  71.8324041  45.9614420   5.4872501
  24.1987419  54.1497135  12.7584684  23.7824035  54.9934959  12.5826013
  23.7140083  53.5261250  12.2177267   4.5293403   8.3134593  60.7484531
   4.6382023   7.7706564  59.9675894   4.2966200   7.6940764  61.4401531
  32.1877551  65.0185204   9.6857655  32.8652143  64.9434853  10.3578150
  32.3377228  65.8767366   9.2892760  38.8582658   8.7176820  66.1788989
  38.4566497   8.2478019  65.4480438  39.7222948   8.3171817  66.2752725
  61.7906427  60.0931406  57.9595995  61.4762306  59.2087412  58.1472540
  62.4025822  59.9804831  57.2322273  60.8871412  68.4230280  30.4460073
  60.9116554  67.5486660  30.8347511  61.4286518  68.3509588  29.6600032
  74.1714191  71.4719820  19.4597948  74.6897030  71.7171717  18.6933088
  73.7079906  70.6785059  19.1917193  58.4237098  26.8787595  38.2167856
  58.5273742  25.9808704  38.5318725  57.8448867  26.8011352  37.4583857
  65.1959848  55.5793428  49.1097260  64.4542313  56.1507034  48.9107800
  65.8547068  55.8045053  48.4527445  75.1532125  16.8440616  15.8778977
  76.0639381  16.5552890  15.8193934  75.1381302  17.6835430  15.4182518
   4.9882341  59.6110296  47.3992538   5.0866342  58.8253021  46.8615007
   5.8847070  59.8650932  47.6183987  49.4671226   3.3277071  14.5698106
  49.6226025   2.6388682  13.9236236  48.8183797   3.8993205  14.1591668
  52.4989605  67.9869556  44.5883465  52.9963350  68.0426884  43.7724161
  52.3266602  67.0520878  44.7004414  71.3501740  54.2166424  46.6347027
  71.9345808  54.9419880  46.4142990  71.6733456  53.4817839  46.1133862
  71.8749428  33.1747055  24.6959996  71.5794659  32.8455567  25.5448747
  72.7047157  33.6129928  24.8846984  30.6907010  53.6035633   7.0272833
  29.7460723  53.4562302   7.0741940  30.9254241  53.3688450   6.1294842
  62.0795774  60.1593637  11.2407470  61.6065502  60.9252024  10.9152198
  62.5064516  59.7942257  10.4657078  67.3079300  58.9759159  35.7340908
  67.4737024  58.0428505  35.8687615  66.5101194  59.1518688  36.2328601
  70.3255653  41.1827612  11.6353559  70.2290583  41.5651608  10.7631814
  69.4279432  41.0295200  11.9303536  76.5487719  23.7186469  12.3044240
  77.0071793  23.6094607  11.4712560  77.0613003  23.2052172  12.9288733
  79.8814202  15.8755244  14.8858547  80.0141096  15.1699866  15.5189717
  79.9582577  15.4490412  14.0323675  71.2827826  51.8117952  28.9015222
  71.0684538  50.8911228  29.0520453  71.2045431  52.2199917  29.7637773
  64.2938185  39.4279289  39.1427469  64.6057129  39.8961163  38.3683085
  64.9653530  38.7664747  39.3093491   4.1439081  37.8094530   7.2016186
   4.1083360  36.8607807   7.3240465   4.5233560  38.1418705   8.0151010
  21.7869901  12.5347444  53.0766193  21.6405820  11.6867896  53.4958641
  20.9327650  12.7752324  52.7178792  17.2358060  65.5890703  39.2868233
  17.9663396  65.1079655  39.6755266  16.6958452  65.8487892  40.0332928
  69.6262693  76.7756224  27.1388006  69.4790316  77.1437836  28.0100131
  69.5511532  75.8294678  27.2627878  77.6948309  33.5644317  20.1652884
  76.9907331  32.9845595  20.4555130  77.2462797  34.2750287  19.7069359
  36.2073637  12.4701346  15.6805599  35.8056093  13.3214415  15.5070424
  37.1099115  12.5647105  15.3760970  81.2376595  53.1891203  13.3441603
  80.8919525  53.7158203  14.0647864  81.8308735  53.7792301  12.8792965
  41.6073084   8.4019920  67.4378054  42.2467518   8.1769868  66.7619951
  42.0834827   8.2992908  68.2617850  75.9507942  43.3950710  27.3351884
  76.2136364  44.0508747  26.6893816  75.0315857  43.5917377  27.5157785
  58.8512516  71.5841722  12.3940921  59.3623114  70.7764101  12.4447572
  59.5005274  72.2834873  12.4691153  72.0653630   9.8032034  55.3472233
  72.5903130  10.4843749  55.7675457  71.2001419  10.1987113  55.2414227
  45.9061289  62.2014809  27.8675961  45.6537533  62.9955816  27.3964882
  45.7695436  62.4167252  28.7902260  70.6549120  26.3627720   5.8886278
  70.7293463  27.1982980   6.3497007  69.7405767  26.3247252   5.6079507
  54.3382692  59.5187950  11.2934470  53.8837910  60.2700567  10.9122765
  54.8005819  59.8776197  12.0509040   3.8129354  31.8631601  28.1785154
   2.8678251  31.7893577  28.3109689   3.9040304  32.2106433  27.2912788
  36.1842848  15.4470194   4.6820319  36.5044332  16.3273943   4.8786974
  35.3005339  15.5841959   4.3408573   0.3966642  58.1359768  54.8223782
   1.0008836  57.9885960  54.0947533   0.2206254  59.0766048  54.8007488
  62.3110056  81.4971542  12.0890832  61.6752434  82.1039104  12.4684167
  62.4067783  81.7868710  11.1818206  69.9745154   0.0846692  29.5083014
  70.1784729   0.6923886  30.2191464  69.2506622   0.4993602  29.0389411
  67.1182442  27.4552464  22.2043252  67.2368002  27.7092886  21.2890983
  66.1715221  27.3557305  22.3045635  78.8571357  32.2013065  59.7455983
  78.9972210  33.0312225  60.2015058  77.9304123  32.0055743  59.8837904
  41.9760036   5.1055628  34.1942763  41.4520216   4.3100649  34.1001487
  42.8292561   4.7958010  34.4979835   0.7285142  79.1511869  46.8584538
   0.3030134  78.3533859  46.5442896   1.6312433  79.0791798  46.5484142
  80.1960468  57.4702740  27.8244305  79.2996931  57.5533962  27.4990582
  80.6698322  58.1900835  27.4077296  72.7813483  23.7457217  37.4667597
  73.3731890  24.0739478  36.7898393  72.1721793  23.1763113  36.9967389
  64.3045330  30.0177690  36.4151017  64.1840076  30.8428785  36.8851082
  64.6979999  29.4300100  37.0600430  56.7319918  63.1518698  23.6406112
  57.6735592  63.0099583  23.5429406  56.6253233  63.4345388  24.5488787
  66.8057775  63.4631395  23.2153583  66.2425089  62.8251600  23.6534715
  67.6903439  63.2411146  23.5060096  83.9116192  54.3227482  36.4048934
  82.9635811  54.3012381  36.5352631  84.2578506  54.6792889  37.2229600
  47.4160814  68.0862999  10.0631034  47.8263807  67.2358561  10.2200544
  47.3358917  68.1414509   9.1108644  69.3692875  73.6826277  18.0041862
  69.7551346  74.4573736  17.5953877  70.1096439  73.0926275  18.1456304
   7.8450131  31.1781665  66.3721801   8.3867907  30.4871532  65.9911187
   8.3944821  31.9610807  66.3353009  53.6465359  57.7736378   5.9284544
  53.4301853  57.1833897   6.6502804  52.8406286  58.2657480   5.7716930
  49.9191284  57.7969599  24.2673564  50.0921822  57.0647192  23.6756516
  50.1053762  57.4492931  25.1395226  80.9341431  74.8652601  31.8709040
  81.1197758  74.5736980  30.9782863  81.7097950  75.3648567  32.1258640
  70.8060741  53.2003689  18.2638001  70.5615616  53.6972380  17.4830508
  71.6801071  53.5202837  18.4873080  33.7749481   6.8034764  66.3859416
  34.0346527   6.6498920  67.2943453  33.3825922   5.9765121  66.1059187
   5.7961202  44.5068359   3.7324443   6.2944437  44.6301031   2.9245403
   4.8808122  44.5854616   3.4636393  10.2173448  32.2719515   1.5488708
   9.5636774  31.6504229   1.8692556   9.8808075  32.5568045   0.6992614
  43.6546755  37.9232669  18.6192012  42.9134369  38.4228086  18.9616334
  43.2862902  37.0670986  18.4012616  83.4376717  69.4050026  29.1840267
  84.0812016  69.1120291  28.5388446  83.2314396  68.6193466  29.6904325
  29.2921472  50.6980610  38.1447315  29.9805761  50.1904535  38.5744190
  28.5166193  50.1391268  38.1934118   0.5118585  54.2824030  20.4117751
  -0.4390502  54.2380238  20.5119276   0.7279993  55.1993799  20.5811000
  53.7070751   0.5596133  57.1764497  53.7037849   1.2786266  56.5445976
  53.4897422  -0.2154282  56.6584651   7.0726228  20.0377774  21.8393254
   6.9616247  20.4941964  22.6733494   7.4332262  20.7001972  21.2499237
  16.6289545  78.9001417  34.7388387  15.9016538  79.4492626  35.0316310
  16.4475561  78.0401850  35.1180458  47.9592896  66.5844631  34.9815583
  47.7029514  65.7924604  34.5090675  47.7694559  67.2984552  34.3729448
  42.9756736  53.8263484  66.4477424  42.4697780  54.1590663  67.1890928
  43.6533117  54.4870349  66.3044031  67.7372313  52.1759319  17.3008299
  68.2569885  51.8743134  18.0458879  67.0132351  52.6623535  17.6951039
   5.6620431  64.0554380  21.6801715   4.8981786  63.6983585  22.1332097
   6.1375547  63.2852507  21.3688326  74.7315216  34.0258408  13.5951567
  74.7340631  34.7843719  13.0113268  74.6405363  33.2736635  13.0101919
   5.6719614  30.6031632  42.3534536   6.5554643  30.8026481  42.6630735
   5.8068872  30.0453115  41.5874052  51.0301447  59.7637892  14.0881395
  51.3664103  58.8923168  14.2971873  50.4286480  59.6195364  13.3576429
  86.4304543  57.6408720  28.3551884  85.8497429  57.9047203  27.6414704
  85.8398247  57.3401594  29.0458059  24.1347242   5.0451411  25.0724983
  24.0129877   5.1345004  24.1272855  23.2862879   5.2824439  25.4467583
  14.1801906   4.4833315   2.7363819  14.6784616   5.0638331   2.1610782
  14.4212938   4.7581519   3.6210132  82.2982429  67.0769437  62.5794254
  83.1011080  66.7561491  62.9901950  82.3000978  68.0183013  62.7528445
  38.7435532  72.9465008  32.1284413  38.9916635  72.0677757  31.8411994
  38.9023495  73.5017633  31.3650942  82.0724392  68.3565760  51.7169666
  82.5592613  68.1690741  50.9144211  82.6706982  68.1114483  52.4228144
   5.3660560   1.2508906   6.1835146   6.0420299   0.8638228   6.7398119
   5.7442642   2.0790900   5.8880746   1.2375665  65.8088589  40.8052874
   1.1442495  66.1563253  41.6923046   1.9555879  66.3143826  40.4243422
  67.9457425  66.8106516  65.2725355  67.0332192  66.5565188  65.4101984
  68.4385680  65.9958489  65.3697686  78.4862041  64.1509247   7.2732258
  77.9061651  64.3531799   8.0073100  79.2592955  63.7593079   7.6796752
  52.3716068  74.3760490  28.4969687  52.0081997  74.1660309  29.3572354
  52.9117203  73.6180210  28.2735729  45.7452965  55.0022745  10.1950896
  46.3107872  54.2387819  10.0787783  46.3066196  55.6544161  10.6144452
  40.4823328  12.0849741   5.2241856  40.6795526  11.2537707   4.7923955
  39.8661066  11.8535651   5.9191358   4.1722799  64.9038696   4.1071427
   4.6112562  65.0235462   3.2649958   4.2564035  63.9681196   4.2902473
  63.5509777  54.7454309  54.0722036  63.6421204  55.6950092  54.1511393
  64.0090752  54.5275021  53.2604885  10.8521677  10.4452075  10.8788204
  11.4930416  10.7707251  10.2467239  10.6484676   9.5593585  10.5787873
  19.8689317  17.8203078  39.0229098  20.4135656  17.6670762  38.2508175
  20.4911756  17.8727218  39.7483746  16.9039846  73.3172178  16.8003881
  16.6529203  72.4343157  16.5289366  17.7155138  73.4925747  16.3240457
  73.8766359  79.5862920  66.4922578  73.7097477  80.4658611  66.1535243
  73.0215286  79.2795212  66.7937906  45.9634685  38.7807723  70.4289833
  46.4465713  37.9724141  70.6004478  46.3405323  39.1173049  69.6160884
  45.3285433   6.9162310  18.6882901  45.6762625   6.0571898  18.4487796
  46.1019064   7.4752940  18.7631178  41.4679575  16.6095754  37.0160262
  41.6934013  16.4083024  36.1077873  42.3104572  16.6504165  37.4685256
  21.6824174  53.7532997  35.4710650  21.1819816  54.5690012  35.4917455
  21.0491085  53.0775738  35.7130170  60.5072784  79.0863419  14.0308845
  60.6564856  79.0595531  13.0857646  61.3806295  79.1912460  14.4083583
  82.7508736  81.0259914  46.2923717  82.1976662  81.5576172  45.7200384
  82.9763985  81.6094398  47.0169067  69.7338772  57.5063801  16.2519312
  69.5814848  56.5636396  16.1867380  68.8788891  57.8998375  16.0774994
   2.1271730  55.9324884  32.3853779   2.0771528  55.0129557  32.6465058
   2.8967882  56.2700701  32.8435946  10.8650136  65.0385284  43.7711668
  10.3098512  65.7506895  43.4536076  11.1439634  64.5805073  42.9783010
  78.6431408  27.9871214  12.6528287  77.8016663  28.2771433  12.3006392
  79.2646170  28.1338824  11.9397616  76.9000721  76.0767365  41.7340994
  76.3710594  75.4165936  42.1819735  77.2387743  75.6272936  40.9598207
  21.6176366  11.3739606  65.2963529  21.8789863  10.5356904  65.6774466
  21.7857694  12.0142003  65.9877674  83.9595414   0.9527911  20.2311349
  83.7571478   1.8290461  19.9033296  83.5619212   0.9248770  21.1013961
  48.7909412  45.6264925  11.1488068  48.0224371  45.7715511  11.7007029
  49.5150948  46.0149193  11.6396821   8.8888931  80.9891483  57.2998325
   8.6708879  80.3804561  58.0056636   9.0185403  81.8293735  57.7396588
  10.9513784  61.1319685  19.3801260  10.6241537  60.3768301  18.8913274
  11.6833044  60.7872725  19.8916852  70.6962967  49.6219110  30.2250314
  70.1844931  49.0898180  29.6157980  71.6046619  49.3708229  30.0575376
  35.3171110   5.4932567  61.4086704  34.6099329   5.9974929  61.8110083
  35.5787706   4.8669978  62.0836298   0.7828260  77.0852137   6.1244851
  -0.0565600  77.2731209   5.7045341   1.4107728  77.6423550   5.6645811
  40.6945133  18.9122268  61.5008704  41.5190982  19.1143056  61.0587643
  40.7973528  18.0081388  61.7979924   3.3518720  33.8893342  19.4324493
   2.5657678  34.1656470  18.9613628   3.0735040  33.1232238  19.9342656
  70.8886766  37.3111820   7.4105501  71.1650801  38.0118394   8.0012387
  71.3849735  36.5451455   7.6988429  67.8639269  60.1644182  41.9494963
  68.8036728  60.0262833  41.8310547  67.6411295  59.6456623  42.7224636
  78.7850761  47.0095634  37.9957533  78.0432367  47.2193432  38.5631156
  79.4701910  46.7156553  38.5961461  62.3939418  14.6678468  46.9326083
  62.6530265  14.8070213  46.0217111  61.5974331  14.1398975  46.8770806
  24.6464468   7.5264681  65.3831959  24.2682386   6.7004527  65.6846809
  24.4881941   8.1387366  66.1017513  86.2300587  22.2438025  15.4463947
  86.6767979  21.4865041  15.0680375  85.2987957  22.0541549  15.3323388
  67.9396963  42.8175926  15.9300423  67.7353954  41.9666576  15.5422223
  68.8440084  42.7322817  16.2319922  62.0672083  56.1025858  39.2274737
  61.5293312  56.6218996  38.6297846  61.4909315  55.3940630  39.5140505
  21.5400505  25.1050159  50.8943252  22.1662283  25.1526185  51.6167287
  21.9845628  24.5834609  50.2260296  45.3706979  12.8404113  67.3264254
  45.2419805  12.0495387  66.8027954  44.4848776  13.1553432  67.5063421
  47.9260349   5.0492021  48.7825100  48.3698129   4.3333884  49.2373697
  48.3827543   5.1199886  47.9442803  60.7538080  46.6800308  14.7979915
  60.6667519  46.5424156  13.8547444  61.0716009  47.5791550  14.8805404
  33.3676554  10.1462687   2.5323197  33.5948683  10.9301318   2.0321611
  33.4839846  10.4036368   3.4469017  28.5944343  30.1404023  21.9591355
  29.4400525  30.1239753  21.5109253  27.9919696  30.5209756  21.3200474
  47.8559494  54.9915504  20.6527305  47.2465611  54.6230602  20.0131273
  48.6586475  54.4825125  20.5396628  44.7099733  37.0871615   9.6894449
  43.9021826  37.2753692  10.1672363  44.7767305  36.1323357   9.6985883
  65.5887461  44.9568272  33.1189895  66.0964823  44.1606760  32.9622436
  64.8362064  44.8803520  32.5324154  18.5050512  24.8640823   2.7954638
  18.0146337  24.0434170   2.8427395  17.8657365  25.5079246   2.4905562
  40.5491567   0.0755156  10.8535421  41.1241270  -0.3792249  11.4690423
  40.2789141   0.8673419  11.3185263  20.9782148  63.4402990  21.5913272
  21.2044931  64.3417597  21.8202376  21.8180871  63.0247688  21.3959384
  11.1614465  80.5625684  64.4743435  11.7636966  81.0568936  63.9183132
  10.5437373  81.2173779  64.7997503  86.8831539  34.9042869   4.8723969
  86.5295696  35.7847762   4.9986970  86.4301872  34.3685961   5.5236208
  29.5539880  66.8365192  30.5596566  29.8955560  66.6703844  29.6810460
  28.9415479  67.5631714  30.4450989  61.1741854   0.2326621  24.9744368
  60.5963159   0.0757063  25.7212067  60.5802656   0.4128207  24.2457151
  30.1226831   1.6013945   6.2284648  30.9017397   2.1156062   6.0166240
  29.5123125   2.2353877   6.6049349  11.6680742  60.7183504  15.9106076
  11.9936777  59.8272800  15.7832849  11.1747003  60.6782913  16.7298806
  73.9538956  40.5211878  34.2755628  74.9103642  40.5221558  34.3129134
  73.7429190  41.0776281  33.5258341  16.4785600  73.3998394  19.6127903
  16.7405439  73.3345222  18.6944580  16.5434766  72.5043583  19.9446511
  21.6915060  36.3451719  30.1873231  22.5254560  35.8891058  30.3002691
  21.9317556  37.1967697  29.8222303  59.2416525  54.1554070  52.8528070
  59.1816092  54.8053551  52.1526670  58.3770514  53.7452078  52.8736162
  61.7168522  77.9207468   8.8626313  61.0415840  77.8991890   8.1845582
  62.4378061  78.4107208   8.4671879  37.9926229   1.8712748   1.9925362
  38.8923765   1.6981257   1.7155920  37.6237417   1.0047472   2.1636787
  23.9814115  10.3268469  20.0930977  24.1356397   9.4674529  19.7008085
  23.1461359  10.6126059  19.7231162  84.2251396  67.1716833   3.9611822
  84.1250229  66.6638756   4.7663778  85.1461697  67.0647335   3.7235188
   6.4862371  81.7134380  26.1782813   5.6446100  82.1454525  26.3240409
   6.3221860  80.7933617  26.3851070  69.9362707  70.5208349  37.2608066
  69.0487623  70.3359938  36.9535732  69.8633671  71.3621759  37.7114344
  44.2176104  58.2582235  21.6689587  44.6107626  58.1876087  22.5388288
  44.9602842  58.2176399  21.0664439  65.6022167  11.9426223  68.7012437
  65.9932232  12.8159305  68.6752571  64.6882057  12.0964500  68.9403218
  47.4576784  12.8985708   7.1301063  47.5424887  11.9680755   7.3380025
  46.6563011  12.9556482   6.6097529  82.0364952  57.7469397  12.8506994
  82.4344158  58.5963440  12.6598966  81.3304329  57.6638269  12.2097600
  83.9428043  25.8268996  42.0058815  83.8238048  25.5333205  41.1026208
  83.0693435  26.1006852  42.2857849  19.1192270  10.7014025  39.6691322
  19.2295528  10.9516467  40.5864334  18.6048199  11.4125002  39.2870808
   7.9886651  70.0886202  41.9710398   8.1051469  69.9845600  41.0266685
   7.1116090  69.7461224  42.1433687  68.6579609  52.0261240  38.5798192
  69.5778179  51.8877602  38.3541036  68.2769680  52.4257421  37.7979064
  65.7103586  40.5132771  46.1637163  66.2793779  41.1329031  45.7070827
  66.1304188  39.6628237  46.0352135  80.4854203   9.4450034  21.2616277
  80.5262375   9.7863234  20.3682828  81.0240841   8.6540354  21.2406611
  15.7895685  61.3223553  20.1125765  16.3171602  61.6946030  19.4059610
  16.4132524  60.8227730  20.6395173  53.0415630  43.4501525  66.7193518
  53.3523845  44.2892905  66.3795592  53.8313579  42.9144832  66.7936544
  58.5623766   7.7258337   3.4024569  59.0838266   7.7622736   2.6005885
  57.7027059   8.0584277   3.1444356  53.4474874   7.0688857  20.6588745
  52.8453756   7.3006190  19.9517727  52.9856134   7.3201407  21.4587355
  73.6903000  51.4379454  21.3356066  73.5923767  51.9273806  22.1523643
  73.3999586  50.5516815  21.5511847  10.6267095  70.1058388  41.6715670
   9.6708799  70.1444006  41.7051363  10.8817792  70.8966303  41.1963606
  65.8364105  63.1393194  20.6121182  66.3253260  63.2526398  21.4271951
  65.3859949  63.9742899  20.4849291  78.2396365  25.5919302  47.3347521
  77.5621939  24.9236620  47.4382782  78.1190014  25.9192027  46.4433622
  44.3619394  32.5722810  69.4658479  43.8999796  32.8137323  68.6630229
  44.5853519  33.4085914  69.8743835  76.7378044  48.0193138  43.4986687
  76.1991405  48.8002443  43.6260223  77.3452568  48.0241013  44.2384052
  59.3153572  77.9948378  29.2238855  59.8702240  77.2248936  29.3485141
  59.9313116  78.7221241  29.1351008  55.7933260   0.1386012  18.0773699
  56.5467001  -0.1921331  18.5665333  55.8109880   1.0847701  18.2212126
  12.2578073  52.1376228  24.3598557  12.8816343  51.4563084  24.1091037
  12.6069093  52.9380465  23.9678407  79.5765638  66.4650154   9.8998213
  79.6138525  65.5676222  10.2307653  79.9095488  67.0000315  10.6203139
  83.2505035  48.6231375  45.9903908  84.1733551  48.7941933  45.8024740
  83.2653999  48.0078316  46.7234755  77.4508238  54.3131590  28.0780554
  76.8315744  54.7233105  27.4742842  77.5290108  54.9359989  28.8006830
  85.4113007  53.6973763  51.1527061  85.1136780  53.6544800  50.2439642
  85.1812077  54.5814276  51.4386129  79.2677259  77.5821924  10.9358120
  79.6225119  76.8054533  11.3682938  78.7588072  78.0235338  11.6158473
   2.2797704  71.1066628  36.6527796   1.5104604  71.4971590  37.0673752
   2.7702833  71.8525648  36.3074398  63.7059689  70.2871037  17.4271798
  63.6479378  70.7997799  16.6209388  63.1002760  70.7188320  18.0296612
  60.5146980  57.9678508  68.6325735  59.9768352  58.7589141  68.5984520
  61.3801574  58.2779761  68.8990910  19.5626951  55.4280472  46.4612722
  20.4286600  55.0742769  46.2583303  19.4077039  56.0856676  45.7832289
   9.1295362  66.7711496  42.6057386   8.3926893  66.6097784  43.1950188
   8.7487913  67.2556973  41.8732882  66.4621639  44.6859237  66.9332506
  66.8738746  45.5345126  67.0963697  67.1568679  44.0476104  67.0950328
  31.7117525   5.6892241  18.2524776  31.9541097   5.5314101  17.3400176
  30.9789682   6.3030756  18.2029235  65.9802151  22.6482142  48.4617805
  66.1978412  21.7234171  48.5784960  66.5271330  23.1054438  49.1005754
  54.0385008  76.9615221  29.8783708  53.7243843  77.1779251  29.0004587
  54.9863482  76.8729067  29.7785282  55.7240391   7.8036129  23.1572342
  55.7420778   7.7010739  24.1087556  54.7975874   7.7352256  22.9264855
  78.2043718  44.4831042  69.9276762  77.6632141  44.6908940  70.6893882
  77.6454042  43.9319627  69.3799262  47.0770407  35.4025364   0.3867014
  47.3356295  34.5154452   0.1368322  47.1756601  35.4215956   1.3386169
  57.0677614   7.3579204  26.2597871  57.3398829   6.4417553  26.3129139
  57.7198458   7.7689344  25.6922626  31.5976214  11.5412199  10.0815213
  32.1035147  10.7662535   9.8371238  31.7014933  11.6054595  11.0308981
  -0.2915574  61.1244137  65.5748294   0.5574273  60.7638152  65.3190402
  -0.1490737  62.0702727  65.6106071  45.9082460   4.2393848  21.8473053
  45.2612829   4.9440354  21.8810415  46.7525244   4.6900529  21.8293238
  16.1115968  27.6081371  14.0216124  16.1710560  28.0005002  14.8926735
  17.0130348  27.6017904  13.6997414  71.6280365  37.2286916  24.7802973
  71.3410044  36.6102052  24.1084957  72.5537443  37.0249295  24.9136329
  83.4033083  76.1463554  31.3791530  83.9570402  76.9209988  31.2814490
  83.1585859  75.9124048  30.4838244   7.4131154  43.2973868  63.4385161
   6.7604732  42.5979297  63.4061746   8.2392787  42.8642087  63.2239334
  65.8169292  62.3397286  60.4814522  65.7837986  62.9083474  61.2507407
  66.2260865  62.8775437  59.8035304  66.1569070  33.5453935  64.8678265
  66.3736986  34.4320740  65.1559792  66.1252664  33.0321897  65.6752006
  19.1776132  63.8089489  16.4884710  20.1010370  63.5600041  16.5277576
  19.1129493  64.3677949  15.7140410  37.1392488  31.4378214  23.3322716
  37.3831534  32.2680902  23.7414122  37.0480824  31.6466093  22.4025798
  55.6533146  81.3228086  23.4278917  56.5193271  81.6415118  23.1735682
  55.5291366  81.6514268  24.3182969  86.3376545  77.9405387  54.7658424
  86.8352770  77.5842865  54.0298490  86.5720438  77.3813279  55.5065004
  72.1329069  24.1256094   4.8831078  71.6728115  24.9114656   5.1780206
  71.6425753  23.8354516   4.1139418   4.1098594  75.7250397  51.1222315
   3.8616418  76.6442787  51.0241461   3.4880900  75.2490067  50.5717516
  78.4109854  46.5524359  57.5161795  79.1740917  46.4152516  58.0774979
  77.7311157  46.8710632  58.1098883   6.7534757  27.4685526  29.0099549
   6.7668611  28.3991098  28.7860870   7.2001237  27.0400953  28.2797742
   7.1587038  74.7933750  13.3422494   6.2627959  74.4791709  13.2203674
   7.5654268  74.6973681  12.4810922   5.4270124  58.6545570  68.7740373
   5.3528976  58.1268771  67.9788683   5.0336026  58.1130881  69.4583432
  44.3960190  46.0543251  11.7148316  44.1153908  45.1620817  11.9182646
  43.5852814  46.5189695  11.5073919  50.6098318   4.2152425  58.3579497
  49.6658277   4.0596458  58.3875493  50.8481598   4.0685960  57.4425666
  50.2236557  77.3895030  16.7132926  49.8067045  77.4337371  15.8528137
  50.6310367  78.2482602  16.8264723  80.1587414  68.2350452  59.0008752
  79.3212770  68.0579360  58.5724894  80.2750706  67.5059493  59.6100692
  76.0649443   1.8522410   1.9160664  76.5710306   1.2055416   1.4242472
  76.3949156   2.6972616   1.6106318  40.5716276  37.4374890  30.9112716
  40.6265068  36.7094207  30.2922893  39.6331501  37.5985765  31.0089707
  35.8625603  42.6580906  22.7337742  34.9190116  42.6195049  22.5773692
  35.9507251  42.5901222  23.6844802  56.2099075  25.6686521   8.1471843
  55.4722500  25.5101442   8.7362266  55.8064222  25.9758234   7.3353487
  20.7861400  61.4475632   7.9402798  21.4994216  61.8393040   8.4442639
  20.5185008  60.6866360   8.4556317  43.4356128  18.7087233  69.1372546
  42.5574802  18.9118059  68.8149610  43.8689815  19.5595892  69.2039646
   2.0503854  63.0862076  57.6685850   1.8101835  62.3708899  57.0796434
   2.8271055  63.4761365  57.2674684  70.6743860  22.1709394  19.7434843
  71.2476683  22.2451043  20.5064249  70.9195042  21.3383937  19.3397319
  33.8950443  78.5820018  19.7914386  34.0499591  78.9621737  20.6561375
  33.4117746  79.2576375  19.3158364  27.5865364   0.2552720  64.9258904
  27.3728323   1.1865302  64.8682539  27.7072620   0.0947162  65.8617742
  17.3900413  48.5091348  65.1342581  16.8926620  48.1897695  65.8871518
  18.2786130  48.6312540  65.4685662  65.8081865  15.6273413   1.2034835
  65.7229233  16.1595583   0.4124669  66.0644007  16.2494969   1.8842995
  60.7540035  10.4133439  29.2775011  60.2553558  10.0602520  28.5406804
  60.8384991   9.6776581  29.8840141  11.4970111  64.6851833  63.7237082
  10.5482959  64.6051605  63.6248909  11.8396329  63.8373048  63.4409587
  25.2010083  34.0321779  11.6675436  24.5995045  34.0878701  10.9250319
  25.8887029  33.4343815  11.3743746  58.7921619  40.5234957   0.9554145
  57.9404688  40.8887911   1.1950248  59.2805576  40.4949474   1.7781430
  61.1951040  11.6688950  53.4693257  62.0939850  11.5751608  53.1539504
  60.7231950  10.9391148  53.0681340  60.7871580   6.1305523  42.2696495
  60.4750872   6.5690434  43.0612135  61.0268641   5.2510804  42.5617123
  18.3489751  58.9891799  63.6255418  19.0576410  58.3759816  63.4305648
  18.7945747  59.8004074  63.8696472  63.5215854   4.1433974  44.9148528
  63.1456852   4.5240756  45.7085888  62.7761840   4.0376683  44.3237202
  28.0475211  58.7156773   1.3886859  27.1965408  58.2911158   1.2800217
  28.6607218  57.9927063   1.5210830  12.2430562  69.6973617  62.6196591
  11.8497371  69.0206678  63.1706743  11.8208169  69.5877941  61.7676364
  33.2698535  79.9804242  31.1742560  33.6823653  80.1414902  32.0228545
  33.7506294  79.2364104  30.8115928  83.1990980  67.6420100  59.9942104
  84.0087436  68.0695422  60.2733485  82.8304790  67.2782500  60.7992141
  52.3549509   9.4584507  34.4872141  52.6221323   8.6256629  34.0982294
  51.6192579   9.2319667  35.0561547  69.2390966  43.7320805   6.2855297
  68.3212900  43.6182356   6.5323180  69.6850443  43.9338732   7.1081132
  45.1188755  34.4460106   3.0280575  44.4827080  34.0337110   3.6124691
  44.9321699  34.0705061   2.1676099  64.1599417  32.3378873  37.9896760
  63.2697201  32.6310563  37.7952886  64.1069174  31.9833612  38.8772178
  82.5652193  48.6664642  67.0613979  82.7859949  49.5589568  66.7950390
  82.9912494  48.5579575  67.9116653  63.0212663  32.5809409  69.0741603
  62.6077770  33.3723529  69.4190165  63.9108871  32.6023985  69.4267897
  69.4594097  24.4344187  18.5366154  70.0538254  23.8053370  18.9454663
  68.6932802  23.9156032  18.2914436  67.8951477  29.6970041  68.6278316
  67.8275203  29.0643640  67.9126917  67.6964234  29.1904504  69.4153231
  20.4679990  54.9970818  24.1688156  20.4904556  55.6282043  23.4494996
  21.3817000  54.9114561  24.4409323  44.6948194   2.0194980  50.6455080
  44.4890117   2.9020997  50.9535436  45.2240371   1.6385766  51.3462631
  52.7554941  12.0690918  15.4522288  52.8093338  11.2497520  14.9602771
  53.3808565  12.6500702  15.0190794  16.9735097  64.2582066  70.5606033
  17.8773593  64.2707784  70.2457511  16.5221404  63.6561544  69.9689674
  56.4090300  32.2940516  13.0888009  56.9685841  33.0700994  13.1185126
  55.5720854  32.6149487  12.7529681  24.3178081  59.7767372  41.2828700
  25.1327037  59.2747874  41.2680642  23.9022922  59.5836861  40.4424469
  48.3517838   9.7633117   1.2937018  48.8438416   9.9831593   2.0847617
  47.6116753   9.2442948   1.6084959  30.2241540  33.1407905  26.0434294
  30.8383012  32.4122930  25.9520578  29.7348619  32.9428506  26.8419504
  84.9248146  63.1552918  48.3465664  85.5038809  63.9102967  48.2422583
  84.1532635  63.5049732  48.7922852  58.0648661   3.0057749  50.4917717
  58.6517954   3.6199155  50.0506687  57.2625828   3.0244634  49.9700212
  71.4000654   2.5002030  10.0837886  71.8364096   3.2536489  10.4814744
  70.4978180   2.5519407  10.3992367  76.1447023  82.1318467  57.1327500
  76.6011642  81.2933715  57.2022943  75.2416490  81.9342549  57.3811178
  19.8406744  11.0782024  42.1887128  20.0610876  10.4558250  42.8817479
  20.5165863  11.7532703  42.2491734  67.6869320  70.8631189  43.3001511
  67.5418996  69.9359067  43.4884994  68.2048129  70.8658488  42.4951522
  65.2738857  28.3737588   9.4372648  66.0607910  28.6798191   9.8882008
  65.4455280  28.5471201   8.5116744  41.7602253  60.7022678   4.7293961
  42.2637796  59.8888337   4.7608900  42.2439718  61.3054215   5.2936894
  45.9257936  25.9186554   3.8190663  46.1874962  26.5798926   4.4597772
  45.7214069  25.1445317   4.3436509  23.4657096  78.9298685  41.6174285
  22.8635024  79.3475111  41.0016767  23.7193965  78.1130727  41.1876409
  64.6077298  63.2817586  55.0955085  65.3454827  63.1286867  55.6858663
  65.0072860  63.3665211  54.2298285  51.8417454  28.7794757   2.1715276
  51.2713909  28.0798340   1.8530519  52.5158691  28.3268714   2.6784152
  69.8047209  34.9838066  27.4310160  70.4666996  35.6748152  27.4540043
  69.2647028  35.1436114  28.2050133  47.6437855  32.3496056   3.0871925
  47.2255421  33.2074189   3.0132782  47.0679045  31.7596555   2.6008293
  66.3169861  15.1856422  15.3209662  65.5346775  15.0828552  14.7790587
  66.9046402  15.7262754  14.7931349  85.7520269  30.2159460  49.8673050
  86.3550018  30.8187814  49.4322864  86.1566137  29.3548854  49.7618882
  23.8395786  25.4655667  64.0287314  24.4688177  25.9171649  63.4662758
  24.2020750  24.5861550  64.1357873  66.9791697  63.3143909  56.7959468
  67.2292851  62.3909719  56.7647759  67.3818754  63.6446293  57.5990681
  52.2937155  10.2868617  30.5436063  51.7680454  10.5501580  31.2989736
  51.6984606  10.3661692  29.7982097  58.8501619  63.4889562  61.0250465
  58.6570333  62.7175672  61.5578614  59.5664333  63.2121236  60.4536001
  75.8886337  27.7774382  44.2761946  76.2483740  28.2687926  43.5376883
  75.1971054  27.2389126  43.8914728  76.8164348  26.2632962  69.7628709
  77.4350261  26.9907209  69.8294481  76.0521125  26.6381570  69.3252483
  52.9456615  52.1950579   9.0152806  53.5710716  52.7731848   8.5784018
  52.0913219  52.4733496   8.6852968  21.2881088  76.1072831   6.7161053
  22.1649742  75.8131265   6.4695084  21.3852596  76.4231836   7.6144373
  64.9993919  54.8576386  32.8166620  64.7754096  54.5283933  33.6870996
  65.0988411  54.0705199  32.2811381  53.5660457  69.2257630   5.6035417
  52.6941204  68.8327621   5.6425655  54.1661167  68.4896325   5.7229376
  80.8346294  45.9359731  65.8840559  80.4958748  45.9589840  64.9890993
  80.5482744  46.7638375  66.2699000  70.1531433  71.1551292  59.9802618
  70.3868030  70.8654864  59.0983645  70.9115957  71.6587837  60.2757613
  72.9026461  41.0075378  17.0218134  73.3397484  41.3885784  16.2602484
  72.9211426  40.0640535  16.8614054  70.4316807   2.2418167   2.7340558
  70.8140993   1.4864734   3.1806454  70.8637333   2.9984257   3.1304199
  40.0817776  27.1227908   2.0316680  41.0027313  27.1258903   2.2925654
  39.6827579  27.8192377   2.5531793  81.1071562  48.5754813  62.7937482
  81.9478105  48.4036644  62.3694680  81.2742828  49.3287815  63.3601759
  60.9258747  38.0525160  18.8797462  61.2036943  38.8328695  18.4000635
  60.6815720  37.4266195  18.1979811  86.5221428   9.9665424  54.5486383
  85.7072591   9.4864913  54.6961121  87.0674204   9.7509404  55.3052227
  69.5742725  52.8274293  61.0194723  70.4452633  53.0759938  61.3290308
  69.1192697  53.6596854  60.8908145  45.4960155  39.6177983   8.9074630
  44.8064804  40.2788353   8.9691383  45.0967216  38.8217402   9.2583066
  32.9559898  49.9362607  68.1815223  32.7439117  50.2054025  67.2877569
  32.4606323  50.5382915  68.7368680  32.5754237   4.5907405  50.1946449
  32.5790048   4.5646736  51.1514854  32.1294546   3.7846392  49.9347544
  32.4298191  62.0893680  19.9447834  31.5590191  61.8223964  20.2391768
  32.6336288  62.8629409  20.4704046  15.4156398  39.8636066  43.6264507
  15.5395316  40.6785346  44.1130464  14.6467065  39.4592485  44.0282742
  29.4040656  22.2365141   2.1266010  29.9667835  22.3872662   2.8861099
  30.0125694  22.0637274   1.4082022  43.8605118  70.2032042   6.8505341
  43.0615616  70.6729412   7.0898247  43.5668373  69.3120193   6.6613692
  63.7693596  30.2606559   2.7980050  63.3076048  30.6067276   3.5617140
  63.8370609  31.0058475   2.2010653  50.9523678   0.4812887   6.4150816
  51.9047499   0.5026051   6.3215387  50.6410503   0.0783756   5.6045419
  73.3062077  26.6303611  31.4675546  73.1833124  27.5119495  31.1155152
  72.8768492  26.6519713  32.3227859  63.4472418  10.0515711  22.6912141
  64.1629171  10.1114202  22.0583963  63.8632965  10.2084589  23.5388684
  37.7089214  75.7513197  59.8732881  37.4290084  76.6559775  60.0128560
  38.3476733  75.5884583  60.5673329  28.4187555  46.0219479   6.5822810
  28.2318950  45.3290319   5.9488910  28.0791998  46.8180704   6.1734754
  48.4662532  71.3272165  32.9692745  47.8505945  71.7761969  32.3899508
  48.6687612  71.9706099  33.6484408   0.1190376  69.3594558  38.3267443
   0.0266647  70.2926166  38.1346218   0.4704093  68.9824827  37.5201098
  83.4962343  81.3996585  58.6075906  83.4894584  81.6166957  57.6753454
  82.7885555  80.7634003  58.7105302  25.7420873   8.2095405  47.9952065
  26.6383886   8.4968444  47.8210394  25.2899742   8.3145400  47.1580665
  63.4587526  47.7357626  22.6646280  63.2995129  47.1742821  21.9059348
  63.0656672  47.2636700  23.3986878  50.1759529  81.1921257  52.8613186
  50.3694868  81.6773757  52.0592499  50.3163385  81.8261081  53.5645866
  11.9478357  42.2253370   1.7548244  12.0141733  42.8883171   2.4420565
  12.1279514  41.3982582   2.2017324  80.9047531  65.5646832  55.2832453
  80.8150934  64.6483238  55.5449264  81.5516733  65.9248145  55.8899002
  23.3575702  30.9546137  25.0566268  23.1621361  30.0354552  24.8744678
  22.9456353  31.1237025  25.9039474  26.2395286  62.8925641  51.9897561
  25.6550884  63.6158521  52.2167305  27.0580577  63.0947883  52.4429075
  35.9277344  21.7688417  11.2757528  36.4810014  22.5335884  11.4347899
  36.1272407  21.1743283  11.9989276  52.6904773   2.1206351  52.8518156
  52.2415828   1.2920781  53.0198042  53.5541153   1.8639060  52.5286059
  16.3889551   1.0702869  48.6709229  15.4409504   1.1922237  48.6194293
  16.7314100   1.9398900  48.8776771  54.7592974  18.7778735   5.7285374
  54.8570442  18.7522769   4.7766858  54.2335463  18.0054057   5.9361768
  70.9033989  29.7271807  66.4445288  70.5538296  28.8537021  66.6207911
  70.7071613  29.8817201  65.5204938  41.6800117  28.4138155  24.5120859
  41.2198782  28.5348916  25.3426576  41.4382124  29.1791558  23.9905334
  45.2999783  30.7260156  12.0091939  46.0343981  30.2904654  12.4418092
  44.9399042  31.3090444  12.6775146  54.7106743  42.1780014  13.1921208
  54.0807247  42.8923845  13.2872581  55.5531979  42.6160574  13.0717349
  60.3442907  54.2035007   4.2874095  61.1354780  53.8332701   3.8960147
  59.8204994  53.4415722   4.5350748  10.7648968  57.0477759  49.3769264
  11.2768316  56.4053618  49.8683119  11.3666343  57.7794992  49.2400885
  45.1485395   5.4234785  25.8082151  44.2850733   5.8194011  25.6903172
  44.9655533   4.5070991  26.0155725  27.3969531  33.9725637   5.2871287
  28.0559468  34.0623450   4.5987275  27.8856945  33.6556745   6.0466975
  53.2798624  19.4436145  15.3303111  53.3247900  19.1737831  14.4130301
  53.6928749  20.3069758  15.3465044  84.0169739  64.8861582  61.4243023
  83.9571403  63.9915354  61.7594175  83.5182403  64.8697980  60.6074600
  74.7835087  40.3532033  38.9068024  75.3675007  40.7540056  38.2629506
  74.5535396  39.5054178  38.5265319  71.5449333  13.7561667  25.5326986
  72.4104881  13.3475709  25.5423546  71.4326572  14.1003561  26.4187908
  77.0193624  38.9137650  22.4806452  77.2963238  39.6625113  23.0087566
  77.3821068  38.1531620  22.9346609  32.3336076   2.4913045  70.4840922
  32.4120044   2.8731223  71.3583357  31.4152479   2.2294685  70.4185582
  74.9439691  41.5172182  55.2362101  75.6001686  41.4115227  55.9250216
  75.3772711  41.2034974  54.4424467   1.6842889  68.1791814  58.6276953
   0.9034824  67.6320775  58.7128608   2.3901366  67.5612552  58.4375028
   3.1669711  40.1293689  68.6623001   3.7475967  39.7935638  69.3451917
   2.4028396  39.5537107  68.6932032  19.3713117  41.9542837   5.5643201
  19.3895912  41.0273647   5.8024788  20.2829528  42.1687698   5.3664899
  21.9913100  72.2137411  61.6602640  21.1257934  72.6113684  61.5653674
  22.5810527  72.9544408  61.8009792  58.7019682  15.1941192   8.4192079
  58.0833387  15.8555567   8.1093204  58.2035923  14.3769515   8.4097385
  13.9717508  10.3729451  16.1132002  13.8891721  10.8926249  16.9127905
  13.9607072  11.0180068  15.4060888  75.2609657  36.2620146  16.3942878
  74.5308231  35.6651528  16.2303225  75.8843063  36.0765301  15.6919543
  53.2638645  14.1345394  36.9641232  53.7792540  14.9295080  36.8276310
  53.6384869  13.4986258  36.3546109  58.3725166  29.3145299  19.1083586
  59.2527866  29.6827149  19.1844809  57.8551912  30.0119638  18.7056255
  66.9865036   5.7483101  26.4417052  66.7076445   6.3464427  25.7483745
  67.9047775   5.5640501  26.2440848  33.3607173  35.4135871  30.6446147
  32.8850412  35.4841805  29.8169804  32.8251624  34.8276114  31.1794472
  29.8584270  60.7458483   6.7708367  30.6768989  60.3131091   6.5277815
  29.3452358  60.7587635   5.9629399  12.7350211  60.0468874   4.8365167
  12.4837220  59.4069433   5.5025125  13.0114925  60.8156633   5.3353012
  37.3176336  25.3794690  64.3022929  36.8495416  25.9794255  64.8829619
  38.1806612  25.2813789  64.7045271  56.2659787  70.7168682  67.0231397
  56.2661098  71.3558943  67.7357952  56.1693977  69.8707493  67.4601589
  54.9434590  10.8392783  30.1941935  54.0637021  10.4857131  30.3255431
  55.5281045  10.1113053  30.4050843  54.2971182  32.2118688  16.8491161
  53.9134979  31.6998386  17.5610781  53.6076975  32.8264117  16.5975940
  22.2914409  50.6479896  61.9854961  21.4919614  50.2776070  62.3595153
  22.0317697  50.9477384  61.1143164  70.2891063   3.6472388  55.5496017
  70.9502792   3.1081411  55.9837083  69.6467209   3.0189725  55.2196674
  78.6758471  47.8626108  27.0000267  79.0302849  46.9761372  27.0691204
  78.9587831  48.1671524  26.1378002  76.0592245  75.6721671  52.3778383
  76.8722223  75.8018429  51.8895297  76.1321091  76.2647135  53.1260423
  -0.0241447  65.9613394  28.8154578   0.5442381  66.6476773  29.1649008
   0.5279421  65.4863476  28.1943178  67.3547506  31.4704084  23.0336022
  66.4642525  31.3164020  22.7181172  67.8106213  31.8558621  22.2853780
   7.6184965  22.7053046   5.8593893   8.5304285  22.8688431   6.0999453
   7.6138521  22.7365160   4.9027097  38.0599952  26.3741231  34.6171999
  37.1738172  26.4540863  34.9700809  38.5652733  25.9767675  35.3264475
  56.3500952  60.0941880  68.7784365  56.6393899  60.8556373  69.2811645
  57.1303963  59.8115297  68.3015029  60.2657795   3.9934856  31.9865251
  60.1224136   4.1292351  31.0499096  61.0957575   4.4343707  32.1681547
  37.2100091   5.1653755  11.3099551  37.9374766   4.7501394  11.7732048
  36.6940141   4.4343114  10.9700632   6.1303376  42.0136739  60.5282525
   5.9757137  41.6208011  61.3873069   6.2554359  42.9451221  60.7098739
  76.9180613  30.0899982  33.2693315  77.4202811  30.8229685  32.9132915
  77.1757155  30.0480080  34.1902447  25.2689933  36.9882841  33.4010903
  24.3623256  36.8051462  33.6473314  25.7925700  36.5501211  34.0719978
  49.5703840  17.2678232   3.5464317  48.8192940  17.3331141   2.9566559
  49.3773651  17.8879118   4.2496145  83.8905716  70.1856232   2.3134612
  84.2190933  70.9735203   1.8804210  82.9801846  70.3911018   2.5260839
  57.8508759   5.6334561   5.4043764  58.4108400   5.7353270   6.1739832
  58.0770588   6.3755471   4.8436856  18.6555338   8.0707189  63.0316977
  17.7042913   8.1772300  63.0271135  18.9955854   8.9596244  63.1339095
   4.9041247  77.6678043  17.8100026   5.1793480  78.0398779  18.6478841
   4.6916580  78.4280362  17.2685814  61.4941739  16.6084035  55.6818490
  61.8984913  17.1138032  54.9766342  61.2326549  15.7860382  55.2676515
  21.3642454  12.8327676  48.4879868  21.3592767  13.7867232  48.4094040
  20.4398679  12.5930043  48.5533015  70.4176449  75.5282767  68.0436738
  71.1818575  75.9084685  68.4768769  69.7827600  76.2436636  68.0066062
  55.0080061  52.7887630  21.6801548  55.2710295  52.1918821  20.9795928
  55.6566429  53.4921074  21.6516876  48.8196694  63.6613352  69.2996883
  48.7277912  63.4588416  70.2307024  48.8405608  62.8064687  68.8695715
  79.9190353  75.3336389  45.6776134  79.9590372  75.2572639  44.7243039
  79.4596647  76.1589606  45.8327071  36.5193605  72.6945858   8.6925840
  35.6091880  72.9264092   8.5079753  36.5241861  72.4644797   9.6217018
  53.7413120  33.5858130   7.3590827  54.6523285  33.8505030   7.4864388
  53.3304310  34.3384862   6.9337702  68.5155821   9.5965904  11.8261623
  68.6671925  10.4149878  11.3534343  69.3797350   9.3442631  12.1514452
  26.8107200  16.3764191  21.9600463  27.5452256  16.5747297  21.3791800
  26.2167788  15.8507216  21.4242220  35.0939083  76.5643311  18.5043216
  34.5744348  77.2966909  18.8360322  35.1564693  75.9604692  19.2443669
  19.1223001  79.6969632  34.9068880  19.7551393  79.6024336  34.1949821
  18.3024549  79.3608854  34.5447588  82.2799683  78.4408331   6.0255724
  81.6819286  78.4396696   5.2781922  83.0018616  77.8732109   5.7555622
  48.8688135  61.7763758   4.0238860  48.8425827  60.8465290   3.7982118
  49.6509838  62.1079111   3.5828331  67.7174711  40.3168249  12.1941340
  67.0114708  40.8291006  12.5882995  67.2869396  39.7998261  11.5132642
  84.3738842  19.7949326  31.1751056  83.7019157  19.1159654  31.2359238
  85.1169968  19.4409037  31.6636515  41.0333299  20.0983735  44.9252335
  40.9461498  20.8777019  45.4741232  40.4270219  19.4654199  45.3099315
  81.4773083   0.3387241  39.2478752  82.0950031  -0.1901835  39.7527909
  80.8584404   0.6704554  39.8984075  54.0973473  10.0887537  13.6529791
  53.8940668   9.1658533  13.5007834  54.8119783  10.2799356  13.0455339
  74.5085335  13.9113784  17.6920116  74.5244026  13.6189878  16.7807007
  75.4043150  14.2000580  17.8665638  37.2689581  74.0635061  22.1244216
  38.1835341  74.1947794  21.8743181  37.2397208  73.1693745  22.4648738
  73.9559222   5.3561629  17.3252487  74.2355681   6.2566222  17.1603179
  74.4398308   5.0947703  18.1086624   8.3882474  58.2413025  69.6780803
   7.5578880  58.1516416  69.2104293   8.9992570  57.6901241  69.1890950
  80.6266880  48.3294439  20.1792717  81.1651134  49.1208506  20.1769137
  80.9096622  47.8495598  20.9576464  52.6678896  61.8466377   4.0322623
  52.3995161  61.2239504   4.7078836  51.8474913  62.2241163   3.7149504
  12.6341749  32.7611041  12.2673607  12.0537019  33.3294058  11.7610919
  12.6195741  31.9260931  11.7996275   1.5592123  73.5687828  25.2775645
   1.1766935  73.2145452  24.4747972   2.3428750  73.0388975  25.4235601
  70.0707388  22.5911236   3.6744365  69.3580389  22.5611901   3.0361608
  69.6583462  22.9044580   4.4794106   3.6570691  27.9004247  57.1159856
   2.8168916  27.6683743  56.7204027   3.4272193  28.4727891  57.8479676
  38.7035369  78.3943589  60.3924541  39.0632915  79.2096455  60.0430052
  39.4600391  77.9363282  60.7587163  13.0722188  61.3957651  63.5048447
  12.3893594  61.4738615  62.8386377  12.9348516  60.5295248  63.8882337
  69.8984051  48.9811993  23.1496763  69.8809671  48.6290169  24.0395594
  69.2087746  48.5029984  22.6892781  73.8118792  63.3470869  11.4906991
  72.9435921  63.7189960  11.6456079  74.4190264  64.0405035  11.7491186
  11.4022350  61.8761118  38.5350863  11.7403173  61.0932524  38.9699022
  10.4837608  61.9200070  38.8009970  30.0242805  79.5879443  59.0504186
  29.5001411  78.9528425  58.5624115  30.8390044  79.6587784  58.5529797
  48.8668060  11.6113778  43.4947483  49.7360754  11.2946769  43.2491843
  48.9589643  12.5635978  43.5265223  51.6364431  12.4677694  21.6063046
  52.0319653  11.6673434  21.9514322  52.3812914  13.0257559  21.3825107
  30.3486181  70.7504845  35.4973698  31.3033033  70.7013321  35.5463266
  30.1643968  71.6758204  35.3359699  26.3939666  50.5668689  65.2254717
  26.9856643  50.4348494  64.4847367  25.5507564  50.2312113  64.9212353
  28.1926489  74.0288012   7.7535319  27.3678922  74.1461908   8.2249415
  27.9414320  74.0197962   6.8299294  58.5160494  77.1677017  19.7576869
  58.8538313  77.7306271  19.0610886  57.6385117  76.9232512  19.4637394
  46.7251587  18.5587903  40.7278864  47.1700191  17.8318139  41.1635892
  46.7255401  18.3189984  39.8012082  70.7195568  72.7402020  24.0727401
  70.4059458  72.3631096  24.8947382  69.9497366  72.7484894  23.5039306
   5.9739233  81.4819622   4.9219576   5.7122827  81.9769192   5.6983489
   6.8788076  81.2232304   5.0965595  84.8341345  39.4009861  51.6193239
  84.8551391  40.2221743  52.1106903  85.7349037  39.2779936  51.3197903
   6.9324327  57.8231478   3.0154127   7.6705099  57.6035881   3.5839874
   7.2437692  57.6261139   2.1319637  57.0350933  18.3382428  43.4147167
  56.8148184  18.7712157  44.2394829  56.2421894  18.4160089  42.8841591
  11.5642095  26.3156605   7.3976886  10.7554365  25.8130693   7.3001027
  11.8755746  26.1000752   8.2767820  34.1589164  18.1335374  70.0138250
  33.7505579  17.6444551  69.2994912  35.0956154  17.9621240  69.9166485
  73.0526495  46.3952827   8.9922005  72.3666334  46.9356108   9.3841839
  73.6164761  47.0188618   8.5345078  57.0584726  18.3344197   7.1629351
  57.7196312  18.0151689   6.5487874  56.2531042  18.3765137   6.6473347
  31.4636135  38.7539077   4.8585579  31.0526037  37.9825473   4.4682956
  31.2841249  38.6728382   5.7952774   8.2520318  15.2256739   4.5726174
   9.1900754  15.4031241   4.5032066   7.9086233  15.9523773   5.0924277
  29.1677713   1.9080039  42.0918362  29.4591713   1.7337199  41.1968820
  29.1173505   1.0436221  42.4999206  85.9059023  62.1081097  61.4875965
  85.4616092  62.0932396  62.3353074  86.2457250  62.9996617  61.4108930
   2.6461626  22.6541543   1.9967365   1.7821622  22.5862741   1.5903869
   3.2550836  22.3755455   1.3127568   4.8829198  21.0095000  27.6094675
   4.9741388  21.7119098  28.2533073   4.3082738  21.3745213  26.9365764
  76.5770483   2.2849345  14.2778170  77.3087549   1.6834106  14.1399384
  76.8062067   3.0617559  13.7676525  61.3869143   2.3992459  27.7705693
  61.2310028   1.7742187  28.4785700  61.7554045   3.1677285  28.2063246
  22.9654025  75.8648379  58.2881872  23.8028049  76.1316092  57.9089419
  23.0844592  74.9401839  58.5051505   0.0544000  46.5273571   1.4095908
   0.0358892  45.5704880   1.3924165   0.1476884  46.7485142   2.3362073
  14.8409795  58.2598324  51.9055049  14.7261285  59.1661174  52.1913163
  15.6116866  58.2833989  51.3383297  74.3073963  72.3272641  39.5606868
  73.8418411  72.6979096  40.3104274  73.6713003  71.7422707  39.1491119
  76.2908840  19.8477197  19.9499714  76.9206142  19.2977309  19.4839466
  75.7105494  20.1802826  19.2652464  21.3829279   9.5471450  62.8322725
  21.5599537   8.8793441  63.4947960  21.3857174  10.3723642  63.3172790
  18.9176202  29.1233850   7.4829674  19.7615743  29.1844368   7.0354867
  18.4783578  29.9491501   7.2795129  85.7739544   8.8312089  25.1614356
  86.2174416   8.0337870  25.4506969  84.9698067   8.5205734  24.7454000
  75.1471853  30.1784992   9.6110749  75.1907158  30.2206802  10.5663538
  75.3532505  31.0675740   9.3224335  72.6049042  43.4531546  12.4307024
  71.6725016  43.6476135  12.3356056  72.9897404  44.2720985  12.7428877
  59.2674494  41.3519669   9.3620461  60.1580572  41.1885977   9.6724594
  59.3314028  42.1712255   8.8711727  78.3777212  78.7060125  49.7963850
  78.1136011  79.0505226  48.9432828  79.3103098  78.9121945  49.8596518
  78.3735752  56.6525745  44.3088198  79.2205667  56.2076092  44.3379736
  78.5894156  57.5828886  44.3733215  65.6144810  45.5486965   6.5257347
  66.3096619  45.8080006   5.9209901  66.0720634  45.3328466   7.3382980
  60.2978182  36.6900301  16.1648357  61.2393332  36.7219257  15.9952319
  59.9059868  36.5168643  15.3088486  53.1905937  36.2531209   0.5360677
  53.0532312  35.3905344   0.9276123  52.4559164  36.3617802  -0.0678185
  34.4415140  27.7809640  69.5680111  34.9556017  27.5652763  68.7899218
  34.8265648  27.2491046  70.2644969  38.5866117   5.1168843  62.2274773
  39.1938877   4.4033834  62.0316152  37.7650499   4.6782609  62.4485676
  57.9363346  12.7014323  69.7216597  58.1223964  12.6775905  70.6602999
  57.3372936  13.4403440  69.6149210  37.0865965  11.1435720  68.0329473
  37.3379039  12.0647784  67.9662357  36.4658308  11.0121461  67.3162801
  83.5512447   8.7276145  39.0435855  83.8547897   9.6352931  39.0291874
  83.2990288   8.5738250  39.9540631  54.9323416  19.6714485   3.1365660
  55.0221539  19.1553104   2.3354621  55.2975893  20.5273223   2.9122692
  71.0579920  30.0726891   3.7700295  70.9468937  30.9502363   3.4042442
  70.6669283  30.1254344   4.6421075  35.5333662  38.0197811   2.1308024
  34.6365118  38.1267333   2.4477285  35.6556988  37.0721698   2.0733804
  84.3120931  75.8878572  53.2071380  84.0794300  76.2356169  54.0680448
  83.6160587  76.1975773  52.6276211  72.7306436  76.6745646  43.0275576
  72.3655008  77.5119693  42.7418010  72.1577190  76.3945682  43.7414138
  10.2406240   9.2675412   6.3793021   9.7173238  10.0489759   6.2011117
  11.0418630   9.3948823   5.8713329  64.1243337  71.9391854  35.8690612
  64.7020839  72.4832995  35.3339211  63.3990501  72.5182827  36.1032454
  75.8788490  70.6626511  14.7289538  75.5109549  70.3700495  13.8951242
  76.6905642  71.1095762  14.4889355  72.7549623  62.0838578  68.9125225
  73.4278415  62.2783764  68.2601239  72.0160078  62.6409276  68.6678746
  85.4994678  24.3563243  63.0864273  86.3226890  24.7517749  62.7998088
  85.2602195  24.8452827  63.8737736  79.5233940  13.0401536  57.3142282
  79.7512411  12.3511668  57.9384224  78.8146519  13.5233518  57.7390043
   8.2605838  48.2752223  69.6799944   8.2863807  49.0404297  69.1055172
   8.1431817  48.6385430  70.5577450  43.1126356  48.2704878  18.7495351
  42.9911709  48.6819363  17.8938556  42.4172497  48.6398792  19.2937934
  33.0361604  13.4193774  55.6687300  32.5463533  13.7222644  54.9041490
  32.7942085  14.0296479  56.3653366  17.9942728  27.8666639   4.6762404
  17.9615522  27.9824829   3.7266368  17.1626306  28.2221484   4.9896771
  66.5734386   8.4535897   1.5102270  65.7052851   8.4689206   1.9130963
  66.7604637   9.3705833   1.3092913   2.9308629  37.8977752  14.0361583
   3.7754369  38.0107331  14.4722378   2.6089216  38.7893224  13.9030075
  76.6953039  43.2116079  20.1792383  76.3514233  42.3666000  19.8895073
  77.6020861  43.2189798  19.8727798  77.1755028  20.9485960   1.4729033
  77.0711899  21.3782907   2.3218518  76.4631319  20.3101826   1.4384505
  73.3031511  70.5223227  16.6889083  74.1314268  70.8044577  16.3008404
  73.3511591  69.5663309  16.6871071  53.1178665  43.4160662   4.3998018
  53.9795399  43.0477715   4.5950216  53.2023144  43.7660074   3.5128742
   0.3938055   3.8775464  49.9799172   0.7523679   4.7195359  50.2604787
  -0.4403043   4.0985271  49.5655982  31.5415096  17.3468419  65.6364153
  31.5746593  16.4909764  65.2090721  30.9163999  17.8507110  65.1152722
  16.5537286  41.3525295  22.1596241  16.9519926  41.0335636  22.9694843
  16.1888814  42.2063494  22.3922372  69.7765017  20.0900364  24.9084187
  70.7298136  20.1584244  24.8559427  69.5493507  19.4141197  24.2698479
  51.0607052  22.9066133  14.0970945  50.8653879  21.9946504  14.3125153
  51.5105963  23.2445669  14.8714447  21.6718148  73.1130655  57.2508506
  21.7731857  72.4982889  56.5242104  20.9597015  72.7478798  57.7759819
  79.3475961   2.0227262  61.1293714  78.8400840   1.9130679  61.9335101
  78.8161730   2.6069614  60.5885474  45.8817672  72.3743327  70.6719197
  45.6853580  71.9686897  69.8274626  45.4445743  71.8148477  71.3138484
  75.2610016  11.4898086  39.6523881  74.9968386  12.4053526  39.5616722
  76.1928988  11.5295815  39.8673749  64.7250557  60.5611944  21.5271711
  65.1779175  61.3632345  21.2666440  64.2604685  60.2814627  20.7384157
  70.1652098   8.9101863  43.3806849  70.7911682   9.6063036  43.5802555
  70.5738020   8.1152302  43.7232208  68.3177279  62.8188594  62.0625596
  68.8729166  62.4340732  61.3843725  68.2263087  62.1273787  62.7180968
  28.3981157  68.7835836  35.7689977  28.9412809  69.5715761  35.7525897
  28.2463861  68.5780191  34.8465276   1.9647931  79.8825510  42.2539513
   2.8726672  80.1343186  42.0847957   1.4459180  80.4846747  41.7206160
  76.7732191  30.0691438  14.3665862  76.3023996  29.3109059  14.0206981
  76.9306946  29.8543167  15.2859783  70.1929926  60.1374133  45.0228183
  69.8116468  60.9849103  44.7935693  71.0413288  60.1287182  44.5795576
  34.4223547  18.8764334  22.1177292  34.7082639  17.9933524  22.3515081
  35.0997114  19.4501603  22.4758577  64.3022346  43.5317039   5.4428899
  64.6679497  44.4145870   5.4976690  65.0588894  42.9687595   5.2791941
  16.2699604  12.5803682  54.1638534  15.9671783  11.8021318  53.6959819
  17.2154235  12.4567004  54.2477123  82.1331501  33.5935926   1.8918625
  81.7492008  34.1500258   2.5695032  83.0333424  33.4481812   2.1829861
   8.8889337  28.0787921   7.2943753   9.6517301  28.5584092   7.6173890
   8.1385160  28.5882258   7.6003039  18.9145707  71.3774808  68.8261944
  18.4360074  71.6067941  68.0295609  19.8124933  71.6624434  68.6565977
  83.0007935  56.7813778  42.6246929  83.2988453  56.2702274  43.3771086
  83.5506439  57.5648355  42.6344252   6.5424489  72.2466428  65.9320153
   7.0793723  72.8389676  66.4584131   6.1557388  71.6448720  66.5680663
  61.4284324  24.9775907  59.2049603  61.2661647  25.8596727  58.8705460
  62.3297691  24.7854348  58.9463179  59.6733284  53.0078888  22.6533747
  59.3625736  52.4895000  23.3956265  60.4709005  52.5625563  22.3673987
  28.7089539  22.1677089  41.8976879  29.4191098  22.5732684  42.3951101
  27.9147696  22.5872755  42.2285414  24.3632555  66.6022097  22.1106362
  24.5823669  67.3814415  22.6215363  24.8389911  65.8919190  22.5412130
  20.2488542  49.6518993  27.0879340  20.7180429  48.8988733  27.4471736
  20.0180173  50.1778269  27.8536630  66.9967318  50.6059885  12.1050751
  67.2433615  51.4727831  12.4276793  66.0912466  50.7082033  11.8120229
   0.5438257  56.7702293  21.5194178  -0.1876902  56.6585636  22.1265841
   1.3097120  56.4712286  22.0095778  60.1926661  45.4171610   6.0265422
  59.5433569  46.0106277   5.6491458  60.9969473  45.9347916   6.0642487
   7.5493074   6.1713637   9.7758323   7.9600740   6.4519919   8.9580607
   6.6847349   5.8553065   9.5134449   5.6072164  47.0935202   8.4161687
   5.4624391  46.8746567   7.4956411   4.7277952  47.2086906   8.7761515
  25.8774686  51.3380146  26.4413238  25.2839113  51.3941002  25.6924772
  25.9241415  52.2330141  26.7775154  23.2451105   3.9794418  55.0191597
  23.0469608   3.0623647  55.2087252  24.0616369   3.9499398  54.5205204
  27.5483703  80.6265604  33.3897758  27.4653005  81.5795507  33.3560014
  27.7428007  80.4354573  34.3073320  21.0045838  56.6223145  35.9511232
  20.2287292  56.1545610  35.6421137  21.6858554  56.4021397  35.3158116
  58.8366795  39.0177464   8.2405794  57.9659462  38.7169957   8.5005903
  58.9225721  39.8810363   8.6450368  66.7085361  21.4539027   8.5038185
  66.5052557  21.2977815   9.4260639  66.1347008  22.1771741   8.2511842
  65.6910515  37.1710396  40.2935839  66.2619638  36.8551326  39.5932317
  65.6540251  36.4462280  40.9176922  70.2231789  55.5408144  10.9989917
  71.1357450  55.6809235  10.7463634  70.1391315  55.9789324  11.8458796
  44.6268940  34.3328786   9.0417105  45.4177237  33.8976908   8.7232190
  43.9235735  33.9808965   8.4961110  71.3303328  16.0716558  18.1323886
  72.0781231  16.6493547  17.9797363  70.7216692  16.5993023  18.6494505
  86.8710709  47.0214558   4.2897806  85.9431553  47.2171354   4.1597188
  86.8758965  46.2070656   4.7927549  80.8248806  32.7858520  22.0270371
  80.3271294  33.2176757  21.3327765  80.6736946  31.8514800  21.8844843
  37.1194029  65.9018468   9.0348113  36.8092250  65.4185092   9.8005825
  37.5180530  65.2348255   8.4758896   6.5736150  65.9294565  50.0408451
   7.3440599  66.4048989  49.7300450   5.8313560  66.4133222  49.6786873
  33.8171053  76.3476896   1.0431620  33.8291216  75.4410982   1.3500446
  34.3309855  76.3340616   0.2357138   3.8482690  56.1977673  34.7006440
   3.8795877  57.1384144  34.8750854   4.1909528  55.7946968  35.4983497
  55.9785938  45.4906607   1.6105945  55.6075907  45.1899052   0.7810555
  56.0270548  46.4423513   1.5202491   5.8783626  71.8826897  49.1865580
   6.5866231  71.4294465  48.7292067   5.1434850  71.8585737  48.5736911
  48.7374353  70.9365033   3.4569740  49.5338821  71.0169159   3.9817947
  48.1823015  71.6583227   3.7519917  78.2605696  39.9997854  20.2778006
  77.6877642  40.4596615  19.6640933  77.6907682  39.7718048  21.0123610
  27.9114484   0.9398051  59.1546885  28.4010934   0.8741065  58.3348338
  27.1321678   0.4026099  59.0119593  22.0842695  21.8402167  63.3948199
  21.6097068  22.6312181  63.1392066  22.1837902  21.3469573  62.5805573
  40.2473879   4.3442291  16.9059086  39.5141196   3.8128465  17.2160375
  40.5848837   4.7699150  17.6940203   8.6756254  52.8227901   0.6995635
   8.2849527  53.6503839   0.4190448   8.4583879  52.2062206   0.0003617
  78.6685038  53.5553026   3.0294532  79.5726442  53.3093119   3.2250372
  78.1515598  52.7919483   3.2869148  36.4856147  71.8012841  70.6636511
  35.9137058  71.3585217  70.0366671  36.6235255  72.6713045  70.2891185
   1.8580175  58.6975050  27.0158339   1.0314489  58.4850597  27.4492884
   1.9427705  58.0393648  26.3259745  55.3377437  34.6374627  56.3169639
  55.0199699  34.2289277  55.5117647  55.6637191  33.9075061  56.8434052
   3.9327741  71.8712568  53.2647324   4.8808408  71.9393301  53.1517458
   3.6278558  71.4321375  52.4707317  38.5306669   2.1843089  32.7754068
  39.0668798   2.6560820  33.4126949  37.6965357   2.0419730  33.2228589
  72.9863071  59.5719719  28.6224389  73.8618231  59.2480326  28.8340235
  73.0658865  60.5247545  28.6683083  48.4433460  52.0757914   4.4848239
  48.1567430  52.6541853   3.7780333  49.2049932  51.6196012   4.1270295
  81.3408661  22.2463703   2.0100179  80.6021595  22.2723508   2.6181895
  82.1065617  22.1132207   2.5687778   1.9880796  29.3650126   0.8093475
   2.3325944  28.5546756   0.4339865   1.3583494  29.0745759   1.4691296
  54.4321871  48.5458183  20.9234786  53.7180805  48.0005693  21.2536144
  55.1827812  48.3145046  21.4705873  12.7062536  39.8335695   3.0433300
  13.0610395  39.1548061   2.4691850  11.8861986  39.4649220   3.3717176
  26.4200902  39.3016410  14.3269956  25.8925462  39.6005034  13.5863125
  25.7953096  38.8631606  14.9045897  71.1015629  71.4370020  44.9653260
  72.0205854  71.2815554  45.1832025  70.6137203  70.8877118  45.5789391
  77.6622581  59.4689035  27.8883982  77.8348637  60.4097033  27.8519535
  77.9298878  59.1428328  27.0291638  12.9278707  31.9117709  39.6913139
  12.9665327  31.6156884  38.7818806  13.0129528  32.8636428  39.6371238
  38.8339496  76.5477943  33.2572651  38.8899779  75.7823610  33.8292861
  39.6058774  76.4835644  32.6949167  63.5283375  79.9251318  59.3085766
  62.9180002  79.7877979  58.5841036  64.2968798  79.4039297  59.0763712
  45.2716970  28.0650684  60.8146290  45.9949684  28.1939288  60.2010278
  44.5930624  27.6314422  60.2972726  51.6638374  32.6452705  62.4698119
  51.7805957  33.2956525  61.7772750  50.8902025  32.1483442  62.2037481
  17.4025440  66.4607699  47.2703330  18.1603479  66.8561132  46.8394439
  17.5294208  66.6507681  48.1998674   8.5413003  42.6469898  18.1648469
   8.6076284  42.8884363  19.0887177   9.1765333  41.9392681  18.0560446
  81.8973637  39.4749999  22.3605466  81.9121170  38.9756727  21.5440392
  82.7639198  39.8785543  22.4101949  65.2665614  66.0139759  65.5909727
  65.0624560  65.2812560  66.1720876  64.4123052  66.3610919  65.3340857
  69.2599821  62.1537924   7.4704194  69.4233894  62.9949999   7.8969175
  68.8925076  61.6024113   8.1611949  84.6756983   6.0910166  39.2439461
  85.5929327   6.3451422  39.3456054  84.2279911   6.9016589  39.0017891
   9.0392423  38.9727402  22.3591089   8.9543558  38.4905696  23.1816292
   9.1063047  39.8898435  22.6249194  50.8418083   6.4324781  41.0610191
  50.2995586   6.7421266  41.7864935  51.7305565   6.6999885  41.2951128
  34.4356441  47.7684612  70.2513635  34.6968459  48.4163184  70.9058000
  35.2578162  47.3665698  69.9707482  43.1186247  45.3080511  20.0145912
  43.7628603  45.7412720  19.4546747  42.9431486  45.9404087  20.7114172
  12.6429582  62.8500271  24.4176364  12.2021795  62.1760607  23.9002252
  12.4555231  63.6672735  23.9558887  61.8598652  69.6406412   5.4626524
  62.4734068  70.3584576   5.3059989  61.9476271  69.4500589   6.3965732
   1.0194135  62.2297764  10.6071937   1.6290594  61.5952587  10.9839666
   0.4292226  61.7036581  10.0676477   7.9720712  43.9851856  13.5583246
   8.0204607  44.5890331  14.2994463   8.7813783  44.1389418  13.0708706
   5.8787942  68.1213379  27.0083570   5.2772069  68.3897829  26.3139153
   6.7124677  68.5290909  26.7739105  59.5887709  34.2913866  17.5028694
  59.4873333  35.2217531  17.3019791  59.9200106  33.9059353  16.6917336
  64.1147137  49.1777849   2.8938740  64.5456123  48.3336973   3.0282971
  64.3390322  49.6878481   3.6721724  73.7140656  58.8554144  11.8385708
  73.7024927  58.3612490  12.6582646  73.2965517  59.6889877  12.0555222
  35.4718589   6.3789197  44.5748655  35.8792734   7.0388004  44.0137927
  35.9575081   6.4315673  45.3980367  76.2582064  59.2228603  10.7267523
  76.7007685  59.2239094  11.5754986  75.3399038  59.0516853  10.9356773
  52.9185962  18.4623071  50.5814974  52.1025562  18.1168386  50.2196090
  53.6068725  18.0276080  50.0779693  68.8341426  10.8668395  51.8524377
  69.1439724   9.9862977  51.6405849  69.1495895  11.4116737  51.1314074
  76.9411039  43.3134937  11.6388226  76.9084120  42.3669481  11.5002060
  76.1695242  43.6491776  11.1825132   9.4320201  57.3636778  52.8705959
   9.1974782  56.5256114  53.2691781  10.3878211  57.3465331  52.8217928
  64.5412219   6.0925166   5.7675012  64.3304528   5.3402774   6.3206227
  63.6906207   6.4660709   5.5369218  59.2978048  32.6233022  10.6943353
  60.1217548  32.2539012  11.0119470  59.1202439  33.3555143  11.2847360
  58.9069016  12.8722446  21.9264634  59.5073605  13.3376663  22.5087579
  59.2784082  11.9932048  21.8522676  28.1968188  67.5846529  55.1855230
  28.2150984  67.5545740  54.2289686  27.3579025  67.1887875  55.4216146
  65.2105612  65.9335964  17.2417005  64.8887838  66.6871421  17.7365335
  65.8398867  65.5132358  17.8277715  60.3745926   5.5211131   1.1688073
  61.0009149   4.8572128   1.4572366  59.6240465   5.4120748   1.7527803
   2.0432306  13.5687674  48.7283945   2.1688819  12.6859606  49.0763950
   1.4535880  13.9908446  49.3532228  52.6993806  38.2386844   2.5899966
  52.6151372  38.0390994   1.6576322  51.7989803  38.2511155   2.9145797
  12.3996806  34.0486765  54.1170597  12.9675817  34.6962667  54.5346069
  12.2387552  33.3962536  54.7987318  66.8833029  78.9381695  38.6062598
  66.6401600  79.6265984  37.9872465  66.0493421  78.6276388  38.9588380
  53.5752437   5.9460084   3.9513095  53.9914868   6.1446588   3.1125529
  53.0795843   5.1434629   3.7885888  66.7391204  61.5083885  40.0537157
  67.1258854  61.4125109  39.1833973  67.2666990  60.9394646  40.6142664
  13.1796920  58.4160280  45.5259132  13.8141108  58.2607412  46.2256527
  12.4149001  57.8979206  45.7767010  85.6168369  70.3048563  43.8463879
  85.7765071  70.3434706  42.9033899  84.9071148  69.6699333  43.9433336
   2.4969552  29.8927426  26.2992907   2.9518330  29.4026351  26.9842076
   2.9773438  29.6860123  25.4975915  15.4668915  57.2655392  43.9312696
  15.8135152  57.6587200  43.1303358  14.7082281  57.8050232  44.1540146
  79.8477166  38.1865382  31.0366106  79.8909324  38.3274603  31.9823933
  79.9062258  39.0648723  30.6606603   7.7359915  24.4482077  62.7739716
   7.7277565  24.6219958  61.8327141   8.2386542  23.6385668  62.8636551
  84.3248942  61.3733768  69.1894436  85.1955790  60.9757137  69.1876459
  84.4845382  62.3002434  69.0114927  39.3780828  66.8450451  54.8621130
  38.6241245  67.2398186  55.3002167  39.3284965  65.9166908  55.0900078
   3.7211606  72.5503111  47.7868271   3.2695934  71.9202280  47.2253036
   4.0095690  73.2401180  47.1891499  19.0648866  27.5310935  64.6899176
  18.1534779  27.2401656  64.7202921  19.0165615  28.4813822  64.7941160
  79.4067955  46.9667196  44.6020794  80.0714731  47.5353146  44.9908447
  79.5821058  47.0015383  43.6617136   0.2989823  79.8645544  52.2330046
   0.6309754  80.3155231  51.4567041  -0.1206281  79.0753794  51.8904257
  36.2407595  10.6351031  60.4302788  36.0028625   9.8332156  59.9648476
  35.5612219  10.7356966  61.0968637  35.9832311   5.2303160  70.9368372
  35.8828420   4.9316252  70.0329924  36.4551008   4.5206297  71.3726139
  44.7981573  40.1113479   5.9565480  44.7142304  39.1593234   5.9032901
  45.5939854  40.2533309   6.4691194  40.2193308  69.0117455  51.5102959
  39.4685555  68.4918451  51.7971325  39.8651648  69.8910999  51.3778687
  64.5887143  12.4239986   5.4017385  64.9443746  11.7126052   5.9343322
  64.7507525  12.1511857   4.4986613  24.7040153  65.4914713  26.0175347
  25.0357318  65.0094700  26.7750764  24.8508573  66.4117336  26.2361336
  31.8063230  15.8411253  46.7911625  31.0752996  15.6198920  47.3681307
  32.3924405  15.0864256  46.8470430  72.1766925  18.1406535  47.1251488
  71.8260121  18.1531466  46.2345839  71.4027095  18.1670702  47.6877213
  76.6436743  53.5497141  49.2137194  76.0750246  54.3182087  49.1659689
  77.5305426  53.9090824  49.2371511   5.9896779  66.9553185  55.1151705
   5.3931421  67.7015877  55.1739836   5.4571521  66.2022543  55.3711843
  48.4414006   1.5496100  54.2995882  49.1483903   1.8954504  54.8443747
  48.8099635   1.5242518  53.4165573   5.1534289  50.4706192  53.1304264
   4.3021619  50.6400633  52.7268648   5.7719749  50.9814882  52.6082706
  77.2747875  54.2508285   7.8091701  77.2248090  53.7217395   7.0130570
  76.7666472  53.7601631   8.4551366   0.8725549  19.9566762   3.6406644
   1.3759900  20.0901668   4.4437631   0.2343847  20.6700914   3.6366637
  71.3104176  78.2131577  39.6656156  72.1091914  77.7005434  39.5414519
  70.6012213  77.5759983  39.5801759  61.4288879  39.7091834   6.4906819
  61.7157809  39.2570751   5.6972535  60.6005514  40.1213233   6.2452682
  12.3777461  67.1142912  64.2696667  13.2797980  66.8630791  64.4682312
  11.9435573  66.2910604  64.0460443  77.8471237  77.0356512  68.6653852
  77.4359303  76.3667870  69.2129087  77.1639394  77.6937962  68.5375881
  57.6624555   7.0347850  41.0234101  57.6668578   6.4348762  41.7692788
  58.5178654   6.9116037  40.6119092  25.0271344  60.6190252  53.1022596
  25.7974792  61.1145258  52.8242636  24.5384097  61.2272453  53.6567402
  81.5783900  52.8782749  49.5010567  81.1494231  52.3553562  48.8237238
  80.8955651  53.0306721  50.1543236  80.3815056  34.0567605   6.8994077
  81.2729121  33.9220111   7.2210725  80.2239466  34.9937026   7.0158084
  38.5083545   1.0322512  46.8431520  38.8581384   0.1711596  47.0720434
  37.6693923   0.8456934  46.4217615  74.8686122  65.2792978  37.3148036
  75.3487861  64.9904537  36.5387678  75.3225135  64.8613930  38.0466247
  74.3875790  11.3099421  51.5446186  73.5951901  10.8666075  51.8476248
  74.4428492  11.0923232  50.6141281  74.2431509  63.0397511  45.3906631
  74.7185051  63.8507462  45.2102327  73.4345984  63.1183481  44.8844051
   6.0399796  18.0694644   3.4565146   6.2810661  17.7690236   4.3327840
   5.1229383  17.8129403   3.3592351  15.2082563   6.9432200  60.9124660
  15.5931831   6.4062537  60.2198410  14.5129907   7.4352015  60.4756594
  61.6479969   7.1599043  38.8282156  62.4572635   7.2003306  38.3186221
  60.9690786   6.9591368  38.1840158  47.1284092  50.4237716  19.5729764
  46.5899206  50.0023906  20.2428277  46.6573930  50.2683608  18.7543042
  30.3984595  38.5039012  21.8682130  30.3394843  39.2128818  22.5086148
  30.0096989  38.8669936  21.0724385  31.2709001   4.4060935  52.7296877
  32.0866979   4.6656550  53.1578636  31.2578798   3.4514082  52.7977896
   3.9720079  70.3280926  70.3277683   3.7413692  69.4415331  70.6053495
   3.2875413  70.8822012  70.7028723  86.4701939  35.0133265  53.3383656
  86.0878110  35.3101958  54.1641283  86.8808007  34.1754950  53.5520697
   1.0231774  67.0736217  36.6920424   1.9783445  67.1351480  36.7021465
   0.8430048  66.1352301  36.7485452  85.4094693  29.4175005  37.2436595
  85.0162272  28.6249614  37.6090026  85.5170878  29.9999857  37.9955626
  81.5467149  68.1243896  67.6364708  81.2908768  67.4070549  67.0566320
  80.7190775  68.5286188  67.8969526  73.6966110  38.9462869   1.6402610
  73.8534392  38.5098855   0.8028920  74.5412887  39.3331878   1.8706067
  25.7278776  73.2286692  45.8088923  25.9613705  72.3018360  45.8607197
  26.5671659  73.6885262  45.8278179  25.3325713   3.2761897  58.2572794
  26.1800462   3.5679663  57.9212952  24.8241973   4.0811575  58.3563709
  77.9245543  20.2688349  62.7804661  78.3759570  20.3564299  63.6199903
  76.9949770  20.2569712  63.0084467  52.0069397  31.1099021  14.5865853
  51.4087874  31.3893239  15.2796777  51.6317738  31.4745490  13.7850125
   2.3905422  70.3954649  57.1124983   1.9717792  69.7171926  57.6424217
   1.7318293  70.6292152  56.4585209  30.1656508  52.9689932  65.8979750
  29.7582722  53.8293076  65.9986544  30.0383997  52.7502823  64.9748278
  68.0367757  12.7443759  59.9478372  68.5398138  13.4392135  59.5231278
  67.5470401  12.3335044  59.2353948  84.0055000  78.6204052  48.3176517
  84.8377391  78.6518574  47.8458261  83.3733633  78.3127737  47.6680374
  70.4808199  35.2831507  53.4835577  71.1066412  35.7552457  52.9342794
  69.6814560  35.2460742  52.9583216  37.2758651   4.2628039  43.2756376
  36.6457761   4.4374217  43.9747286  37.8409356   3.5755576  43.6286497
   6.0652429  26.1569595  67.2143459   5.9718341  26.3593721  66.2834644
   5.1956433  25.8610582  67.4835491  63.3548964  54.5889442  12.8132184
  62.4162168  54.7630088  12.7438386  63.4348596  53.6459224  12.6698621
   4.8779902  77.9562569  54.4198704   4.3071556  77.6611233  55.1292896
   5.5541980  78.4743738  54.8563623  65.6340087  24.1982429  20.8080991
  65.8866561  24.1525428  19.8859723  64.8970962  23.5921876  20.8848508
  20.9420681  73.8073778  35.9015393  21.8345332  73.7171364  36.2355995
  20.7273078  72.9413223  35.5550504  12.5526167  12.6476590  36.3032373
  12.9483868  12.5328224  37.1671899  12.0688988  11.8357246  36.1515458
   0.9176363  50.4960823  31.6720128   1.7348331  50.0096178  31.5635014
   0.2620588  49.9676037  31.2168670   4.6141526  72.3186588  58.1329298
   4.6697500  72.9624939  57.4268007   4.0807867  71.6112280  57.7705860
  44.4151461  23.9996088  59.5327330  43.9605797  23.6140955  58.7837505
  44.8244727  24.7910632  59.1830301  76.5274990  23.9443128   3.0614026
  75.8812547  23.6907880   2.4023660  77.1983600  24.4176595   2.5693448
  22.5115013  67.6623583  69.9015999  22.9813147  68.0731201  69.1758013
  21.9473243  67.0115709  69.4839716   9.1387440  40.9167545   3.8543399
   9.3109490  41.4059608   4.6588643   8.2369567  41.1418407   3.6255343
  52.2720909  15.0156821  54.5670319  53.0216432  14.9289835  53.9780617
  52.0018053  15.9295786  54.4777775  49.8142934  -0.1003229  43.0344772
  50.2547694  -0.4345094  43.8158417  50.0553179   0.8254374  43.0011463
  79.7260094  26.3512008   6.5709909  79.8565174  25.4029386   6.5688785
  79.3647624  26.5451782   5.7060607  48.5081995  19.0124262  55.1471853
  48.3154941  19.8907698  54.8191643  47.6554430  18.6587752  55.4001141
  75.1024603  59.9008560  52.6217890  75.7016015  60.2066994  51.9408178
  74.8059344  60.7003593  53.0566406  75.5898916  73.5792208  57.6743317
  76.4486658  73.2148123  57.4599838  75.1734435  73.7264442  56.8251371
  85.2044202  27.3218584  48.2480049  84.6829462  26.5854287  48.5673332
  86.0866274  27.1515989  48.5780859  28.6269499   0.7827680   1.3204988
  29.0605045   1.5901630   1.5968593  28.0118585   1.0613315   0.6420501
  44.9812806  17.7060716   5.7880004  45.3631604  17.4102466   6.6143687
  44.6767581  18.5951869   5.9695800   5.1573616  73.4753370  37.3829651
   4.5412090  73.3451986  36.6620946   6.0168761  73.4977531  36.9622922
  62.5018143  60.5074835  36.9985700  62.6595139  61.0375404  36.2172866
  62.7567410  61.0732937  37.7273369  74.7917485  46.8721342  52.4132299
  74.7893226  47.8004789  52.6464605  75.7140672  46.6185999  52.4490070
  59.1140270  57.9683256  39.1636157  58.7881827  58.6923504  38.6289692
  58.7383246  57.1853495  38.7610865  14.9617553  34.8701382  67.9815817
  15.0769329  34.2194343  68.6740780  14.0514636  35.1532388  68.0679369
  66.5490579  29.3265057  42.8112650  66.1860656  28.4827328  42.5419807
  67.1224200  29.5821619  42.0886803  85.4242530  31.8314934  53.4934568
  85.0716336  32.2220778  52.6938725  86.3284517  32.1430135  53.5336018
  11.9115174  40.5663919  31.6807151  11.0227811  40.9181261  31.6291213
  12.0326090  40.3563833  32.6067090   0.6403928  58.1656265  43.8617229
   0.1707509  57.5295639  44.4012499   1.4971784  58.2485628  44.2803764
  13.5367382  55.2162743   9.0985441  13.7017500  54.8460007   8.2314223
  13.7671769  54.5139360   9.7066981  70.3062605   5.3350574  26.1378193
  70.3756797   6.2818748  26.0155511  71.2027180   5.0500679  26.3149548
   0.9219340  61.8653584  45.2121210   1.0714773  62.7816820  44.9792862
   1.7530459  61.4308548  45.0205708  11.0484445  41.6123056  51.3347769
  11.1981142  42.0219278  52.1868610  11.4787567  40.7597733  51.3999701
   7.8772712  54.6239996  33.1361437   8.5599363  54.2103100  32.6078796
   8.3434159  55.2704430  33.6662865  14.0265727  68.4172773  48.0403566
  13.1361258  68.6400127  47.7688360  13.9095819  67.8410673  48.7956905
  76.2345910  64.6644354  44.5040226  75.9088301  65.2449989  43.8162279
  76.7893528  65.2242994  45.0471783  78.2195307  20.4779212   8.1699403
  77.6913703  20.5437629   8.9655192  77.9086209  19.6804921   7.7413686
   4.2608309  81.8350056   1.1416896   5.1292420  81.4383725   1.2108405
   4.0449405  82.0964078   2.0368369   4.7177395  55.9003735   9.4316155
   4.0876454  55.7112026   8.7363267   4.6749908  56.8502665   9.5416462
  64.4072198  31.8662453  57.0058918  64.6933412  31.9711447  57.9132843
  63.6482119  32.4439311  56.9257784  57.1180320   7.4554003  61.4453983
  56.1855245   7.4049319  61.6554308  57.3764539   8.3373202  61.7130947
   3.5773960  32.7216148  42.7760983   2.9002926  33.3981514  42.7839088
   4.0060791  32.8215933  41.9261217  21.0337257  76.1581087  68.4951878
  21.9264245  76.3487244  68.7832594  20.7610965  75.4162169  69.0350914
  84.7879627  48.8024712  68.7178087  85.3655862  48.3104849  69.3013668
  85.2803538  48.8769579  67.9003525  82.3608661  33.6174934   9.2129643
  82.8274251  32.9488151   8.7115367  81.7392374  33.1248252   9.7487672
   5.2747822  63.1263590  58.8120842   5.1597226  62.3389864  58.2800674
   6.2087029  63.1395626  59.0214872  56.6465928  76.0178917  26.3143039
  56.5727747  76.6704999  25.6179667  56.0675453  75.3072070  26.0388732
  22.9508066  24.7184920  33.5524106  22.3606777  24.7052598  32.7988815
  22.4149632  24.4068432  34.2817783  75.1728510  51.9317484  56.7807817
  74.9134421  51.0277319  56.9587898  75.1108872  52.0157766  55.8292913
  74.7078883  74.0749025   3.1954736  74.4618821  73.5998821   3.9892435
  75.3381347  73.5017538   2.7589849  14.9148571  53.3686447  54.0979767
  14.9411976  52.7639675  54.8395300  14.0097499  53.3294296  53.7889862
  39.5957244  77.0110492  16.7061265  38.7024540  76.7197779  16.5232022
  39.6106243  77.1585754  17.6517709  80.5969435  54.6736336  39.4019365
  80.6251126  55.6294012  39.3577909  80.9043705  54.3850136  38.5426259
  13.9170527   1.0845917  28.5867023  12.9680014   1.0647753  28.7097454
  14.2664933   0.6128916  29.3427587  26.1480093  65.0223589  23.7792063
  25.7341695  65.1591301  24.6314168  27.0729446  65.2189493  23.9277911
  77.1286314  44.6298981  22.6045465  76.7965996  44.1525221  21.8442154
  78.0634546  44.4252872  22.6263046  20.6392980   8.6177474  40.3367233
  19.9908113   9.3103677  40.2103329  21.2955546   8.7774098  39.6584415
  76.5560853  18.9246714  34.2957211  77.2930097  18.9397597  34.9064136
  76.4222717  19.8424625  34.0591097  19.6426666  44.1878700  10.7675898
  20.3783989  44.2359018  11.3780177  19.3830884  43.2665920  10.7773697
  72.7208161  25.1974773  48.3848524  72.9614174  24.7780418  47.5587654
  71.7642879  25.2290034  48.3677769  84.6956445  15.2587569  26.7638373
  85.3549283  15.1543307  26.0777831  84.4321411  14.3645096  26.9809055
   5.5112785  42.0393801  55.6418800   5.8724827  42.1021032  56.5260887
   5.5749917  41.1098385  55.4225063  84.0506526  16.7421460  34.3566632
  83.9687168  16.0318458  34.9930525  83.4131425  17.3958218  34.6439242
  81.1787492  55.7390261  49.8094845  81.1389917  54.8028755  50.0051165
  81.7284280  55.7972717  49.0280151  49.7633458  11.3502158  51.2961578
  49.9650932  12.2066248  51.6731262  49.9495697  11.4496077  50.3625250
   3.1393766  65.9183741  54.1969252   2.5451845  66.2730980  54.8582411
   3.2091820  66.6119528  53.5409451  21.3796282  71.2178659  39.2293143
  21.4635992  70.3098059  39.5201826  21.9442105  71.2756491  38.4585094
  75.5581569  31.0828209  46.8180418  76.1011767  31.7486787  47.2399378
  75.9733986  30.2523851  47.0508146  67.9200816  52.6697111  58.3834314
  67.1676945  52.1186113  58.1679440  68.1532180  52.4180222  59.2770338
   2.9625845  68.6636305   6.2274790   3.8064766  69.1136503   6.1879605
   3.1758383  67.7808332   6.5298402   7.8128505  37.5532079  32.8034997
   8.0491430  36.6509581  32.5882173   8.6277145  37.9460573  33.1163812
  19.2302310  60.2514553  30.6805134  18.6633766  61.0200977  30.6164956
  20.0059962  60.4827499  30.1697087  59.9522972  67.3299456  46.3658762
  59.9724245  68.1810665  46.8033886  60.8715367  67.0700502  46.3051653
  82.9490390  50.0060034  36.9909000  82.3040270  50.0814772  36.2876964
  83.7755584  49.8328543  36.5402150  53.3855486   8.5178793  37.4170470
  54.0301299   8.7125147  38.0973887  53.0043626   9.3681372  37.1979761
  55.5447721  44.4218731  15.7358253  54.6769642  44.4495821  15.3328645
  55.5569696  45.1721573  16.3300896  86.1377794  48.2078457  30.8388424
  86.4115380  47.4105406  31.2922692  86.4988938  48.1178474  29.9569511
  78.2802439  10.5999963   4.9208577  77.8134001   9.7737043   5.0454648
  79.2060877  10.3587072   4.9496730  76.5343154   4.9429672   4.0267594
  76.3793350   5.1279085   4.9530490  77.3655892   5.3757016   3.8319381
  51.9221592  69.2647791  66.2201262  51.1631393  69.5670938  66.7188549
  52.3627520  70.0683880  65.9438562  85.2898652  72.6194143  62.8213978
  85.0878116  73.5529470  62.7587557  86.1367537  72.5869894  63.2663250
  40.2122355  81.6826725  24.7464871  40.9440517  82.0071697  25.2712512
  40.5799150  80.9527588  24.2482090  46.9653547   7.6164568  62.0345497
  46.6509056   7.1623553  61.2527895  47.4962056   8.3372534  61.6955996
  80.9564256  78.5915756  13.3408368  81.4340251  79.4119024  13.4641147
  80.2891504  78.7989092  12.6866281   3.0553275  38.3399940  26.8027711
   3.1505197  37.3919010  26.8938184   2.1897966  38.4573007  26.4111996
  41.3939857  15.6412812  65.5379008  42.1503531  15.8524581  66.0852088
  40.8478045  15.0815269  66.0898004  11.8559587  47.7217293  36.0773802
  11.7662346  47.3829794  36.9681263  12.7983761  47.8419590  35.9606504
  12.4017262  49.2396832  57.0424795  12.2420585  50.1248121  57.3700237
  13.1366241  49.3373060  56.4369822  70.4693842  68.4822110   4.9482663
  71.1947823  67.9686240   5.3035958  70.5647564  68.4064416   3.9988502
  19.2960894  35.3638840  46.0268116  20.0311995  35.6300235  45.4745293
  19.6065915  35.5018115  46.9216824  30.8195769  19.5305575  51.8035460
  29.9421931  19.6271170  52.1738243  30.6897633  19.0057314  51.0136509
  83.9715100  38.9956872   5.1048501  83.1987835  39.0893714   4.5477613
  83.6556030  38.5233848   5.8751519   3.6985412  81.2196827  21.9903779
   3.5545367  81.9444370  22.5988412   4.3243161  81.5631008  21.3526440
  54.1135425  36.4624517   3.9265473  53.6750347  36.9425838   3.2241138
  54.9766005  36.2518232   3.5701783  31.4674017   8.5672225  11.9301808
  32.2620201   8.3786238  12.4294233  31.3303104   9.5076407  12.0444286
  11.9621003  63.2638550  45.7447863  11.7393947  63.8540030  45.0248194
  12.0116937  63.8319731  46.5135574  20.3459406  52.1942139  39.3525553
  21.0272598  51.7076445  38.8885641  20.6942868  53.0827141  39.4264317
   6.3846844  61.3591385  35.7513571   7.2240281  61.7622900  35.5295420
   5.8260977  61.5370989  34.9946904  26.4882006   5.8555735  64.3559885
  26.2072960   5.2396525  63.6792564  25.6883559   6.3183917  64.6055412
  37.4335742  79.1392231  69.3755531  36.7647219  78.6352777  68.9119720
  36.9430280  79.8155594  69.8426342   5.6910158  28.0593909  25.6548834
   5.3685904  27.2882403  26.1213470   6.4951372  27.7627123  25.2287364
  19.9679387  45.9976912  52.0600939  20.8593678  46.2347698  51.8043947
  20.0595903  45.1453638  52.4859667  60.7623275   7.2391244  52.7890102
  60.9287187   6.3260432  53.0231695  61.0767718   7.7404519  53.5413591
  28.3526801   2.6435793  61.8226528  28.4709154   1.8279398  61.3358402
  28.0328204   3.2673300  61.1708403  75.2717888  68.8846588  58.2012892
  74.8929214  69.4954062  58.8334894  74.5461762  68.3088827  57.9600382
  86.9653488   1.4189212  20.4789098  87.1537162   1.5351693  19.5476564
  86.0195351   1.5478866  20.5498822  14.4972980  60.5679560  53.1536388
  14.8915112  61.3789511  52.8325224  13.7115061  60.8521080  53.6205673
  15.6060004  70.3794956  31.4853549  14.8660231  70.3274441  32.0902967
  15.3180599  69.8938751  30.7123756  68.4042119  11.1359140  46.6435544
  67.6129340  10.8304998  46.1998956  68.5637783  12.0056316  46.2770025
  84.0014231  53.5975885  63.1424856  84.7522319  53.0223703  63.2895947
  83.3324080  53.0264044  62.7651262   2.6119313  60.9894848  59.7255802
   2.4087843  61.2221622  60.6315756   2.0916973  61.5970850  59.1998386
  50.4953796  26.6705959   0.7430728  50.1903785  26.5839593  -0.1600854
  49.6932960  26.7113464   1.2638743  67.4027777   2.0479907  63.9761353
  66.6140342   1.5059412  63.9589596  67.2475529   2.6744116  64.6830559
   2.1370938  43.9697361  34.9983358   2.0362334  44.4832659  35.7998013
   3.0781618  43.9807034  34.8236847  19.0513957  57.4680281  10.6742001
  18.7200630  56.5810871  10.8148730  19.5689869  57.6572847  11.4568317
  26.7958689  77.4728680  32.1606064  27.2890425  78.0692625  31.5972877
  27.4378777  77.1591330  32.7974939  28.8395643  80.5752945   9.1800100
  28.1529379  79.9085569   9.1954368  28.4025478  81.3759136   9.4702703
  51.0102438  23.3164664  61.6804056  51.3014059  24.0024205  62.2811733
  50.9235471  22.5376340  62.2300772   2.5224075  50.5376005  28.6358190
   3.4729034  50.6494665  28.6524129   2.1767022  51.3831043  28.9218950
  19.1259170  53.6344481  59.6793270  19.1305470  54.3640709  60.2988958
  18.2639599  53.2328272  59.7886992  78.6015540  42.5910902  41.3295555
  79.4199609  42.1686888  41.0687494  78.7356406  42.8268576  42.2475243
  13.1409693  32.4970698  65.0802231  13.4763181  31.9335651  65.7775259
  12.6995814  33.2108688  65.5405474   8.9230992  29.7863929  24.8138078
   8.2197667  30.2168624  25.2998670   9.5079328  30.4993121  24.5570119
  12.6148343  77.9714870  15.0323892  12.6382375  77.1406698  15.5071807
  11.7449009  78.3269215  15.2143598  11.6597176  76.8396664  68.3700991
  11.9117832  77.0750284  67.4771786  12.4620605  76.9455051  68.8812494
  23.1101823  38.2225156  15.6549990  22.3432779  37.9019570  15.1803064
  23.5514736  37.4298716  15.9602952  75.9702408  68.4234667  30.7429075
  75.7685053  67.9558754  31.5533972  75.4407632  67.9862642  30.0760198
  36.7798078   6.1117686  18.8256359  35.9345997   5.7139052  18.6169279
  36.7826206   6.1812342  19.7803080  75.0106442  77.8841829  47.3797321
  74.7757840  77.4869061  46.5411329  74.3335282  77.5828648  47.9854965
  70.4367911  53.7404346  49.0862799  71.1738491  53.6727524  49.6932411
  70.8322000  54.0153456  48.2590532  54.5977830  81.4531231  68.0827093
  54.7823214  82.1047115  67.4062395  54.9870586  80.6447601  67.7491808
  10.1963103  64.5882320  57.0367098   9.8612487  64.1609859  56.2484026
   9.6720570  65.3849077  57.1185875  81.8916446  49.1233778  34.2419648
  82.0648929  49.3567991  33.3299732  81.3338637  49.8295784  34.5681405
  85.3299488  77.4376345  10.7745588  84.5674017  77.3675489  11.3488770
  85.0482492  78.0247307  10.0729907  40.6428087  18.9808596  38.0297470
  40.9149325  18.1193484  37.7135563  41.4490223  19.3829478  38.3531404
   6.8812490   0.5278147  58.6601925   6.4992047  -0.2968751  58.9604712
   6.2690091   0.8482684  57.9978466  63.4148001  32.5094342  60.4198456
  63.4638023  32.3857498  61.3677549  63.4421706  31.6225290  60.0608444
  57.5635553  12.0129241  31.3027024  58.0053902  11.6241587  32.0576024
  56.6374755  11.8118037  31.4374566  15.2743649  43.1498671  50.7536030
  14.5510733  43.3090115  50.1471758  15.0480127  43.6553669  51.5342855
  75.4445862  75.0039053  65.2846146  75.6329572  74.5578909  64.4588900
  76.2979459  75.3102636  65.5914593  72.5825048  10.8939664  21.3945516
  71.9170345  10.3271930  21.0044892  72.8221942  11.4997070  20.6932195
   3.5685763  73.5592556  31.9948125   3.3323523  72.9728365  31.2761021
   2.7298290  73.8342857  32.3650742  15.9396279  69.7513914   0.6700040
  16.6908133  69.4362259   0.1673878  15.2443707  69.8572445   0.0206634
   2.6558140  55.7933187  44.4533539   3.5231322  56.0294771  44.7823238
   2.6290575  54.8383236  44.5125484  20.9752584  54.4032288  10.5871272
  20.5536008  53.8657522  11.2576163  21.1872005  55.2222109  11.0349929
  44.5618427   7.8114642  49.8579597  44.1547335   7.2927226  49.1641235
  45.0248981   8.5095252  49.3947887  79.9206280  19.5555993  70.6982870
  80.4086684  20.2201768  71.1844792  79.0336894  19.9096175  70.6331472
  68.9960289  32.7625251  43.3207035  69.3757581  33.5910606  43.6132193
  69.4415140  32.5731969  42.4949121  12.3699582  81.1009693  61.2923861
  12.4137497  81.6339207  62.0862865  12.6124096  81.7012119  60.5872917
  49.2902303  25.0395076   5.0947745  49.3953545  25.9893386   5.1495441
  49.1217602  24.7648113   5.9961017  81.1479908  70.5889130  57.6188517
  81.5260255  71.0231447  58.3835506  80.8275461  69.7511864  57.9531622
   7.9781175   6.9462431  42.2195101   8.5239220   6.6150416  41.5063190
   8.5849738   7.4276293  42.7818441  13.5575545  71.3452291  66.9015455
  13.0502510  71.8161011  67.5627232  12.9399931  70.7157373  66.5292645
  25.6869096  71.5987853   4.6185239  26.1067707  72.4521521   4.5102866
  25.8380080  71.1502627   3.7865241  15.3887403  12.5489272  63.1660032
  15.7433236  13.4349478  63.0919647  14.6188498  12.6451338  63.7265778
  22.1327782  34.2044687  52.8124094  22.6850128  33.5968542  52.3203993
  21.7288709  34.7567296  52.1430063   6.5054923  74.5492983  49.8688126
   5.8311582  74.8316431  50.4867029   6.1963856  73.7022877  49.5474672
   9.8419023  80.6211567  32.6468515   9.3995804  80.7134628  31.8030143
  10.7098675  80.9989357  32.5048947  74.2281138  65.2391386  53.5878992
  73.4814751  65.4418707  53.0242825  74.9238586  64.9850416  52.9815960
   1.4348462  67.1228075  47.1266747   2.2220302  67.4104786  46.6642666
   0.7417217  67.6959515  46.7990875  18.7102127  73.6779499  44.0496254
  19.4122434  74.2600870  43.7589264  18.6216068  73.8583231  44.9854946
  64.2456126  69.1883707  34.9106717  63.3009338  69.1383982  35.0566745
  64.4495391  70.1210880  34.9791098   8.3132571  59.5767355  37.5632024
   8.7235600  59.8448658  36.7410159   7.3816872  59.7559834  37.4356103
  17.8831625  56.8746948  38.9660621  18.4550655  57.3821688  38.3901906
  17.1088529  56.6916752  38.4339142  25.6212711  66.6153479  45.7001543
  26.2972045  66.4212370  45.0507927  26.1012006  66.7188120  46.5218544
  23.0563498  23.3000326  49.5393991  23.8144684  23.7092495  49.1222286
  22.3992276  23.2495213  48.8452291  56.0201311   2.1253336  22.3634171
  55.1408363   2.3009814  22.0284200  56.4172006   2.9909838  22.4594450
  74.3523395  34.4215035  69.9596453  74.5772969  34.9972892  69.2288256
  74.0253746  35.0122499  70.6381321   5.9236044  62.0052052  40.8915186
   6.0746235  62.8708935  41.2710142   5.8209997  62.1692276  39.9540758
   6.9310701  64.5220661  41.9938707   6.0964096  64.9712801  41.8605232
   7.5875825  65.1312733  41.6560936   1.4929835  22.3692799  61.2377262
   0.7100607  22.7222133  60.8149958   1.2246940  22.2079945  62.1422911
  36.9958479  10.6307448  55.4799843  37.7259308  10.6513251  54.8612881
  36.6910529  11.5371932  55.5210209  13.9749551  24.6271133  60.8282232
  14.7580612  25.1773381  60.8130360  13.8458049  24.3690681  59.9155521
  48.8020933   2.9011668   3.5266265  48.9757300   1.9878233   3.7544146
  48.5495007   3.3105505   4.3541735  22.4320197  51.0784245  37.8578210
  23.1853724  51.3347054  37.3258328  22.8151107  50.6805468  38.6395955
   4.5636505  48.7892532  45.8247185   3.8684589  48.3755589  46.3363791
   4.8411188  48.1129217  45.2068043  24.6453596  37.6480262   9.7047551
  25.3118373  38.2582919  10.0203736  23.8412643  37.9225414  10.1455529
  48.9790821   7.9986990  29.7480083  48.6330116   8.0647982  30.6380081
  48.4150637   8.5716570  29.2285466  13.2602024  51.4796209  36.3029861
  13.6526334  52.3507452  36.2449241  13.7183917  51.0585117  37.0302844
  53.9126730   3.0661524  65.9401894  54.4693327   3.6344660  65.4078484
  53.7567211   2.2992457  65.3890419  81.6440647  65.5948544  43.9745378
  81.1017721  65.5049849  44.7581673  81.0312849  65.4931879  43.2462549
  14.2268682  26.5753865  26.7260551  13.4517407  26.4819050  26.1722755
  14.3630731  25.7033920  27.0966005  13.2665956  49.0217018  51.8630934
  13.1495392  49.9469566  52.0785952  14.1331482  48.9776945  51.4588881
  83.5223731  40.2785778  41.5177870  83.0738893  40.1088285  42.3462057
  84.0425798  39.4904804  41.3611794  81.9335240  60.4463625  38.7509656
  81.7190390  59.8062944  39.4295955  81.0939979  60.8474255  38.5260725
   2.7914503  26.7304349  47.0818424   2.5986177  27.6669860  47.0380259
   2.4669175  26.3800120  46.2523174  21.9649243  79.9641085  28.2006311
  22.3419094  79.3116236  28.7908649  22.0663381  79.5845032  27.3277926
  83.9779946  41.2285376  31.6364789  83.0333817  41.3583946  31.7205954
  84.3623012  42.0331526  31.9845271  12.7501810  57.5018883  70.1136446
  12.1168959  56.7843866  70.0942230  12.9908562  57.6338100  69.1966343
  73.4657896   7.2294061  13.6478074  74.3145371   7.6326768  13.8301118
  73.4611798   7.0993106  12.6995023  66.8802809  21.9737741  69.8756885
  67.5072127  22.3075553  70.5173869  66.7223906  21.0684844  70.1435650
  13.2235205  45.3192568  48.6313629  13.1098115  44.3871927  48.8172674
  12.9339027  45.7598972  49.4302273   5.2799082  47.4007463  56.8216896
   6.0605258  47.6930380  57.2922564   4.9176627  48.1998682  56.4390469
  37.0479733   9.0308703  13.2503808  37.9522354   8.7203921  13.2966959
  36.7112923   8.9213694  14.1396987  16.2311423  66.4655209  16.1642277
  16.8858063  66.8218565  15.5636704  15.4152465  66.8988466  15.9136856
  28.7718773  59.6718788  36.1118627  28.4238148  60.3172207  35.4965425
  28.5769534  58.8262892  35.7078648   5.2220225  63.7867022  51.3782167
   5.8719105  63.0948687  51.2547684   5.6613439  64.5837069  51.0815382
  10.8540821   7.6120509  42.3896027  10.7709146   7.5174750  41.4407253
  11.4015603   8.3885802  42.5058317  41.1545157  79.0185704  46.2213278
  41.5947436  79.6892490  46.7434597  41.8596112  78.5951220  45.7316732
  71.7663478  77.9682016  61.3183880  71.7052555  78.2072878  62.2432327
  72.2877240  77.1654797  61.3124514  20.8030081  65.5547380  67.4583817
  21.5938449  65.2474833  67.0152044  20.4736471  66.2588310  66.8998051
   4.9937674  69.1257143  12.0782912   5.7527542  68.5451603  12.0223856
   4.4693521  68.7661266  12.7937734   8.9066815  28.7068272  45.2598095
   8.8296652  29.1037583  46.1274195   9.8493332  28.6148334  45.1213312
  38.9127660  67.1544123  32.7112770  38.3104038  66.5189648  32.3244977
  39.6973205  67.1038485  32.1652460  76.0512102  15.1270978   6.8508847
  76.7367304  15.6035774   6.3826306  76.2773813  14.2045228   6.7328294
  54.5947338   4.9172915  19.5258832  54.3982101   5.7858981  19.8768044
  53.7785530   4.6356333  19.1126680  17.5584579  66.0557222  30.7512712
  16.9253695  65.4087687  30.4400158  17.3151743  66.8647051  30.3011727
  47.9196405  52.6816416  11.3866806  48.4722948  53.4203672  11.1315536
  48.1838846  52.4839163  12.2851861  35.5843210  18.7378359   6.6653103
  35.5337453  19.5672262   7.1404791  36.3580990  18.3031726   7.0238745
  80.7748329  60.7562208  47.6992893  80.8783185  61.2253094  48.5272264
  81.5190362  61.0401821  47.1684790   1.4776242  34.2791200  58.8965654
   1.6882548  35.0267410  58.3371639   0.7853834  33.8151383  58.4256554
  72.3004925  70.3566360  39.1113377  71.7193293  70.1611853  38.3763003
  72.7171707  69.5196342  39.3163562  53.4558416  17.5983752  33.3961391
  53.1608892  18.1551398  34.1167307  52.8116656  17.7424944  32.7029586
  18.1966865  61.8643951  11.2669635  17.7320945  62.6706839  11.4912081
  17.9143488  61.6656637  10.3742027  76.1774922  21.7926157  27.9005194
  75.6090689  21.7440451  27.1319056  75.9004498  22.5891341  28.3533454
  12.2975814  49.0287209  32.9866099  11.8618226  48.5758877  32.2646093
  11.8226206  48.7460375  33.7681055  43.7390316  12.1185816  39.6551585
  43.9489830  12.2294081  40.5824518  43.5240341  13.0004157  39.3512058
  77.9920876  17.6218832  18.5552883  78.7354040  18.1948709  18.7434304
  78.0683523  17.4297130  17.6206839  70.1129293  49.0424204  32.9668713
  71.0200965  48.9523649  33.2587099  70.1703298  49.0714931  32.0118380
  17.7083087   4.0261687  61.9443035  16.7814768   4.2339648  62.0627594
  17.7594746   3.6526335  61.0644817  29.5056248  34.7737384  30.8601308
  30.3878903  34.6512485  31.2106061  29.1390967  35.4898000  31.3789225
  15.6102848  37.0464110  65.1091433  15.8382702  37.1088338  66.0366964
  15.3878713  37.9424334  64.8563433  54.1720105   1.8343390  70.4293394
  54.6431232   2.4953497  70.9366417  54.6544338   1.7766226  69.6046209
  18.0084050  63.2094955  25.2091074  17.8403902  63.4660435  26.1158538
  18.6823058  62.5326967  25.2726293  25.7535315  51.6547585   1.5914616
  25.6930399  52.2613192   2.3294677  24.8625183  51.6099739   1.2445861
  30.9478259  65.3339815  62.3541498  30.7895517  65.7759380  61.5199709
  31.0804057  66.0453606  62.9807281  41.0132933  75.3008842  65.2969027
  40.6643105  75.6108141  66.1325979  41.4876127  76.0526657  64.9418306
  24.6989465  74.4591808  30.3712559  25.1135182  74.4348049  29.5088363
  24.9798107  73.6481524  30.7950258  79.1095370  58.8907099  54.0321541
  79.4196772  58.2737541  54.6950340  79.4121366  58.5225153  53.2020330
  15.1050699  45.3258657  31.1865544  14.3961275  45.9689999  31.1834502
  15.4119539  45.3033066  30.2801633  49.2880411  16.0663621  11.2546285
  49.7859014  15.5131023  10.6527455  49.0445972  16.8303697  10.7318910
   6.1269701  56.7794466  56.6172791   7.0780694  56.8232679  56.5186834
   5.7847100  57.0912218  55.7794905  70.7405626  53.3987617  24.9437308
  71.6602277  53.6090279  25.1057053  70.7453334  52.9307747  24.1087461
  42.7932978  77.1499014  56.2875986  43.3707809  77.2424889  55.5298567
  42.8871393  76.2341022  56.5497780  60.3970610   0.6556197  48.8453142
  60.3553738   1.5332481  48.4654967  59.6143236   0.2144071  48.5153381
  25.3638172  76.2249470  61.7280006  24.8120689  76.6954660  62.3528337
  26.2591410  76.4353704  61.9932270  22.9471827  77.3695040  29.3392634
  22.9205847  76.4785910  28.9902616  22.8732038  77.2577667  30.2870369
   3.2723406  58.8503695  45.0934362   4.1907990  58.8237572  44.8251867
   3.2007217  58.1767416  45.7696962  73.5635900  59.0659332  68.3660746
  73.7596333  58.6816788  67.5115919  74.3385458  59.5861912  68.5782194
   1.6060331  63.4148598  34.1432476   2.0514548  63.4474707  33.2966256
   0.7807035  62.9649830  33.9624929  47.8394222  54.5152807  35.7886100
  47.9120349  53.7010717  36.2866259  48.7190365  54.6627474  35.4411006
  27.3676801  52.0830297  11.4415681  26.9385600  52.2249126  10.5977917
  27.7564359  52.9305124  11.6580725  20.6854868  77.1853304  18.8127756
  20.6590629  76.2528706  19.0273726  20.0735188  77.2805738  18.0829418
  71.5348506  73.4555674  56.4027166  71.1108386  74.1736174  55.9327650
  72.3759222  73.3430624  55.9598017  82.1874359  60.2775335  35.4867315
  83.0688053  59.9057531  35.4520750  81.6139030  59.5223665  35.6171751
  81.0353475  77.3169088  54.0751743  80.9014701  76.5677643  53.4945774
  81.6761177  77.0109463  54.7170734  42.8813637  20.1456583  38.7559533
  43.7294853  20.1525153  38.3122468  43.0946648  20.2594794  39.6821189
  43.6651754  59.4033813  30.2460885  43.5089016  59.8737335  29.4271994
  44.4598103  59.8005390  30.6025314  84.8002904  70.1848078  63.1850290
  85.0340777  69.6064281  62.4590445  85.0853169  71.0532379  62.9007435
  56.8703127  77.7624035  35.4900980  57.4886131  77.8326273  34.7627711
  56.3975334  76.9467211  35.3246403   8.0300975  23.4452570  27.5394368
   7.1059513  23.4053076  27.7855921   8.5005570  23.4371508  28.3730030
  17.2405279  77.3104191  50.1485729  17.3700356  76.6114187  50.7895565
  18.1187177  77.4963713  49.8162508  61.0649303  20.2532356  21.4557965
  61.1735443  21.0338466  20.9125836  60.7667310  20.5892103  22.3010285
   6.7496085  43.9275694  22.9408026   6.3294291  44.7211075  23.2724261
   6.0399652  43.2880163  22.8807139  78.9949291  40.2862310  44.2817116
  79.8135715  40.7522392  44.1117382  78.9588642  40.2052546  45.2347994
  29.5489359  49.0517807  17.9757106  29.5658660  48.7021971  17.0847917
  30.2234292  48.5563278  18.4402692  50.8942676  27.4951972  46.4999533
  50.6867123  26.9486750  47.2578907  51.4904380  26.9607581  45.9753656
   1.2861939  33.9588666   9.2241007   0.5716497  34.5541930   9.4504732
   1.3389128  33.3552694   9.9651283  48.9476681  58.2416964   9.1024446
  48.4659672  57.8446150   9.8280627  48.3723545  58.1331539   8.3451712
  16.5398455  67.4784327  41.4890003  15.9246290  68.1813478  41.6979218
  17.2923517  67.9259062  41.1020470  46.0232914   2.1439780  29.6969509
  45.1765383   1.6976393  29.7012353  46.1224974   2.4608077  28.7991714
  42.5370622  14.9589957  20.3807712  42.2673035  15.8530653  20.5907583
  41.8309164  14.6185053  19.8315358  35.4556346  12.9788626  40.7969332
  35.9893281  12.2753180  40.4275703  34.6660495  12.9897822  40.2559423
  46.5865183  81.9086456  50.3963280  46.0693932  81.1252308  50.2090597
  46.5901089  81.9705868  51.3515139  19.5891666  62.6409006  67.4073124
  19.9167919  63.5399246  67.3818159  19.5627046  62.4219513  68.3387566
  15.1005661  29.1089153   7.1968335  15.5211318  29.8193765   6.7124748
  14.6569800  28.5909033   6.5251750  21.9879079  78.4029293  25.7781863
  22.3314738  79.1029263  25.2230263  21.7932439  77.6892233  25.1707673
  84.0420940  29.3542075  46.5250826  84.7714352  29.9739623  46.5110922
  84.4062896  28.5647321  46.9254875  62.2714996  20.6176110  62.8713332
  62.9098182  19.9665900  63.1627957  62.6053315  20.9187575  62.0262901
  41.7834711  68.1906509  45.3184462  41.2111330  68.3251476  46.0738087
  42.5523520  67.7469826  45.6765079   9.7227871  56.9673347  67.5896597
   9.7387320  57.5816393  66.8557596  10.6102860  56.6102600  67.6224470
  58.0988360  10.0500906  18.9708102  57.4707985   9.3792666  19.2387533
  57.5856400  10.8572043  18.9329779  12.5300718  26.9704379  33.2236719
  13.2229734  26.8601073  33.8747835  12.3322952  26.0806979  32.9312825
  14.4272828  76.1372328  25.3808546  14.4546509  77.0629263  25.6228948
  15.1386976  76.0337830  24.7488594  60.2936387  12.1444930  56.1611176
  60.2356029  11.3462866  56.6862154  60.9852219  11.9628085  55.5247688
  85.3690577   8.0401723  29.3357881  84.7211242   8.4224908  29.9276097
  85.5491853   8.7316673  28.6989053  33.6030722  67.7322388  52.4852324
  33.0360603  67.6874924  51.7153454  34.3945718  67.2596264  52.2275591
   0.0052586  55.4151392  45.1049852   0.0448612  55.7423067  46.0036659
   0.9184739  55.3882504  44.8194218  18.3744812  63.8980293  45.6278467
  19.3140221  63.7168455  45.6536913  18.2857823  64.7611094  46.0321474
  67.6752711  36.5664996  59.2617941  67.9632569  37.4061907  58.9037418
  68.1035185  35.9115447  58.7105513   6.9471169  67.4989367  29.6092701
   6.6538060  67.4696112  28.6985874   7.0641512  66.5806818  29.8528910
  17.2058749  54.9309015  47.9566431  18.0638301  54.8788548  47.5354147
  16.6037440  55.1543283  47.2468901   1.9711079  76.5053797  25.9745812
   2.1219873  76.6532755  25.0409889   1.5534636  75.6451130  26.0163760
  66.0771275  17.7376212   7.7094984  66.1533785  16.8515624   7.3555177
  66.8530441  18.1934584   7.3832965   9.8271924  60.2382565  46.0868645
   9.6697181  60.8298349  46.8227100  10.1538098  59.4345474  46.4913416
  41.8389988   8.1617297  30.3149915  41.6327274   7.9959429  31.2348843
  42.7952290   8.1421031  30.2766490  42.7971137  14.0620364  52.2805214
  42.3565495  14.5206107  52.9959536  43.5445071  13.6319197  52.6960135
  58.7824107   3.0680884  41.0456753  58.3569551   2.2768153  41.3759851
  59.6707893   2.7881087  40.8251667  35.8449614  21.8110789  50.6641436
  35.8253211  22.1741522  51.5495920  35.1331473  21.1712302  50.6518030
  63.7550092  21.8259467  44.7057724  63.9152265  21.1516798  45.3660202
  64.6193719  22.1962679  44.5269775   9.7383398  39.7044706   9.4893461
  10.6796634  39.8530769   9.3995816   9.3451035  40.2332830   8.7951177
  11.0979188   0.5787314  44.4625998  11.9961202   0.9066237  44.4184065
  11.0283304   0.1875342  45.3334379  13.0001533  58.9659214  28.8405538
  12.4110246  59.0090895  28.0873632  13.4783494  58.1449795  28.7238526
  40.3666019  70.0261164  21.5192056  41.0287666  70.5174208  22.0054054
  40.8508825  69.6158361  20.8027029  35.3787756  31.5774751  26.4133048
  35.6431460  30.7238388  26.0703111  36.0534215  32.1804500  26.1010408
  61.3702202  69.7480106  35.8859634  60.5336809  69.5749426  36.3177991
  61.7573404  70.4627562  36.3914418  41.6870952  14.2760695  59.2264652
  41.2308479  14.0639914  58.4121609  42.6133371  14.2900504  58.9854050
   8.5392285   6.5510024  55.9032536   9.2212916   6.6653861  55.2414846
   8.7193323   5.6927718  56.2869740  20.7067227  57.9694986  61.5285206
  21.3786840  58.5176516  61.1232710  21.1405659  57.5810575  62.2882080
  84.4067860   5.1846064   9.7787970  84.8612833   5.9787119   9.4976193
  83.7725973   5.4887618  10.4280472  73.5034251  81.5763092  57.6509285
  72.8167998  82.1541309  57.9839325  73.1987047  80.6943893  57.8644609
  42.9328298  19.4660493  60.4657678  43.3806514  20.1852485  60.0203018
  43.5689497  18.7508031  60.4651515  36.9225597  48.4956026  37.8501821
  36.3928747  48.2250404  38.6001563  37.7979541  48.1588507  38.0412698
  27.5127482  42.5545979  66.0220146  27.1527863  42.5685263  65.1351833
  28.2929373  42.0040751  65.9552050   4.0338388  43.9679909  28.7893629
   3.6221212  43.4714890  28.0821109   4.6807232  43.3669662  29.1588759
   7.1575189  13.2575727  61.3894224   7.3410457  14.1836345  61.5474081
   7.2571450  13.1516635  60.4433346  36.8123150  80.3165340  66.6344833
  36.8510032  80.8921814  67.3982620  37.5558805  79.7236872  66.7434692
  58.5727406  64.4090462  39.8862123  59.0116739  63.9714718  39.1567612
  58.9454603  65.2906466  39.8959422  73.5823775  10.3306235  23.8746977
  72.9883385  10.8410872  23.3244467  74.1337824  10.9852065  24.3033051
  13.7660718  44.0891361  17.1509683  13.3042085  43.7637615  16.3782799
  14.6933675  43.9984751  16.9315720  13.0224872  49.1297960  38.8856888
  12.3442268  48.4823275  39.0779924  12.6376224  49.9654865  39.1497588
  42.1098233  13.9870299  49.7347307  42.4679304  14.1089190  50.6140089
  41.1840940  13.7904204  49.8782730  36.4239359  67.1834803  58.0798531
  35.6833816  67.7877474  58.0282021  36.8034697  67.1940994  57.2011757
  53.9594518  40.1170894  64.8697768  53.9870124  39.3768092  65.4759602
  53.0569880  40.1322242  64.5510892  83.0389544  75.5759573  24.9734092
  83.4474396  75.7542849  25.8205056  82.1438667  75.3144646  25.1894426
  70.9225715  17.6411502   1.8780454  71.4874757  16.8721073   1.9534667
  70.4687584  17.5240629   1.0434373  36.1114896   4.0404547  16.3313603
  36.7270440   3.7167300  16.9890261  35.4329706   4.4870890  16.8376839
  56.4610624  76.1455536  49.4448328  55.5632496  75.9701967  49.1630268
  57.0060396  75.6689787  48.8186502  75.1016379   3.2136382  48.3591270
  75.8135271   2.6886977  47.9932261  75.4687834   3.5911120  49.1584730
  10.3244317  67.5558901  26.3811255  11.1630177  67.3979139  25.9474802
  10.0343096  66.6888905  26.6646218  17.1127319  59.8596382  61.1263084
  17.7205849  59.6473694  61.8346119  16.2477469  59.8258924  61.5348387
  78.5297013   5.8171786  37.6035404  79.2084170   5.6749285  36.9437385
  78.4471608   6.7690791  37.6608825  10.0049639  48.5635805  30.9352946
  10.0280023  47.8603029  31.5842152  10.0976050  48.1163883  30.0940609
  84.2444182  11.7297781  11.1644733  84.8932600  12.3700083  11.4566088
  83.8816977  11.3699473  11.9739068  81.0877358  65.5633593  20.2530360
  80.7355970  66.1002874  19.5431530  80.5676758  64.7601986  20.2264857
  30.8691716  71.5652800  58.7602615  29.9512815  71.8362188  58.7777281
  31.3375521  72.2778606  59.1950941  51.0667610  48.9023161   6.0376662
  50.4145908  48.2148504   6.1729509  51.8527889  48.4346008   5.7554734
  24.5353079  71.9363594  70.3299236  25.0639033  72.6957846  70.0847816
  24.4801402  71.4144659  69.5294142  29.0152931  74.1087055  59.9606419
  28.3066440  74.7478008  60.0354910  28.5701632  73.2724524  59.8236227
  35.9981871  75.2029085  53.0878782  36.4805460  75.9911871  52.8385067
  35.0972748  75.5021524  53.2105207  17.1894169  38.8361311  48.7763119
  17.7862835  39.2842889  48.1770325  16.5314269  38.4384322  48.2061195
  86.0105350  74.2312145  17.3092389  85.2121079  74.2547369  16.7817986
  86.6974480  73.9775705  16.6927576  20.4670215  61.8805552  24.3268800
  20.5391097  61.0042858  23.9484835  20.1981735  62.4360371  23.5951757
  12.9592943  56.4324951  40.0749922  12.3852432  57.0213318  40.5648518
  13.3527172  55.8710051  40.7429600  22.9622579  62.3943710  41.3240290
  23.0292296  62.4132061  40.3693581  23.6483192  61.7867374  41.6003132
   8.9371444  48.1661575   3.3582719   8.1886889  48.5474269   2.8992684
   9.4307185  48.9206950   3.6796601  16.1090399  41.7215411  -0.0755231
  16.0981489  42.4758022   0.5137189  16.7102457  41.1025779   0.3388103
  60.2859544  66.0357761  43.4006166  61.0032749  65.6109858  42.9302597
  59.4962525  65.6067753  43.0711365  16.7520738  62.4679947   1.5863481
  15.8204079  62.5293064   1.7972291  16.9695902  63.3216715   1.2119737
  19.3641454  33.2661856  42.6361609  20.0398106  33.8338507  43.0069304
  19.0946704  32.7071036  43.3648825   5.9143741  -0.2287668   3.4618552
   6.5581776   0.1588922   2.8690036   5.7730760   0.4397207   4.1322310
  53.0320072  70.2685547   1.6556334  53.8405609  70.0722122   2.1288404
  53.0641317  71.2138271   1.5084705  24.7987127  41.0438442  65.2854252
  25.4627824  41.5582085  64.8264313  24.6628380  41.5097713  66.1104631
  14.0279174  58.4250116  60.3323603  14.7966301  57.9881859  59.9656248
  14.0933931  59.3274021  60.0198889  15.4125285  33.1905365  70.2914238
  14.5573866  32.7636361  70.2392626  15.2840245  33.9093685  70.9102917
  20.0925040  44.5243979  46.4613914  19.2456508  44.2529392  46.8154860
  20.7335734  44.0129423  46.9550228  63.9228053  37.4113672   6.3702376
  63.4281839  36.6388910   6.6438516  64.3304331  37.7320974   7.1747287
  44.0131961   9.3834563  68.5133283  44.3365919   9.6885940  67.6656629
  44.7920536   9.3495341  69.0687236   3.0247009  56.7191410  41.7054367
   3.0583942  56.5263033  42.6424074   2.3336735  57.3760653  41.6208029
  84.6357604  58.3381844  39.8730826  84.2105370  59.1109610  39.5012903
  84.5324841  58.4398937  40.8192444  38.8961935  65.9118176  47.0173264
  39.6736836  65.5891466  46.5616703  38.9753795  66.8650293  46.9805717
  22.1943331  80.9923935  11.3794684  22.0417404  80.9306240  10.4365313
  23.0487895  81.4168930  11.4565217  18.4982419  47.9032135  12.5940001
  18.6008465  48.0448055  13.5350931  17.7846193  48.4884691  12.3401368
  13.9905846  78.8025618  62.2069597  14.6633160  78.7743378  61.5266180
  13.3327723  79.4098663  61.8682909  45.6550229  13.6392821  52.3756027
  45.8234406  13.1822432  53.1996107  46.1233497  13.1262148  51.7170763
  65.6463074  62.9526901   2.3312743  65.2345252  63.4343672   1.6138801
  65.0009989  62.9773569   3.0378145   3.3702375  52.8017204   3.2221396
   2.8874375  53.5310428   2.8332599   2.7033354  52.2900455   3.6800321
   1.9292475  35.3656213  14.3778451   1.0197021  35.4579418  14.0942414
   2.3090745  36.2350480  14.2511018  12.4979544  81.3654327  40.1676130
  12.4380374  80.6341362  40.7823038  13.2714379  81.1707401  39.6384120
   7.7436805  30.3372598  62.2647905   8.1133342  29.5152640  62.5871468
   7.4521905  30.1363277  61.3754702  78.7977911  36.0293643   1.1115869
  77.8947855  35.9113710   0.8168157  78.8730479  35.4682367   1.8834098
  31.1299429  17.6454390  34.6033931  31.4501632  18.5069312  34.8708487
  31.7136607  17.0262660  35.0417161  54.7107684  29.6350070  65.7200913
  53.8918667  29.5529290  65.2313231  55.3755287  29.7907802  65.0492255
  43.0360806   6.4949358  24.7165155  42.8688586   7.3456706  24.3109035
  42.2425735   5.9877718  24.5451498  42.4891210  15.8945311  34.4131327
  41.8294871  16.3811434  33.9188409  43.2563007  16.4669455  34.4166636
  78.9284277   2.5381602  68.1829739  78.2953310   3.2560481  68.1753778
  79.4213891   2.6449431  67.3694468  78.0683590  25.3464429  16.5855725
  77.4773813  25.5370681  15.8571179  78.9443899  25.4872100  16.2264283
  81.2757063  34.2598475  38.1134105  80.4234696  34.0864027  37.7136064
  81.2951565  33.6988581  38.8887453  28.0212348  19.5460928  42.6586151
  28.0393030  20.2902068  42.0567846  28.6006300  19.8038329  43.3756256
  36.5430975  44.8470449  34.2550945  37.0148635  45.2828121  33.5453248
  37.1744013  44.8076344  34.9735188   7.9542011  81.2881565  16.4994407
   8.2785225  81.4756584  15.6185937   7.0927030  81.7041492  16.5310669
   1.7884971  65.4469395  21.6937828   1.1925796  64.7246313  21.8922400
   2.2423516  65.1711035  20.8974409  12.5649035  53.8469267  29.1450644
  13.2763767  53.8395262  28.5047650  12.0134199  53.1042910  28.8989115
  44.5162725  73.8765907  49.6459579  45.0273609  73.2445478  49.1404438
  43.6615467  73.4600258  49.7561598   0.1664685  78.3881140  57.7870226
  -0.0425044  77.4930573  57.5197554   0.5423116  78.2951069  58.6624241
  85.5555351  77.1598101  46.0743809  86.0173007  76.6103125  45.4410887
  84.6306568  76.9508839  45.9432983  28.7973666  69.9030495  44.5055866
  28.0082035  70.1290703  44.9978971  29.5179296  70.2256203  45.0468540
  39.9972690   9.3586863  46.3964701  40.1158321   8.6327590  47.0090055
  39.0514672   9.5048655  46.3785028  57.5106954  73.2864761  68.4056091
  58.2329702  72.6630592  68.3287716  57.7829027  73.8837290  69.1023350
  37.1854020   5.6800307  14.2326057  36.8055052   6.4746226  14.6074700
  36.8311334   4.9697340  14.7675967  14.7604036  74.6465683  29.2228293
  15.3685880  74.7507429  28.4910560  14.7688222  75.4959726  29.6640444
  44.1900587  76.3674688  13.7483430  43.9703512  76.8379354  14.5524728
  45.0711203  76.0269165  13.9032102  48.1645012  78.4768820   6.5843332
  48.4031773  78.1279421   5.7255530  47.3528624  78.9600706   6.4293873
  50.7228279  12.8332461  65.9061289  50.2225399  13.5950602  65.6135893
  50.4208804  12.6776637  66.8010330  61.8386507  75.0245810   6.8381518
  62.6859236  74.8227644   6.4411294  61.5530396  75.8256483   6.3988858
   8.4934616  76.7655087  57.4245071   9.2971015  76.5020323  57.8728104
   7.9528165  77.1554327  58.1114531  33.4251475  70.6654739  61.3393259
  33.6801434  71.2959146  60.6657124  33.7254524  71.0568237  62.1596241
   1.1588956  36.5656822  11.1045583   0.4145600  35.9821575  10.9572824
   1.9084240  35.9781759  11.2008699  16.9526196   4.0568293  51.5079069
  17.1375120   4.9678076  51.7363262  17.4010480   3.5452975  52.1813154
  11.6333151  45.4069853  43.1038618  12.4079561  45.3784323  43.6654186
  11.1178577  46.1383915  43.4438372  19.5841444  70.3580093  50.2725697
  19.1873348  69.9079180  51.0183525  20.3981948  69.8812437  50.1105595
  84.1285929  74.1212130  38.9878082  83.4804827  74.1680288  38.2849622
  83.8781878  73.3479691  39.4934011  64.9775720  26.4617861  19.7832048
  65.6085348  26.3260878  19.0763080  65.1835633  25.7796515  20.4223394
  14.1459095  66.1920357   3.5970169  14.7938812  66.1886024   4.3015406
  14.0481234  67.1157885   3.3660436   6.8228102   8.6513651  55.3995562
   6.0563326   8.4313048  55.9290075   7.3308540   7.8408469  55.3651333
  13.2793295  36.4281154  29.7021270  13.8799763  36.7305017  30.3833175
  13.8438094  36.2347984  28.9536476  22.8903770  44.1540051  40.1911783
  23.2595086  44.6955061  39.4935012  23.3866501  43.3366442  40.1479673
  81.4067137  58.3226252  57.6545715  82.2394031  58.5387802  57.2348833
  81.0527056  57.6052284  57.1289730  53.1519747  14.4875468  44.5648956
  52.6565743  13.8750590  45.1086521  52.8533650  15.3525771  44.8455906
   7.4740189  62.1717262  51.3609362   8.2840991  62.6339197  51.5762997
   7.7291411  61.5432644  50.6855249  31.2011933  70.2931213  46.1694336
  31.9221163  70.2295208  46.7958975  31.0518265  69.3918037  45.8838654
  12.3353422  43.7002516  38.4944725  12.3474658  44.2580128  39.2722821
  12.9736757  44.0995455  37.9034376  16.3495445  46.5694523  38.4218526
  17.0796645  46.5785074  39.0407825  16.5596712  45.8605719  37.8139353
   2.8149602  53.5513639  38.0401492   2.7452463  54.4507217  38.3603454
   2.7994752  53.0134201  38.8317347  30.8823085  56.1956930  26.4740705
  30.6573033  56.4631844  25.5829740  31.8354344  56.1080170  26.4643621
  17.9808712   8.7729872  59.4264126  18.2988203   9.3090762  60.1528740
  18.2824886   7.8880728  59.6318293  38.9449763  79.6049213  34.6504593
  38.2611084  79.0244198  34.3164277  39.5031071  79.7785139  33.8924456
  72.0010675   7.7637403  35.1200707  72.1124674   8.4034889  34.4168313
  71.1935628   8.0295532  35.5599721  11.2806726  66.6031837  17.9181254
  11.2072766  65.6488514  17.9084837  10.8961046  66.8813896  17.0868981
  72.2752571   1.2088336  21.8015575  72.5534869   1.9531477  21.2678838
  72.4830389   0.4411925  21.2688375  20.9521139  17.6865901  46.0898781
  20.4719144  18.3857764  46.5334702  20.3523010  16.9406928  46.0994244
  26.6401625  23.9267254  53.2019854  27.3949146  24.4104981  52.8665113
  26.5891075  23.1480575  52.6476336   8.7796611   9.7010905  24.2187190
   8.0087131   9.3979162  24.6982551   9.2673713   8.9019227  24.0194654
  70.7843101  52.3554277  31.5538239  70.2252078  51.9207907  32.1978188
  71.6028022  51.8595409  31.5737462  70.3270506  14.2577287  58.6082892
  69.7586226  14.9502536  58.2713394  71.0852658  14.2647811  58.0240874
  78.3330155  76.7850559  17.9517968  78.7479401  77.6363628  18.0909188
  77.9271603  76.5760772  18.7931283  81.7531157  35.1713789  61.5339136
  81.1191845  35.8034743  61.1950684  81.6676855  34.4131697  60.9559345
  77.3219860   8.0010383   0.5175527  76.7038608   7.2830741   0.6542142
  77.0795120   8.3672254  -0.3329436  82.9454714  69.9965715  38.8624334
  83.3366859  69.2077494  38.4870124  82.5671607  70.4562950  38.1129217
  21.3746810  76.7387342  38.2206106  21.2707019  75.9293079  38.7208557
  20.7048750  76.6866350  37.5387907  36.9768215  19.2547358  59.0576458
  36.2697220  19.7062243  58.5967779  37.1307922  19.7857131  59.8390436
  62.5377941  70.7793283  25.8780122  61.9927311  70.7503748  25.0916910
  62.2872639  71.5942240  26.3132286  67.9306913   5.6471098  15.0630605
  67.4088788   6.4495505  15.0683451  68.4527517   5.7061518  14.2629361
  64.2533660   7.2100771  37.1605611  65.0672126   7.1336115  36.6625285
  63.7647128   6.4159239  36.9442987  55.6010247   1.5567626  32.8583980
  56.5090108   1.7224635  32.6047564  55.5102778   1.9784392  33.7129092
  31.1314392  81.4506245  45.1331282  31.2731934  82.3740673  44.9248600
  32.0124888  81.0866737  45.2199030  70.1488781  29.7786177  21.4076877
  70.4628182  29.9181117  22.3011160  69.6360588  28.9718951  21.4572334
  66.9591599   2.2658273  48.4517567  66.2726521   1.8727895  48.9906995
  67.4070489   1.5198394  48.0528514  39.0019584  18.6000288  57.1668625
  38.7288738  18.7713088  56.2655783  38.3279735  19.0158881  57.7044821
  33.8542533  78.2001209  50.6144285  33.8243818  78.8293362  51.3351393
  34.6625781  78.4099388  50.1466465   6.9461441  67.2104406  43.9864302
   6.1775917  67.7647257  44.1217995   7.3218066  67.1042585  44.8604059
  54.8148728  24.5181502  45.5194712  55.4131222  25.2638949  45.5662632
  55.2925277  23.8013400  45.9369278   5.5150956  59.8733997  50.7115889
   5.7081801  60.7431650  50.3616428   6.3714439  59.5111895  50.9389687
  49.3198753   8.1022490   8.8011044  49.6974826   7.2575129   9.0461868
  49.6022892   8.7005747   9.4928235   9.6533757  73.6507416  59.2523575
  10.3010607  74.0343428  59.8436165  10.1315749  73.5034037  58.4363651
  31.5433145  64.0990734  57.6129532  31.6549134  63.6100149  56.7977238
  32.3095775  64.6711111  57.6559067  32.9328632  79.0659142  44.0705681
  33.0324244  78.1715441  43.7443399  33.0870414  78.9957809  45.0126600
  37.3257017  52.4818707  69.0012026  36.7472458  52.3851299  68.2447243
  37.5817919  51.5866137  69.2229271  29.7471189  77.7611113  31.9531417
  30.1363206  78.3620739  32.5884366  29.3452883  78.3320713  31.2983418
  11.5996313  80.5507660  57.5143814  11.4728582  81.1419296  56.7722988
  10.7157981  80.3854465  57.8426170  44.1510702   8.1833495  52.4878788
  44.1057289   8.3404387  51.5447474  44.7952867   7.4818171  52.5831461
  74.7586095  77.0510435  44.7300053  74.0430927  77.1217966  44.0981293
  75.4930722  77.5000238  44.3114185  15.3726935  44.7821188  42.3101902
  15.1159620  45.4423809  41.6664743  14.8982155  45.0254107  43.1051207
  14.2232406  54.7005606  57.7686262  14.0555584  55.0737286  58.6339903
  14.2239940  53.7541533  57.9119587  60.1736427   0.9261645  51.6159487
  60.3106642   0.7570494  50.6838274  59.5179963   1.6231764  51.6390657
  12.2237837  65.8615541  34.0478015  12.5470352  65.7878685  34.9457502
  11.2767947  65.9645128  34.1418409  77.6948708  77.1178961  31.5105724
  76.7766332  77.1592617  31.2434411  77.9838287  78.0304193  31.5168452
  54.5119834   7.3732413  43.6299229  54.7299147   8.1252135  43.0792236
  54.1177678   6.7418707  43.0280972   6.6525030  10.2974165  10.0321639
   5.7346654  10.2707518  10.3025234   7.0862341   9.6545161  10.5932152
  42.2545493   0.6414927  50.9358549  43.0631566   1.0723628  50.6588316
  42.3233545  -0.2459966  50.5839348   8.0886441  70.4642773  47.9950333
   8.8134795  71.0711956  47.8450489   7.8030211  70.2107477  47.1173239
  10.8464504  11.6923464  39.3123960  11.6758037  11.8813647  38.8734412
  11.0984827  11.2303198  40.1119184  25.9363217  21.8260611  51.2846088
  25.9412229  22.4928988  50.5979204  26.5879473  21.1850012  51.0005999
  37.1456659   0.3021372  43.2480145  36.6040272   0.7620467  43.8893700
  37.5976080  -0.3719198  43.7555838  45.6348801  15.7207049  58.1969547
  45.4540348  14.9192942  58.6881542  45.2460111  15.5668009  57.3359537
  66.5190220   6.7924059  30.6364465  66.8244958   6.1751021  29.9717259
  67.2463847   6.8573702  31.2552810   8.2178188   7.6950205  13.2598031
   8.1302143   7.2074736  14.0788627   8.4133650   8.5909785  13.5341275
  11.5902948  49.8790503  49.5724154  11.1762738  49.1086721  49.9614334
  11.9209778  50.3765869  50.3203011  41.4994645  18.1420268  26.2551117
  41.6081322  18.9905871  25.8257246  41.8236840  18.2806338  27.1449995
   6.5290142  48.7279003  13.8208230   6.1430861  48.5754840  14.6834119
   5.9434391  49.3605869  13.4048398  55.1750398  19.5720995  23.8812256
  54.4301629  19.2025984  24.3554163  55.9427667  19.1862429  24.3030548
  47.6999903  73.9232254  52.7558136  47.4912739  74.5748806  53.4251499
  48.1569290  73.2294083  53.2312632  64.9284482  21.3066996  61.6698456
  65.5153203  20.5632533  61.5316391  64.1492653  21.0956133  61.1555052
  49.2869687   5.3247393  46.5416956  49.6566534   4.6298636  45.9969854
  49.8930812   5.3993262  47.2787857   1.6628194  79.2950535  37.1157861
   2.0550848  79.2688322  37.9885268   1.9847227  80.1111603  36.7329311
  39.1084315  59.6262519  11.0887750  38.4459377  59.8274009  11.7497380
  39.9117495  60.0222175  11.4265950  42.4659204  81.1129761  47.7364111
  43.2625866  81.2950993  47.2380257  42.5666380  81.6193390  48.5424423
  30.8109474  79.5749426  64.7777271  30.9839869  80.3957081  65.2388477
  29.8594618  79.4765520  64.8127270  86.9780016  15.0337065  14.2842209
  86.5126372  15.6196154  14.8811924  86.3945771  14.2815627  14.1835845
  54.3530584  14.4321478  47.7947760  54.8867107  15.0946749  47.3560238
  54.7813201  13.6022032  47.5849628  51.4980722  10.7753218  64.2506123
  50.6485844  10.5877722  63.8513279  51.3134122  11.4557017  64.8980808
  54.8027444  18.9119948  20.0784206  54.4894839  18.7266386  19.1931272
  55.6030441  19.4205893  19.9477148  61.5139771  19.5435370  13.3600330
  62.0764423  20.3085078  13.2388151  62.1121216  18.8468874  13.6304545
   7.2479202  44.3259303   1.4570649   8.0044771  43.8210265   1.1588462
   7.1908356  45.0574939   0.8424314  61.5290976  18.3841551  41.9584990
  62.2817445  18.2978381  42.5435686  61.5917707  17.6283301  41.3745213
  73.6210204  30.9914912  44.7460604  73.1891251  30.1400221  44.8146486
  74.2691088  30.9887541  45.4504824  53.1735540  14.4127882  68.7839127
  52.6621151  15.1608695  68.4756231  53.3981181  13.9316405  67.9874849
   9.0674806  81.3983154  50.3899336   8.3396161  80.7773304  50.3613520
   8.8434082  81.9973660  51.1020947  10.0134587  78.0036116  48.8800335
   9.9426937  77.9672432  49.8339224  10.5917287  77.2748375  48.6548042
  70.8448660  62.3139774  33.0764985  71.6109430  61.9053184  33.4794331
  70.1376259  62.1688556  33.7049747  22.9309750   2.0810528  41.1156607
  22.7699542   1.1951806  41.4405203  23.8598633   2.2343998  41.2885189
  58.8725962  69.6106683  36.7501712  58.8409923  70.5669986  36.7243433
  57.9543661  69.3404101  36.7433858  84.6847406  26.3349867  13.6590087
  85.5363562  26.2705898  14.0912545  84.7979259  25.8612013  12.8350270
  65.8639168  27.4211121  12.2496748  65.4693317  27.6576972  11.4102936
  66.3060617  28.2189512  12.5398338  26.7561960  21.6392493  61.1818790
  27.2099042  21.8552017  60.3671741  26.1362886  22.3575282  61.3084507
  85.5477474  25.7811141  21.2638426  86.2089210  26.0453725  21.9035673
  85.8740823  24.9537706  20.9099531   5.7365185  10.1403618  44.1083765
   5.3293777  10.5412459  43.3404207   5.0839198   9.5170718  44.4275284
  65.6674337  15.8699024  18.2076466  65.8522701  15.4679275  19.0564585
  66.2497234  15.4181683  17.5968218   6.0137962  75.7858999  65.6150387
   5.1045274  75.6498130  65.8813865   6.4762901  75.0125964  65.9380515
  79.1531789  28.8465571  46.1480379  79.5970809  28.1341362  45.6879950
  78.4164947  28.4241271  46.5897179  55.8116960  12.4191546  44.3224239
  55.5554914  12.2493279  45.2289295  55.6012129  13.3424592  44.1830063
   2.5696048   8.0690414   1.7096785   2.2740816   8.0013704   0.8017587
   3.4993687   7.8439665   1.6763330   2.3159742  18.4271157   8.1688708
   3.1627494  18.7831318   8.4380478   2.0502172  18.9741278   7.4296933
  70.0391316  57.5339328  61.4012814  70.4370200  58.3168613  61.7819929
  69.6046125  57.8475963  60.6081629  20.2867508  79.7768593  32.2842121
  21.1477256  79.4406033  32.0354486  20.4686427  80.6250572  32.6888323
  62.8400090  67.5227808  65.3991652  62.8486540  67.3877787  64.4515753
  62.2180971  68.2379018  65.5335522  10.0757754  35.7674980  49.3025112
  10.0848389  34.9614620  49.8187017   9.7880167  35.4914236  48.4323311
  47.9948496  18.7453723   5.6171155  47.5900650  18.3203769   6.3732636
  47.9767894  19.6786904   5.8288264  31.7319083  13.0730784  27.6709580
  32.6431680  13.2537127  27.9016280  31.2202406  13.5660517  28.3123660
  20.6822966  79.7807677  64.7696249  20.9103482  79.2963154  63.9761953
  20.6313895  79.1118295  65.4523836  71.4891707  37.9121828  41.1207151
  71.8844115  37.7665353  40.2611828  71.0405874  37.0905185  41.3204002
  17.6162839  26.9698930  36.1708355  18.5023117  27.1346116  36.4934111
  17.7115941  26.9288707  35.2192760  41.6160356  79.3686346  23.4601116
  41.7201149  79.9817716  22.7324700  41.2622177  78.5759943  23.0566692
  82.3972049  28.4180236  32.3029947  83.3352819  28.4963846  32.4764967
  82.1630573  27.5526452  32.6384473  24.1877317  29.8533654  50.0373793
  24.4715333  29.0778685  49.5533466  23.3359599  30.0729132  49.6598673
   5.6974691  28.1805706  55.1911545   4.9146861  28.3895850  55.7008553
   6.0944819  27.4425650  55.6537199  78.5862052  32.1623111  32.2985268
  78.5494488  32.8183603  31.6024804  79.4862324  31.8373680  32.2741032
  37.7831483  20.3824854  33.3614850  37.2146749  19.7611475  33.8164663
  38.6335468  19.9448431  33.3224607  11.8489552  63.3995962  11.9602382
  11.9171369  62.4903870  12.2516525  12.7221692  63.7637854  12.1054828
  30.6150961  73.2422046   7.0129569  29.7224122  73.4762076   7.2671063
  31.0132979  72.9084400   7.8168662  41.8103527  72.1572440  30.1105881
  41.9120526  72.4498188  31.0162878  42.4867486  72.6324533  29.6279955
  74.3232655  20.2952337  21.9340491  73.6938202  20.9579682  22.2183275
  74.5958876  20.5820870  21.0624862  21.9966793  20.4851103  11.7383301
  21.3729930  20.9592962  11.1884236  22.8266335  20.9443831  11.6099644
  19.3159056  10.7342601  34.8233271  19.2461574  10.2293563  35.6335354
  18.6334586  10.3739262  34.2570615  77.7327102  66.0406351  29.9406743
  77.8605020  65.0924158  29.9126768  78.0312061  66.2968779  30.8132982
  82.0902133  13.0512393  38.0492401  82.1973732  13.6643612  37.3220325
  82.2471875  12.1902013  37.6616764  68.1079017  77.8363683  14.4635189
  68.4687888  78.6218475  14.8746336  68.0902361  77.1854197  15.1650786
  22.9082531  52.4548498  14.8723348  22.0315075  52.4513701  15.2564462
  22.9617185  53.2885305  14.4050630  74.9661445  40.6330501  48.8012838
  75.3572630  40.7429658  47.9345798  75.6216323  40.9811603  49.4057560
  70.4929339  56.8764114  13.2982290  71.4287161  56.9883347  13.4656048
  70.1319551  57.7611113  13.3550739  40.6221937  79.1634928  41.5263700
  41.2963175  78.4975954  41.3908386  40.9138071  79.6454892  42.3002386
  86.4006232  10.0400591  27.5370550  87.3130140  10.2560818  27.3444176
  86.0969552   9.5692515  26.7609358   3.6165285  29.1204119  23.9324164
   3.9972517  29.3845844  23.0948639   4.3712601  28.9666295  24.5007157
  71.9495844   3.0097314  70.0806154  72.0246696   2.6925727  70.9806181
  71.4817630   2.3134586  69.6195480   7.9055554  17.6308143   8.3919942
   8.3475143  16.8826056   8.7933499   8.6029524  18.1079590   7.9423249
  13.0263042  76.7711973   0.3430499  13.9584994  76.9885492   0.3440410
  13.0023348  75.8196592   0.2418899  70.5708003  79.2527679   3.2820352
  71.2851214  78.9947394   2.6994498  70.8907103  80.0425962   3.7179931
  14.4769788  51.4734745  13.2169998  14.8648441  51.6029692  14.0824604
  13.7265515  50.9004211  13.3741558  68.9411747  34.8780700  57.3838751
  69.3732285  35.7206794  57.2439877  68.3156656  34.8070117  56.6628186
   9.3669450  57.0897722  19.4807303   9.3863606  56.7662954  20.3814077
   9.0793353  56.3381767  18.9624524  84.4126908  46.7365789  42.6513052
  83.8694551  47.5016594  42.8404522  85.2211847  47.1002340  42.2902966
   3.5778221  47.3444605   0.7378043   2.8004158  47.8403425   0.4809584
   3.3091590  46.4279509   0.6740983  28.9503526   2.8688832  70.2648818
  28.8964295   2.6419564  71.1932284  28.3133434   2.2941657  69.8404387
  85.5039767  30.6228232  39.6610737  84.6462917  30.5609584  40.0815296
  86.0324043  31.1391139  40.2697134  35.1308076  78.1622560  65.6135164
  34.7366135  77.8399165  64.8029975  35.5644636  78.9774521  65.3612660
  79.6147346   8.0407401  69.8247271  79.8098492   7.4443980  70.5475967
  80.3974532   8.0141660  69.2743832  35.0139380  10.2803493  22.4557948
  34.7246027   9.4063014  22.7176285  35.9407258  10.3071105  22.6936626
  24.3829203  22.5998139  22.6982117  23.8601255  23.2396865  23.1814122
  25.2882218  22.8043914  22.9323220   6.1298966  73.8429546  25.6712079
   6.9339263  73.3266258  25.7275081   6.4288026  74.7311974  25.4765010
   8.0100774  70.5272066  45.2367735   8.6383676  70.0001120  44.7431612
   8.2571697  71.4326703  45.0488567  24.3337727   2.1634409  44.7977543
  23.7525606   1.5133741  44.4029903  24.9912310   2.3373489  44.1241550
  85.7203036  39.5223784  20.6953406  85.6220223  40.1960230  21.3682270
  85.1370191  38.8170505  20.9755588  82.4461591  23.3406615  15.9742451
  82.3577973  23.2049751  16.9176507  83.2906091  22.9475522  15.7537854
  80.1187783  38.4020233  36.4653563  80.0774300  39.0537810  37.1651649
  80.8001577  37.7914381  36.7466712   4.6192533  45.9761143  20.0772452
   5.5571949  46.1171293  19.9483597   4.4357124  46.3563013  20.9363174
  17.2925984  79.7330840  63.0847983  17.8898655  80.1261623  62.4484078
  17.2602783  78.8074906  62.8430079  32.5909344  57.6127080  10.3794320
  32.1552512  57.3745183   9.5610936  33.4059632  58.0320839  10.1036008
  20.4476738   4.8897928  29.2975116  20.2525258   5.7876438  29.0291595
  19.8416126   4.3507907  28.7891841   0.8140138   8.9482212  33.7225699
   1.3018104   8.8986129  34.5446563   1.1492494   8.2191241  33.2007790
   5.1261991  58.5818291   9.9084520   5.4280448  58.8635874   9.0448940
   5.2635711  59.3442154  10.4707026  23.6371279  67.4562836  39.3949151
  24.0222836  68.3270311  39.2964959  23.2828856  67.4501896  40.2841330
  34.4052577  67.1061707  29.6372509  34.7993851  67.7104282  30.2663517
  33.9397478  66.4677954  30.1776314  24.4513726  29.2569280  31.2050962
  23.8695407  29.9911523  31.4016056  24.1301537  28.5427904  31.7556024
  75.3625142  32.2422671  31.1842084  76.2143874  31.9133520  30.8972263
  75.2440404  31.8700027  32.0580602  20.3937578  39.3857098  21.0189438
  20.2362847  40.0659466  21.6737080  21.1258149  39.7181368  20.4995036
  63.2514452  41.3630295  15.5193996  63.1970977  41.9615221  16.2644434
  62.9005646  41.8643856  14.7833562  61.8436121  78.0317974  47.1423864
  61.7323041  78.9123774  46.7840338  62.7870202  77.9467535  47.2801447
   0.8570072  43.5534048  14.1608489   0.9547811  42.6085806  14.0425801
   1.7269459  43.8530397  14.4247711  49.9916565   0.1520272  70.1503931
  49.1933899   0.6645414  70.2781754  50.6781243   0.8063146  70.0203983
  65.4651689  35.2864909  42.1797371  65.6546473  35.7803869  42.9774809
  65.5211687  34.3690777  42.4470377  36.4564919  20.5426002  70.4559660
  36.8556833  19.9308312  71.0745287  36.7959166  21.3996267  70.7138968
  85.3735026  35.9537268  55.5893564  85.6075327  36.5948510  56.2604904
  84.6076048  36.3298202  55.1555538  29.3640018  54.3317080  33.5338569
  29.3026209  55.0094604  34.2069960  28.6144519  54.4943380  32.9611826
  85.1798529  37.8946090  41.8086147  85.0016705  36.9542480  41.7942190
  85.1861463  38.1229854  42.7381516  26.6513467  24.0872097  66.3609171
  27.2732329  23.8711190  67.0557499  26.6739964  23.3303785  65.7753181
  80.0276666   6.4409059  22.7243876  79.3666213   6.3518739  23.4109187
  80.8569979   6.5076929  23.1976533   5.3853655  41.5970278   7.4371958
   4.5617366  41.2587357   7.0858741   5.2109051  41.7321968   8.3686060
  10.3657734   7.5938481  23.4652567  10.5419731   7.3477113  24.3733335
  10.0830233   6.7805165  23.0471969  46.1627030   6.3435471  53.2835054
  46.7416071   6.5407717  52.5471592  45.9546780   5.4146981  53.1825256
  12.7805817  44.1909599  60.1121998  12.1738017  44.4481850  60.8063793
  12.5041091  43.3078241  59.8675156   3.2668540  48.1145716  59.4521570
   3.9853656  48.5050201  58.9546394   2.5107270  48.6673307  59.2547750
   5.8211159  54.5842444   5.1393300   6.7156887  54.8255884   4.8990658
   5.8264470  53.6271416   5.1519763   8.6155701  25.6769013  10.8802521
   9.2124099  26.4158750  10.7622182   8.4389758  25.6595278  11.8208599
  18.0614698   8.2440108  66.2515593  18.0693853   8.4522539  65.3173161
  17.1575165   8.4011638  66.5243244  20.9959602  51.6269159  59.5910025
  21.2148786  51.9364500  58.7120867  20.2339411  52.1473742  59.8453379
   4.8282564   3.5781014   9.1824412   3.9681619   3.7103736   9.5811564
   5.0719738   4.4408274   8.8469756   0.3589308  55.2610254  24.2808700
   1.0005993  54.6079302  24.0016484  -0.3089416  54.7570753  24.7458553
  16.4842701  26.3244172  61.0024993  16.6695594  27.0201036  60.3716914
  17.3379802  25.9306880  61.1824731  39.1971397  44.1786289  25.6983685
  39.0859938  43.8925266  26.6050243  38.3047795  44.3055344  25.3761578
  22.1270227  28.3569360  57.1674442  21.4219809  28.1867337  57.7920914
  22.6360798  29.0621495  57.5671530   0.9586190  48.1411648  19.3385959
   0.2358296  48.3369637  18.7423825   1.0702594  48.9420509  19.8507977
  19.6095765  23.3757877  63.4430504  18.7200642  23.2563663  63.7758255
  20.0016689  24.0194201  64.0331650  17.4928820  43.4554243  14.5160019
  16.9789124  43.3644533  13.7136352  18.2114828  44.0400839  14.2751336
  75.8753883  79.0404051  20.7167530  75.0044536  78.8532661  20.3664923
  76.3604950  78.2233070  20.6016231  38.4648085  17.4316920   4.7902396
  38.9482260  16.7405451   5.2428496  39.1432000  17.9775275   4.3926460
  82.2061222  41.8650007  46.1205721  81.3996219  41.5490389  46.5279436
  82.5957495  42.4424648  46.7770433  67.9390179  68.3512591   5.9702998
  68.8321602  68.5381412   5.6811571  67.5312179  67.9155408   5.2219146
  18.3235216  21.4322662  40.8728456  17.8759766  22.1819425  40.4805183
  19.2473614  21.6826153  40.8817148  13.5302460  17.5534320   6.7951220
  13.2985127  17.2652197   5.9122491  14.3841982  17.1540892   6.9610202
  21.6070867  55.8557463  49.0609169  21.4848995  56.4475870  48.3186054
  20.7314467  55.5137157  49.2411947  76.5731501  40.2026367  34.6091032
  77.2560370  39.5767784  34.8503494  76.6597366  40.9098291  35.2483320
  25.6264114  40.5091238  33.7181377  26.1332107  40.2942801  34.5012259
  26.2289095  40.3495455  32.9916668  44.1151904  25.9051390  63.5422067
  43.8060080  25.8613010  64.4470362  44.8546528  26.5122659  63.5709236
  28.9288496  16.7500230  67.1595154  29.7582721  16.8669149  67.6227931
  28.8186049  17.5579425  66.6581754   7.7863783  58.1101084  30.1758146
   7.5625187  59.0340042  30.0638413   7.8789270  57.7762461  29.2835140
  60.0175213  22.7463150  42.8943729  59.8969435  21.8041921  43.0131054
  59.5517182  23.1421089  43.6309910  19.3239367   6.9344080  25.5354595
  19.1632283   6.9286383  24.5918632  19.5760596   7.8370799  25.7299709
  84.2519179   8.0377495  36.1056519  84.7126713   7.9315841  35.2733850
  84.7631375   8.6930037  36.5805507   7.2893417  29.2200780  50.9454012
   7.9688555  29.8411179  50.6830978   7.7356768  28.3737230  50.9718275
  11.4092219  14.7987437  41.3258123  12.3445511  14.9687171  41.2140036
  10.9788966  15.5527949  40.9227514   3.8254994  57.5276279  13.1338644
   3.6721697  56.9782209  12.3651803   2.9620907  57.6234961  13.5358179
  17.7815950  25.6637359  29.7351289  16.8326378  25.5610538  29.6632338
  18.0033922  25.2593923  30.5739045   7.8054839  33.1681895  54.9911499
   8.3978885  33.8248491  55.3573322   8.2372391  32.8775144  54.1878271
  74.6316313  27.0039177  48.6239100  74.4922113  27.6394558  49.3259716
  73.8640010  26.4333344  48.6614370  34.8594570  19.4453418  25.3240561
  35.3197122  19.2242110  26.1336851  34.0823150  18.8865519  25.3300571
  19.8439503  26.6297245  18.4726691  19.4411683  26.4451504  19.3211567
  19.4211948  27.4360752  18.1771934  72.7370441   7.5532997  49.7538328
  73.5649538   7.1211737  49.5439196  72.1302545   7.2491509  49.0788984
   6.3612431  41.0284519  35.0673270   6.3611150  40.1235390  35.3793597
   7.0122743  41.0397768  34.3657112  80.3835314  26.6232228  19.2204404
  80.4886466  26.1415315  18.3999801  81.1102598  27.2461605  19.2272496
  20.9908962  72.2981215   8.8283736  20.8200908  73.2397223   8.8073134
  20.8853722  72.0151854   7.9200542  76.5297401  35.4874015  32.5720501
  77.0754182  34.8909736  32.0594692  76.5969538  35.1618505  33.4696770
  51.3692808  62.3811436  37.0223618  51.3470339  61.5234280  37.4466944
  51.8010735  62.2220039  36.1830401  19.8698187  51.7732668   0.8392118
  19.3517840  52.1512461   1.5498482  20.0423598  50.8746910   1.1203176
   8.6876559  16.7914951  26.1498809   8.2531172  16.5245783  26.9599199
   8.1537944  17.5135326  25.8183908  20.6420660  45.2073431  41.3208055
  21.4089274  44.7763205  40.9434748  20.5169201  44.7764063  42.1663046
  30.1868653  14.8582530  32.0438766  29.5855570  14.4874954  32.6897860
  29.9098897  15.7701361  31.9545150  81.5963590  20.3404975  44.0054083
  80.7943481  20.1852179  43.5065126  81.3151991  20.8687019  44.7525263
  10.0257754  55.1323748  11.7163002  10.2052963  54.5869541  10.9504557
   9.1275561  55.4372740  11.5879607   8.2909751  61.6401863  61.4244366
   7.7738500  61.2454128  60.7223177   7.6893365  62.2503424  61.8510199
  85.1397408  62.7259016  12.8825021  85.8665856  63.3337593  12.7467179
  84.4837606  63.2386255  13.3547711  66.4956378  33.9726134  62.1119891
  67.1856653  33.3291455  61.9506000  66.5205102  34.1183778  63.0576978
  16.8707204   9.6673232  56.8863392  17.2405326   9.2831433  57.6812458
  17.3875892  10.4596496  56.7403984  23.6468363  35.4642439  13.6357224
  24.4081211  35.1850843  14.1443956  23.6425424  34.8851037  12.8736138
  30.9225416  43.4805775   4.8471674  30.1497889  43.8537455   4.4231033
  31.2212300  42.7996874   4.2443371   4.6260989  18.2981741  24.0303302
   4.5450106  18.0149627  23.1195879   4.3027154  17.5563383  24.5415378
  12.4204791   5.9082931  13.7874150  12.2916532   6.8553776  13.7357736
  11.8302524   5.5497968  13.1245840  42.1816754  76.0315012  50.5511236
  43.0147921  75.8191716  50.9719181  42.3728549  76.8022673  50.0167084
   5.8400697  37.6377678  53.9271450   4.9011612  37.8105211  53.8575840
   5.9798032  37.4432993  54.8539066  78.0447101  65.9328318  46.4416027
  78.6923009  66.3496828  47.0100164  77.9303401  66.5481281  45.7173395
   6.6396838  47.9198313  37.3949599   7.5556207  47.8045464  37.1419764
   6.6795677  48.3391523  38.2545018  76.4553594  76.0165869  12.0681071
  75.9881269  75.2334796  11.7771292  76.4527105  75.9559738  13.0233824
  73.3117437  12.5233698   4.9119705  73.1402146  13.4486973   5.0868386
  73.1257367  12.0842826   5.7419312   3.9576799  34.7193360   8.0014414
   3.4776160  34.1613722   8.6133623   3.4795755  34.6366692   7.1763265
   1.9035804  11.7463481   8.8441396   1.4032567  12.5446129   8.6747867
   1.2421243  11.0926867   9.0709329  10.1008391  22.1137019  35.0354950
  10.0825739  21.2282201  34.6724216  10.4659629  22.6527759  34.3338434
  29.3712544  63.3766270  22.5670028  29.9820518  63.7709236  23.1896496
  28.9815474  64.1215563  22.1093583  62.7173376  25.6234908  46.6383743
  63.0788350  24.8043323  46.9768000  61.9088339  25.7515430  47.1345186
  58.7929368  65.1421431  18.6064370  57.8545499  65.3199676  18.6699708
  58.9150620  64.3247942  19.0894063   6.3545346  45.3982353  52.8195381
   6.5160513  46.3388729  52.8926039   5.4691207  45.2798271  53.1634235
   8.5464460  69.5578241  20.2107930   8.1683064  69.4200182  19.3423164
   9.4483238  69.2471123  20.1313949  56.9787312  18.8722627   9.7688706
  57.9105844  18.7939088   9.9731763  56.9264604  18.7173621   8.8257344
  26.3131666  43.1957054  34.4671416  25.8341765  42.5378084  33.9631867
  27.2332287  42.9518080  34.3659830  32.6532458  77.3248561  64.4262664
  32.2412227  77.9756816  64.9945025  32.0319055  77.2065122  63.7078212
  22.1198845  53.5336733   6.7435277  21.9281697  53.0238199   7.5306284
  21.4017034  54.1638184   6.6855067  14.3925536  13.9255941  15.4243374
  15.2904296  14.2504883  15.3572977  14.2449903  13.4581077  14.6021986
  41.3527548  81.0382008  21.2117338  40.4230403  81.2483745  21.2994218
  41.6769647  81.6552486  20.5557060  23.9738417  54.7767162  37.0386958
  23.3033919  54.4216442  36.4550424  24.4681191  55.3875780  36.4920950
   9.6796525  20.0186300  18.6954963   9.7445524  20.9530973  18.8924503
  10.3857887  19.6174693  19.2021263   4.7394004  13.5321367  22.2234917
   3.9892045  13.5369146  22.8179789   4.5868823  12.7799988  21.6514254
  82.3013323  22.2100401  18.7378347  82.4873349  22.9860640  19.2664409
  81.6106551  21.7531562  19.2178893  82.1152770  45.0175714  10.3144777
  81.3248837  45.0921726  10.8492148  81.9820454  45.6423569   9.6016496
  10.4569805  33.8124657  30.3194880  10.1067841  32.9503584  30.0950670
  11.2795806  33.6264014  30.7721901  33.5664855  62.9535515  70.9043583
  34.4544845  63.0241258  70.5540604  33.1076999  62.3891480  70.2821064
  84.8582653   1.9229241  59.4232607  84.5249663   1.6807675  58.5592556
  84.4167128   1.3251138  60.0264883  15.1474893  21.7422533  13.7336516
  14.9521458  21.4558697  14.6258712  15.2698565  20.9297204  13.2426822
  22.9785752  24.7762847  28.4124112  23.8272285  24.6080709  28.8219500
  22.5295019  25.3606582  29.0232086  62.1135425  53.7911701  41.8270779
  61.8375563  54.2243862  41.0193729  61.4533567  54.0443373  42.4722862
  14.5534301  48.0808306  36.8259311  15.1967049  47.6908588  37.4178362
  13.9642000  48.5692787  37.4007821  22.9454494  65.4886580  29.2971754
  22.4223113  64.9581003  28.6962891  22.7505803  66.3926744  29.0501618
  82.6237201  31.0780382  27.0198512  82.2100609  31.7475438  27.5647187
  82.0170107  30.9548831  26.2898040  63.1126523  31.5565872  45.8366013
  62.2211504  31.2711954  46.0366201  63.5822677  31.4746809  46.6666508
  69.5552492  11.3062656  55.2765369  68.9656853  11.1998403  54.5299959
  69.1819632  10.7473779  55.9581041   7.8869623  61.2793732   8.1072986
   7.2002882  61.7568636   7.6417726   8.3157647  61.9428587   8.6478055
  15.9456265  28.5479021  16.6600001  16.8454540  28.8713837  16.6163945
  15.6240582  28.8482714  17.5100613  20.2912331  29.7498608  30.3685498
  20.8165312  29.7062516  29.5695543  19.3889499  29.8257637  30.0581384
  16.5447700  21.9995093  48.3207703  17.1788955  21.8019605  47.6315022
  15.7690597  21.4903641  48.0856562  13.6011791  37.2770619  46.7638254
  13.2748568  37.9922295  46.2176752  12.9030252  36.6225338  46.7436647
   5.2898300  20.9533477  46.0390854   5.8216828  20.4029679  45.4642391
   4.4278026  20.5372477  46.0387421  21.3036680  54.7318840  27.2849393
  21.2415862  53.8211441  27.5729156  21.4061761  55.2325439  28.0942965
  80.7893884  66.3367748  22.8181076  81.4035856  67.0536518  22.6597309
  80.7448595  65.8706760  21.9832420   4.5751905  76.9743817  68.5384130
   3.7326884  77.0060076  68.9916468   4.5589399  77.7289717  67.9497147
   4.8929566  45.1521826  15.3408134   4.3328962  44.8941422  14.6087062
   5.0590485  44.3369961  15.8142269   2.0152180  54.2657661  58.8130808
   2.0120287  55.2220297  58.8553190   2.8985557  54.0419054  58.5201073
  23.5931039  62.7299452  38.6633921  23.3095574  62.5567579  37.7657056
  24.2554069  62.0614386  38.8385582   2.4504857  49.9460268  24.9989462
   2.0840278  50.7024431  25.4569530   2.1291746  49.1898823  25.4901028
  18.8254762  14.2184997  25.3353572  17.8754091  14.3042874  25.2563286
  18.9724267  13.2796955  25.4506230   1.4489436  72.3016392  12.1470153
   1.9478440  73.1053161  12.2934175   2.0741915  71.5971910  12.3174489
  23.5988617   8.6929768  45.3718758  23.3684635   9.3298894  46.0482597
  24.0295506   9.2109716  44.6918631  79.2145276  56.4875889  18.8295531
  78.7005865  55.7097197  19.0463781  80.0029379  56.1442280  18.4091437
  83.6859959  19.2465901  61.3293839  83.4784779  19.9532759  61.9407415
  84.6426178  19.2249215  61.3041401  66.0264468  44.1469431  55.6343603
  66.7513418  44.4043827  56.2039948  65.8215403  44.9376297  55.1353025
  14.3477094  43.7605190  22.8567648  14.4663906  44.4221449  22.1753001
  13.8248599  44.1991091  23.5279560  29.9039064   0.5784834  26.7360067
  29.5738498   0.5559767  25.8377934  29.4698769   1.3342608  27.1317983
  72.9821419  32.1224713  62.6437378  73.8992607  31.8690872  62.7482510
  72.9678416  33.0582857  62.8444338  71.4855611  18.4599376  14.0129173
  71.9324970  18.6991119  13.2009590  71.7954516  17.5749278  14.2051566
  26.8889117  23.2814336  23.7908196  26.6448069  23.1137943  24.7010612
  27.7215743  22.8230238  23.6778259   5.4615641  11.8317032  56.6701317
   4.8005986  11.5302193  56.0468626   5.0889468  12.6284552  57.0477200
  82.4958705  45.7983657  62.6184802  82.0123767  45.4806682  63.3810638
  83.4100365  45.5892535  62.8103302  60.1324462   6.5517074  28.1702113
  60.9814143   6.2891823  27.8144526  59.4941902   6.0556144  27.6576161
  69.0207922  76.1333685  32.0148754  69.6986639  75.4901909  31.8074012
  68.9233410  76.6459726  31.2123966  40.0535523  70.1434802   9.9835783
  39.4948124  69.3781458   9.8482800  40.9145700  69.7783898  10.1875126
   4.0696725  11.6282237  28.8539791   4.7265738  12.2957289  29.0518427
   3.9959040  11.1182463  29.6606469  71.3054978  45.9220934  32.5333190
  70.7866370  45.5701685  33.2566190  71.8288779  45.1799726  32.2307205
   0.8367471  72.6519299  59.6615171   1.4752001  73.1169462  60.2022266
   0.7074545  71.8158293  60.1092386   8.8078725  21.4561200   2.7819481
   8.4304488  21.4904380   1.9029686   9.1234422  22.3455191   2.9419976
  53.8653088  28.2460999   7.3401296  53.1153059  28.5582423   7.8463799
  54.6041346  28.7612057   7.6642293  21.5572762  19.3717492  28.6446738
  21.3951921  20.0205469  29.3295264  20.8273053  19.4796133  28.0349684
   3.2169631  31.3761663  54.8282433   2.7083057  30.5863070  54.6448803
   3.9483881  31.3384676  54.2119408  83.9244177  47.0836973  33.7745428
  83.3444386  47.8173018  33.9787006  84.7267191  47.2697258  34.2623329
  16.8086982  44.9219561  27.9523087  15.8721435  44.7431326  27.8679299
  17.2247493  44.3128443  27.3422909  41.4632845  36.6595459  25.8070636
  42.3372316  36.3275099  26.0124850  41.1128807  36.0348678  25.1720619
  64.0039348  67.0579624   1.3209665  63.4200978  67.0586634   2.0794952
  64.7723960  67.5502062   1.6097485   1.0715723   7.2122308  64.0902398
   1.8642115   7.7434560  64.0143691   0.9245205   6.8739291  63.2069747
  48.6888409  62.8398800  37.8675246  48.4850931  62.6337242  38.7797832
  49.6286297  63.0216026  37.8671765  80.6903755  38.5610867  56.4411163
  80.4311817  37.7563381  56.8899298  81.5495884  38.3618426  56.0692501
  50.9380048  79.6288109  20.7747960  51.5256619  79.6589995  21.5297651
  50.1497566  79.1954242  21.1020160   8.3660966  63.1190252  45.7017517
   9.2133695  63.1174135  45.2563810   8.4551460  62.4580097  46.3883114
   5.6373686  25.0879693  44.3326616   6.5919518  25.0343633  44.2865276
   5.4146361  24.6788073  45.1688480  80.7822703  55.4689415  65.3307418
  80.1696990  56.1215587  65.6699733  80.8367275  55.6559105  64.3935607
  79.0047979  49.7483275   2.9125197  79.2615318  48.8279030   2.9685433
  79.7731328  50.2303383   3.2183965  54.2132235  62.2649574  35.8585453
  54.7089338  62.9211998  35.3688002  53.7094259  61.7984486  35.1916194
  12.1718729  37.8496408  37.3384619  11.8053532  37.5639749  36.5016270
  12.2414041  38.8008523  37.2572589  24.0732622  48.8010454  35.7686114
  23.8275170  48.4966993  36.6422343  24.3021345  48.0028200  35.2924919
   8.6396480  78.1017685  54.7021294   7.9763776  78.6294603  55.1469278
   8.6010993  77.2508240  55.1387501  83.0533239  57.0081663  69.3969440
  82.4635541  56.4449406  69.8981190  82.4775505  57.4891901  68.8025236
   4.0929338  25.0875282  48.7446880   4.5642361  24.7157407  47.9991102
   3.4877744  25.7185221  48.3549929  37.6663351   1.6828192  52.3769617
  37.3160476   1.4433516  53.2349777  37.1870780   2.4753703  52.1353006
   8.4965760  66.8067360  48.3490467   9.2475212  67.3835039  48.4892273
   8.4705454  66.6734266  47.4015331   4.7166052  47.0615101  35.5383945
   5.3374809  47.4598646  36.1483598   5.0568730  47.2829676  34.6715569
   4.4631621  42.2269773  23.1111479   4.3806008  41.2926245  23.3019352
   3.5606065  42.5366116  23.0352926  37.9363823  44.7897148  11.4662731
  38.8748813  44.8683929  11.6373265  37.5192714  45.1397038  12.2535217
  35.0292587  73.9879704  11.9145358  34.7961020  74.8978519  12.0988977
  34.2441559  73.4890842  12.1402705  35.0384545  71.2501907  26.6809845
  34.6475315  72.0438910  27.0463014  34.4095540  70.5578899  26.8845487
  20.1258826  56.4588642  40.3574896  20.6634712  55.8671713  39.8310590
  19.3105423  56.5450478  39.8635030  29.0854430  60.9716129  28.0189109
  29.4494224  60.3041267  27.4373507  28.4725070  61.4598131  27.4691820
  34.5166302  54.1915846  31.4768600  34.4709778  53.3495474  31.9297647
  33.7510920  54.6736002  31.7896581  20.8071375  61.1463881  27.2756815
  21.4912438  60.4771471  27.2570324  20.6761050  61.3806152  26.3568783
  30.6320031   1.6155852  53.1332016  30.2683074   1.5126933  52.2537851
  31.1154512   0.8042468  53.2888889  19.1644382  36.9766450  31.3104606
  18.7525403  36.6380739  30.5155134  20.1036835  36.9308352  31.1317015
  36.8509150  34.1726160  17.2284377  36.3654160  34.1762042  16.4035082
  37.0811462  35.0901079  17.3748446  29.5172170  62.3982580  69.9917948
  30.3065034  61.9329341  69.7147879  29.3525035  63.0288751  69.2907788
  19.9817586  47.4599600  29.5098591  20.7067156  47.0913696  29.0050697
  19.3861651  46.7232132  29.6466255  10.6280112  71.5189314   2.8421333
  10.8409262  71.6914749   3.7592638  11.2021005  70.7938671   2.5952891
  24.8747110  20.9557271  32.6586366  25.1487756  21.1236119  33.5602641
  25.0620675  20.0272918  32.5202894  60.2625776  19.0119399  16.5801227
  61.0331488  19.1236914  17.1368682  59.7679353  19.8240317  16.6899443
  12.3823011  49.0374660   5.6266254  12.7845454  49.0784216   4.7590116
  12.4892223  48.1256104   5.8973950  71.4704586  14.2836921  16.0748704
  71.8963958  14.8030584  15.3929170  71.5602470  14.8109643  16.8686994
  21.5064549  41.0551739  19.1614997  21.1846423  41.9478559  19.0358388
  22.4090147  41.1658096  19.4604647  86.4298526  25.9379625  25.4988980
  85.7170882  26.5305853  25.2601600  86.7033097  26.2302709  26.3683844
  44.5157612  11.0501708  20.6957603  45.4624737  10.9672678  20.5813289
  44.1982627  10.1476706  20.7263160  34.5694041  46.7297935  34.8422122
  35.3629375  46.1946964  34.8277640  34.4260859  46.9206762  35.7691717
  30.4729128  47.6152658  31.9017792  30.4413295  48.1562710  31.1127639
  31.3487363  47.2291565  31.8925452  17.5799656  61.6160345  56.6692352
  16.6306627  61.7157459  56.5977144  17.7005017  60.9493065  57.3453808
   1.8508840  80.7734108   7.0725489   1.4777687  81.6236591   6.8399709
   1.3301200  80.4797173   7.8200668  13.6172318  29.9032998  26.4581800
  14.1473866  30.6565404  26.7185569  12.9807317  30.2609110  25.8391380
  25.4785609  68.6913919  23.3259821  25.0689864  69.5016718  23.0227852
  26.4129233  68.8954735  23.3653474   1.5175819  17.2522231  69.1623518
   1.2302470  18.1044980  68.8347853   0.8152079  16.6510841  68.9142918
  77.1883261  45.4502773  14.0032172  77.1759384  44.6543169  13.4716892
  78.1179934  45.6472111  14.1179717  84.1650322  24.4836521  32.8336477
  85.0342983  24.8325109  32.6364040  84.3212451  23.8133621  33.4988880
  21.0317874  51.5634632  33.2079077  20.4932284  52.2633505  32.8386569
  20.7567811  50.7762861  32.7378535  79.4609552  15.2211702  12.1249580
  79.5132517  15.5307615  11.2207174  80.2547013  14.7000659  12.2459888
  11.3009238  60.8372307  51.6927004  11.4482474  61.7829609  51.7039490
  12.1614850  60.4586220  51.8724775  35.0274629  68.8951854  16.4899953
  34.4660980  68.9483527  17.2634728  35.6488788  69.6156243  16.5950711
  23.2525110  55.6028843  51.1832952  23.6825633  56.4462996  51.3244963
  22.5697970  55.7871771  50.5381823  78.6270773  42.5025511  18.2204294
  77.8374898  42.8317022  17.7909625  79.2566245  42.3874807  17.5086272
  80.5430358  32.2175074  50.1301003  81.0555291  31.5758801  50.6219339
  80.1582914  31.7163324  49.4110537   8.5086292  54.5525694  41.1278200
   8.3721632  53.6578798  40.8161402   8.7788850  55.0389290  40.3489447
  34.0233815   9.3150176  15.9684551  33.1173766   9.6208704  16.0113943
  34.5346302  10.0254954  16.3558483  17.0858574  29.5300555  38.6451435
  18.0337214  29.6437693  38.5754800  16.7197216  30.2594757  38.1450200
  82.3931154  52.2222662  32.1987534  83.1658804  51.6984749  32.4101996
  81.7027622  51.5780687  32.0417261  60.9198979   3.4675233  12.5239976
  60.8495463   3.4725301  13.4785970  61.7707170   3.0655401  12.3486455
  12.2164786  59.6997261  26.0170412  11.3333154  59.3840933  26.2084317
  12.1483958  60.0875473  25.1445794   6.4590615  72.7127457  32.7592874
   5.8421510  73.3073378  33.1860352   7.2281045  72.7160501  33.3291936
  14.4785452  62.6397705  47.0312214  13.8458490  62.7589130  46.3228941
  14.9979460  61.8816519  46.7634344   2.4102993  74.4435215  66.0266018
   2.8496325  73.8039494  65.4660892   2.5523886  74.1199684  66.9161844
  36.5243267  29.2545673  67.1250041  36.7250013  29.6967670  66.3001288
  36.0119008  28.4882041  66.8674411  22.8354716  71.1905813   2.5258532
  21.9695497  70.8522511   2.7537668  23.2308602  71.4223385   3.3662021
  13.3374357  29.7896739  63.7910239  12.9557943  29.8847076  64.6636925
  13.5600519  30.6828185  63.5284053  37.3383141   6.1773133  46.5547323
  38.2507753   6.4530963  46.4676332  37.3135662   5.6874943  47.3767424
  70.6960951   6.3018724  68.6044195  71.6029798   6.0507938  68.7797746
  70.2618038   6.2405416  69.4552195  64.2825771  15.2820815   5.4223776
  64.9464918  15.9604014   5.2985013  64.7811270  14.4672335   5.4831570
  59.1496826   8.0895174  24.6924639  59.5258928   7.2094096  24.7025108
  59.8351431   8.6386717  24.3119287   3.1503534  59.8295259  33.3574224
   3.3748972  59.4114399  32.5261474   2.4576780  59.2791939  33.7228966
  46.2191666   8.8963545  21.7265129  46.0663820   9.5338381  22.4240065
  45.7131625   8.1275977  21.9895959  18.4753919  58.2289648  34.4937158
  18.4942007  57.5161123  33.8551879  17.9381442  57.8935385  35.2114105
  72.5510919  35.1727843  38.6283612  73.3584988  34.7501016  38.3356738
  72.3107588  34.7030663  39.4270086  74.4588756  76.2859296  23.2181835
  74.8687684  75.8063298  23.9380479  73.7767505  75.6969183  22.8956890
   2.2948830  28.8211250  54.2447519   1.6742286  28.1130815  54.4170713
   2.4574366  28.7731481  53.3026743  11.4505935  31.6662908  27.4312115
  10.8792782  30.9854102  27.7865005  11.1288977  31.8083882  26.5409565
  80.1106738  46.3797351  70.6705243  80.8017515  46.0257503  70.1107601
  79.4241714  45.7128974  70.6542501   2.0424627  31.5603781  44.7884703
   2.6936412  31.9797683  44.2260551   2.4332045  30.7178664  45.0202608
  21.9011521  43.4320593  11.8113506  22.4845505  44.0637922  11.3908863
  21.8886375  42.6836300  11.2147534  77.3403371  32.1262472   3.3302339
  77.7847219  31.5198152   3.9226754  76.7994929  31.5650813   2.7745231
  22.7079725  57.4712276  14.0354168  23.0639410  58.3305311  14.2615044
  22.4158144  57.1057510  14.8704624  14.4971526  52.9536963   2.0064965
  14.3060756  53.6109781   1.3373885  14.3163359  53.3964252   2.8356701
  42.5158548  73.3277178  43.1672764  42.8908873  74.1689730  43.4277868
  43.2033587  72.6896191  43.3580780  75.9044587  52.6212168  31.1685729
  76.1289417  51.7398167  30.8702874  75.2377462  52.9206991  30.5504799
  49.1777348  41.6339493   4.9100941  48.7627148  41.5955019   5.7717854
  48.5395693  41.2346792   4.3188578  67.4897586  19.1799518  68.2649077
  66.7781877  19.4518729  67.6852886  68.0717932  19.9389573  68.3019860
  17.9611528  46.2366056  33.4486032  17.0883083  46.5338659  33.7055278
  17.9476595  46.2528563  32.4916363  20.9279108  26.3370514  12.5670910
  20.2783895  26.9090414  12.9759681  21.7593122  26.7967558  12.6840115
  37.3276544  45.7009983  16.5221500  37.8083158  45.2854252  17.2380388
  37.2295070  46.6126204  16.7969966   4.7059107  42.1940184  44.9672318
   5.5549717  42.6060915  45.1269960   4.8654324  41.2590361  45.0960302
  49.7611856  69.2307281  31.7575121  49.2117023  69.8012877  32.2948813
  49.1831350  68.5112143  31.5037513   0.8802716  33.4167385  61.5719223
   0.4162214  33.2924747  62.3998404   0.2203715  33.7763786  60.9791136
  21.3176227  62.6692677  48.8434124  21.7831731  61.8791437  48.5691929
  20.6306767  62.3513317  49.4292927  44.8921490   7.9511107  46.8005657
  45.7485152   7.7895487  47.1965027  44.3478775   7.2236384  47.1018839
  25.3857255  76.2904501  65.5128098  26.2661624  75.9931517  65.2832937
  24.9239945  75.4933596  65.7729673  74.2504572  67.8581858  44.5611906
  73.8376736  68.0081892  45.4116821  74.8221862  68.6155272  44.4355392
   1.5475702  16.3123810  38.2521462   2.2911260  16.5538108  38.8044763
   1.2235190  15.4950583  38.6305714  73.4722852  76.2636571  39.1831350
  73.7313580  75.8393871  40.0011253  74.2396568  76.7740571  38.9245534
  51.0026693  75.5692863  35.9357357  50.3386354  74.9647141  36.2670779
  50.7738018  75.6951809  35.0148654  20.5432367  38.6105800  46.2717390
  20.3865957  39.1821456  47.0234060  21.4628291  38.3570528  46.3511515
  27.4890161  48.1665516  43.0608606  26.6268086  47.8040266  42.8573751
  27.8001690  47.6440287  43.8000393  20.3226209  34.8963976  48.5498285
  20.4671502  34.0190053  48.9041233  19.7769070  35.3321481  49.2044640
   7.5031513  57.4150801  16.9419122   6.8318367  56.7868948  17.2082710
   7.8489017  57.0628119  16.1217940  16.1327267  55.2280807  45.2943754
  15.3238297  55.0236654  45.7635593  15.9041548  55.9705305  44.7351360
  28.0609536  62.4460983  17.5439775  27.8216243  61.8446827  16.8388152
  27.4041438  62.2923994  18.2230997  13.8389361  68.9418507  30.2061939
  12.9874611  68.9822817  30.6416130  13.7706459  68.1915140  29.6158004
   3.4825349  24.4705983  22.5925891   3.2671690  24.7698613  23.4759299
   2.6517534  24.5060655  22.1184842  29.2205095  42.0486689   6.4814281
  29.2974591  42.5356817   5.6609821  30.0699210  42.1621275   6.9078779
  18.9203894  55.1140833  62.0342398  18.2838523  55.1547670  62.7479601
  19.7453654  55.3909111  62.4329996  30.8033562  70.6149006  61.9187737
  30.5622172  69.8252392  61.4345026  31.7229438  70.7606459  61.6966343
  82.8725138  40.4169703  12.7072859  83.6861434  40.8227682  13.0065632
  82.6979875  39.7286010  13.3490944  10.1302719  23.3249187  22.3032188
   9.7195500  23.3508444  23.1674337   9.4278818  23.5603976  21.6970587
  42.8407169  18.5726679  28.6918783  43.5616112  19.2020071  28.6701632
  43.0456353  17.9991282  29.4303226  84.5006470  59.3311357  42.5678778
  84.7129096  60.2548456  42.4339533  84.5597916  59.2066860  43.5151100
  76.6808486  54.5712900  43.5974121  77.2757816  55.3131533  43.7066317
  76.5495300  54.2369413  44.4846535  82.9834154  54.5932055  18.8097310
  83.3165830  55.3862095  18.3897591  82.1436485  54.4295883  18.3804846
  45.5963898  50.6585121  16.9631636  45.9300280  51.5175152  16.7042720
  44.8082399  50.8508396  17.4711573  37.6966953  62.3035860  21.2232018
  38.2978535  62.4414539  21.9552064  37.3679256  61.4132786  21.3476896
  81.1803317  24.1308403  42.1899271  80.7654726  23.6707568  42.9196167
  81.6128331  24.8823190  42.5954533   5.7587886  62.1447229  48.3514166
   5.0097960  62.7138329  48.1743431   6.5223020  62.7094841  48.2317305
  77.5454306  77.3677826  22.5607014  76.7588877  77.6992798  22.9939318
  78.1660735  77.2170305  23.2736564  10.5659783  35.8849502  28.5540700
  11.2872577  36.2245226  29.0838599  10.2952492  35.0841761  29.0031743
  20.2531815  82.0066166  17.7411389  20.8854961  81.8485546  18.4421563
  20.0582361  81.1362648  17.3936951  80.5603176  54.4025278  17.0218813
  80.0469636  53.6477613  16.7337406  80.7670015  54.8738194  16.2147892
  42.9898882  15.3114522   1.0045565  43.8032627  15.2582288   0.5027378
  43.2564020  15.1531982   1.9101819  13.0166423  65.8730507  14.3828046
  12.6349068  65.0985909  14.7959876  12.9071367  65.7221556  13.4439373
   1.0831518  49.5415163  34.8815060   1.6339485  49.8298836  35.6093097
   1.6550376  49.5878935  34.1153288  31.3775802  75.9460402  28.1558752
  30.8024049  76.2293386  27.4451375  32.1360826  76.5268469  28.0961180
  39.3463802  51.1921120  22.2219586  40.0414705  50.6632042  21.8303752
  38.5664535  50.6397057  22.1691275  52.3707486  77.1204642  14.4099935
  52.0052600  76.7713145  15.2228578  53.2987428  77.2543267  14.6027120
  85.3108348  40.9197235   6.6241080  85.2466274  40.2251339   5.9686309
  85.3210224  41.7298603   6.1143923  84.4717948  66.0902309  46.5615654
  84.9778202  66.2326288  45.7616329  85.1290562  65.8923721  47.2287178
  74.9753344  31.8972898  42.5333738  74.4744563  31.3283205  43.1178617
  75.2294409  32.6396799  43.0815697  48.2345498   7.1149958  44.5768023
  48.7245608   6.6303195  45.2410364  48.9079357   7.5033129  44.0182352
   6.0350966  52.4833202  63.7039137   5.2195072  52.4978018  64.2047501
   6.4673471  51.6729403  63.9734936  22.3713613  37.1232271  11.4547491
  22.6792336  36.4535761  12.0655000  22.2656274  37.9077554  11.9928598
  28.8092828  29.1436219  24.9633813  28.9335632  29.6247649  24.1452837
  29.1589189  28.2709146  24.7834706  10.7391357  70.2790260  16.7275012
  10.1221585  70.9142160  17.0909572  10.2391624  69.4647264  16.6710997
  66.2948012  38.8206100  32.6005387  65.4520273  38.9319158  33.0405116
  66.0665226  38.5631418  31.7073250  41.5460205  31.1402202  22.2829676
  41.0849380  31.1129785  23.1213546  41.3372517  32.0021152  21.9227052
  24.7642446  53.5968113  64.6661663  24.2193866  54.1279936  64.0854692
  24.1464663  53.2093859  65.2862310   0.1155679  23.7981963  19.8061490
   0.4888134  23.2725477  19.0986109   0.4514926  23.3952165  20.6067705
  70.9304654  28.7554097  34.5077872  70.1537144  28.6589479  35.0587749
  70.5905175  29.0565109  33.6651707  16.5580273  54.8374462  35.7375145
  15.9680378  55.3230476  35.1610303  15.9807646  54.4322777  36.3846946
  13.1976748  21.1296558  25.1006627  12.8327441  20.8735156  24.2536378
  13.5981703  20.3295398  25.4407358  82.7660226  71.6282034  33.5531688
  82.5026723  71.6984320  32.6355934  83.3911448  72.3422098  33.6782598
  13.4824169   3.8647258  39.3551326  12.9174602   3.1794953  39.7122240
  12.9278600   4.3302503  38.7290454  34.9091482  34.2977309  32.8425956
  35.5982399  33.6442065  32.7230453  34.6375728  34.5248675  31.9532776
  13.4856319  46.1765337  58.6173630  12.8551888  46.5187263  57.9835844
  13.0330443  45.4426432  59.0330601  58.2526796  10.1755254   0.8234437
  58.4483724  11.0090511   1.2514289  59.0534238   9.6608226   0.9240468
  79.2827814  59.7531891  56.8168926  79.3815058  59.7464514  55.8648252
  80.0333809  59.2541504  57.1390629   3.7540820  48.1617975  41.9464684
   4.1486743  47.5563812  42.5741577   3.4512281  47.6019192  41.2315941
  11.0926580  58.2531118  22.4931788  10.6208599  57.4390030  22.3174906
  12.0000076  58.0597591  22.2574663  22.0790863  42.5909281  32.5116110
  21.5000248  43.2146358  32.9496861  22.4453163  42.0643330  33.2221055
  25.3217673  45.8304453  12.9940808  26.1277556  45.6335688  12.5167382
  24.6260357  45.7165241  12.3466158  17.0167589  34.3547726   8.3370274
  16.7340076  34.6393967   7.4679631  16.8752074  35.1181507   8.8968939
  10.1518524  22.6927948  41.3716125   9.8710626  22.2364712  42.1648073
  10.5893409  23.4818339  41.6913795  37.5539351  65.2471638  23.8999391
  38.3597350  64.7305489  23.8945460  37.7982569  66.0763216  23.4887934
  27.6168633  67.1919250  43.9992666  27.7132535  68.0845165  44.3312597
  26.9726133  67.2664928  43.2952690  22.7941346  66.6058779  42.2417021
  22.9366732  66.9725513  43.1143236  21.8986487  66.2686872  42.2669363
  67.9026436  76.3999088  63.1572591  67.0756887  76.1467202  62.7470456
  68.0101227  75.7823379  63.8806443  33.5001397  48.9868927  37.4754810
  34.3358469  49.2734385  37.1070838  33.5580754  48.0315065  37.4861073
  85.2145341  45.1460552  27.9624772  84.4922339  44.6418571  28.3370471
  85.8954010  45.1249409  28.6349416  28.5808039  65.3177166  24.9534988
  29.1151667  66.1118507  24.9601722  28.1490326  65.3123808  25.8077693
  42.5092793  38.9930058  26.6162086  42.1966553  38.1465435  26.2968349
  41.7528439  39.3754244  27.0609474  21.9878387  48.2409954  16.2541234
  22.1630764  47.8121233  17.0917356  22.8550434  48.4327984  15.8971953
  43.7216163  72.6367740   5.3869803  43.3115411  72.2616414   4.6076568
  43.9534319  71.8790249   5.9239276  37.6309133  67.3581553  60.6963110
  37.0339417  66.8245792  61.2208605  37.2952080  67.2851086  59.8028898
  24.7871208  49.1186905  28.0452609  24.5353198  49.7351408  28.7328792
  25.2926517  49.6445894  27.4255013   7.0323956  73.4524727   6.7624336
   7.3160028  74.1576004   6.1805487   6.8767560  72.7091408   6.1797976
   4.8743793  20.9837341  24.6049666   3.9630410  21.1201191  24.8639894
   4.9328157  20.0466132  24.4188952  16.8034542  49.4926929  44.4799137
  17.1691549  50.3507233  44.2647886  16.1861289  49.3109512  43.7713146
  28.0893326  56.3658333  30.7075381  28.5953903  56.9397402  31.2826633
  27.7791858  56.9408751  30.0079894  18.9988923  57.6186132  44.8800278
  19.5100462  57.6079226  44.0708065  18.0968010  57.7576208  44.5916843
   9.8258370   1.9289206  23.8190269  10.2953565   2.0467855  22.9932594
  10.5074561   1.7031193  24.4519901  33.5060954  64.5791340  16.4807129
  33.8576698  65.4650164  16.5692604  33.5265374  64.4063091  15.5394661
  18.5842693  43.6073589  26.4990163  18.0151665  43.5059643  25.7360792
  19.1261637  42.8183222  26.5001607   0.0788736  12.1723338  67.7823545
  -0.4190231  11.7267009  67.0969762   0.3705001  12.9878446  67.3747627
  53.7959123   0.3828562  24.5236325  53.9300895   1.2335051  24.9415183
  53.9529968  -0.2539217  25.2208138  30.4839134  62.3583174  35.0756693
  31.1788487  62.1848392  34.4406867  29.6727777  62.2371960  34.5820880
  42.3290157  55.7368279  37.9677820  42.4736214  54.7908688  37.9896450
  42.1021318  55.9234476  37.0567775  24.0328240  36.1544991  42.2859240
  24.5419431  35.9647560  43.0739737  24.3823600  36.9876337  41.9697857
  45.9652603   4.8631419  65.9879398  45.9748233   3.9430369  65.7242155
  46.6374350   4.9247683  66.6666269  61.5450864  22.9825326  52.5652520
  61.8908974  22.1010228  52.4252943  62.3189693  23.5188218  52.7376704
  23.8349271  44.1004467  44.0403461  24.1436720  45.0059175  44.0082169
  24.6113276  43.5756063  43.8454819  14.1228640  27.2761965  30.7314539
  13.4605587  27.0521975  31.3852167  14.8008895  27.7370381  31.2255573
  34.3300152  43.6365652  14.2223620  34.2458773  42.7104998  14.4494247
  33.5660458  43.8194323  13.6754215  36.3233781  52.5212526  13.9833891
  35.4078531  52.7630806  13.8435161  36.7014360  52.4960709  13.1043732
  49.6748781  64.8063660  30.7322288  49.6170378  63.8850784  30.4790020
  50.5722475  65.0586605  30.5147266  25.2964354  45.6671858   4.3544513
  24.9117947  45.8649015   3.5005251  24.9003077  46.3043356   4.9488863
  65.4483199  62.8501892  45.0082588  65.9947681  62.8203392  44.2229319
  65.3011465  61.9313860  45.2327061  62.9096859  11.2685748  69.8561293
  63.3475488  10.6050893  70.3893182  62.7942138  10.8517142  69.0022419
  37.8741621  12.9133054  62.4464945  38.4441339  12.7227994  61.7014627
  38.3429801  12.5609227  63.2029788  60.3410053  81.1775398  53.1846380
  60.5836844  80.2517891  53.2023954  61.1294531  81.6260052  52.8789330
  56.5268087  12.1242297  18.1183434  57.0710229  12.9051733  18.2192922
  56.5040445  11.9685745  17.1741593   5.9953922  51.1524725  21.1807704
   6.8865854  51.3224745  20.8756375   6.0744196  50.3706503  21.7273474
   5.8060634  22.6765990  56.2159157   6.2034816  22.6305580  57.0854998
   6.5231520  22.9383159  55.6384039   0.7672409  45.8321047  20.7693219
   1.0087484  46.7293930  20.5395913  -0.1679748  45.7779694  20.5726695
  49.7298389  17.1871015  61.4526574  49.9116170  16.5155765  60.7952039
  50.5626535  17.3071786  61.9089834  13.8318932   8.7848270  33.9183235
  13.4371889   8.8341111  33.0476856  14.6405959   8.2898641  33.7870049
  38.8889694  48.4367657   0.2826952  38.7277102  49.3719006   0.1571753
  38.8255358  48.3076859   1.2290286  18.0235720  49.4432783  35.2675986
  17.7898490  50.3389311  35.5113482  18.9807200  49.4354200  35.2736807
   9.9000508  32.4812555  63.2255602   9.5755398  31.9070315  62.5318766
  10.0974643  31.8907118  63.9525509  64.3562483  66.6922569  43.3138990
  64.9274110  66.1186647  43.8247776  63.8158273  66.0941124  42.7977610
  21.1078143  49.9931097  47.7275467  20.2561808  50.2995253  47.4159956
  21.0475731  49.0385723  47.6892805  36.1095595  38.9878297  26.6371918
  36.0944295  39.7227597  26.0241008  35.4746532  39.2262959  27.3126626
  36.6726947  22.2209287  31.6962481  35.9384871  22.5806594  32.1940041
  37.1036196  21.6208982  32.3049331  14.5661354  37.0878649  38.4379840
  14.8406768  37.7866173  37.8441811  13.6279202  36.9901967  38.2753634
  20.5547500  51.2635660  11.0688603  20.5186605  50.7210827  11.8566692
  19.8621202  51.9124842  11.1929619   1.2822675  19.9918243  59.4055716
   1.7091536  20.7374879  59.8274509   0.9166836  20.3510400  58.5971515
  24.3439651  41.2677050  28.1121612  23.8598633  42.0676136  27.9071593
  24.2376781  41.1589718  29.0572071  78.1041944  66.8305302  23.8701916
  79.0288162  66.6303253  23.7245059  78.0886834  67.2951460  24.7069263
  41.8498087  57.4435377  28.2749081  42.1292973  58.1604719  28.8442278
  41.5538073  57.8754568  27.4736214  63.9132940  20.6156560  70.3930875
  63.8161140  21.0130616  69.5277221  63.0811708  20.1679202  70.5458487
  67.6172685  25.4493308  12.7298975  66.9141817  26.0484767  12.4790502
  68.4145844  25.9749103  12.6644325  39.2783141  64.7099829  19.7842598
  38.4236431  64.8654556  19.3822658  39.0960002  64.6592617  20.7225680
  23.3739018  73.2012033  22.1096516  22.5248766  73.6360645  22.1889210
  23.3640766  72.5303745  22.7923822   7.7866518  45.7129908  55.1289701
   7.2250289  45.4562521  55.8603334   7.2475249  45.5695581  54.3511486
  15.3359997  40.2854681   8.5638541  14.8739326  40.8841276   7.9770541
  15.4311538  39.4791007   8.0569571   4.5896801  60.7441902  15.5592585
   4.9683994  60.2083826  14.8623276   4.2814910  60.1109838  16.2075615
  29.5738697  45.5671167  33.4185529  29.7623825  46.3063097  32.8403783
  28.9900231  45.0063467  32.9077744  29.6954012  50.6280327  10.7547402
  28.7959528  50.8696651  10.5337441  29.9151659  51.1822033  11.5036261
  -0.0055968  47.3687077  41.4515018   0.7198974  47.5091553  42.0599079
   0.3885575  46.9074392  40.7111597  55.5340242  55.3680182  36.5920806
  55.2164841  54.5109606  36.3077331  56.3242626  55.5151558  36.0723662
  24.5558405  70.5445242  50.2598429  24.1217709  70.0224113  50.9345388
  25.4620552  70.6172800  50.5593634  15.9595108  16.7473622  69.9696406
  16.2212896  17.4953624  69.4327995  16.3388347  16.9257232  70.8301817
   8.6875784  35.7228923  42.8127670   8.3809793  36.1036658  43.6357117
   8.5147864  36.3985848  42.1571636  60.8665014   5.8811204  11.3056119
  60.7791189   4.9307458  11.2322362  61.7855180   6.0201948  11.5343030
  21.7259002  59.3113327  19.6615016  21.4925432  58.3979702  19.4955134
  21.7355371  59.3864679  20.6156993  68.6072398  16.9043673  32.2067404
  68.9869166  17.5993193  31.6690397  68.4619499  16.1815394  31.5963006
  22.0333791  65.2539778  60.2174377  22.6926279  65.9063625  60.4541206
  22.0217657  65.2615261  59.2603397  43.9018548  28.4178771  28.8186955
  44.2561889  28.4600581  29.7068954  43.7893033  27.4824275  28.6499047
  73.2966614  18.2398165  23.3671212  73.4377194  18.9952601  22.7964711
  74.0200758  17.6471365  23.1630921  51.1003971  73.2782698   9.6055317
  50.4411983  73.0801439   8.9403695  51.1077023  72.5071812  10.1726341
  44.9762392  56.9533110  24.2550635  45.2496004  56.1941910  23.7400484
  45.0893402  56.6786957  25.1650238  33.4422922  54.6947193  28.8683128
  33.9183712  54.1311455  28.2584214  33.8654685  54.5442390  29.7135997
  50.4648113  55.8206892  22.4222088  51.2915039  55.3834486  22.2181726
  49.8926306  55.1186419  22.7320075  84.2843854  73.7821531  33.3712292
  83.9396458  74.6493912  33.5840297  84.9672547  73.9486837  32.7214694
  47.6728821  75.5857229  21.7274165  48.0195713  75.8603334  20.8785200
  48.4113359  75.1575994  22.1605754   5.9728265  67.2001219  19.3701589
   6.4079428  67.7123356  18.6885846   5.5013394  67.8486824  19.8929369
  60.8328510  -0.0839483  13.9420903  61.2959433   0.3787650  13.2437575
  61.5130043  -0.2946912  14.5817852  33.3765531  76.3707924  32.9821348
  33.5736632  76.6743946  32.0960188  33.3505750  75.4168034  32.9082227
  81.2018781  58.3727074  46.3146400  81.5968179  58.7435055  45.5254841
  80.7624763  59.1130114  46.7330980  49.6160364  50.0192261   0.3724624
  48.7594986  50.4239941   0.5093549  50.0062275  49.9831629   1.2457786
   2.4518253  45.9168816  36.6220331   2.3416066  46.1890936  37.5330687
   3.2486627  46.3620615  36.3337708  20.1453257  63.7171316  35.4248357
  20.4970336  63.6010981  34.5421863  19.5147300  63.0042934  35.5270147
   8.1109792  74.0761709  10.7761514   8.4606963  74.7577810  10.2022743
   7.2594124  73.8578844  10.3974450  22.7048421  36.7354774  26.8891096
  23.6424994  36.7093849  26.6984510  22.3102522  37.1070457  26.1001444
  48.0242288   5.9548129  22.2861814  48.0933941   5.9123362  23.2399344
  48.4597373   6.7740286  22.0507073  54.5911264  51.5004873   6.1399245
  53.9179468  51.1160278   5.5784464  54.6462440  50.9067488   6.8887025
  60.9869432  77.3660755  59.4556284  61.7738867  77.3003054  58.9146757
  60.3785038  77.8865051  58.9310455  30.5931354  37.8709078  32.4526191
  29.6569657  37.6718163  32.4660778  30.7699442  38.1299138  31.5482473
  14.1230822  44.5403385  28.2650995  14.1324258  43.6471796  27.9209828
  13.5010207  44.5104551  28.9919949  86.8044271  74.6923161  21.7823219
  86.3161138  74.8601151  22.5883150  86.5038121  75.3683567  21.1750054
  39.5886922   9.8819483  20.4512620  38.7285078  10.0350989  20.0602889
  40.0747335  10.6895579  20.2846503  79.5784020  21.5649482  51.7952625
  78.8774799  20.9755679  52.0737771  79.1509365  22.4157020  51.6966645
  11.8315971  76.7705441  36.3978887  11.4948916  76.9968796  35.5309200
  12.6138210  77.3126841  36.5000677  18.3685137  45.1788108   1.6759856
  19.1750885  44.7474639   1.3938411  18.1866385  44.8059718   2.5386222
  45.9902954  76.7377996  23.6004257  45.9584713  77.3497295  22.8650641
  46.1944532  75.8926582  23.2000709   3.5462528  57.4035597  70.4957771
   2.6291028  57.5034046  70.2406359   3.6251834  57.9054689  71.3070059
  78.2800984  78.8863861  27.2404051  77.6522576  79.2943557  27.8367329
  78.7363838  79.6224933  26.8327498  21.3369012  64.2842960  27.5703812
  21.6039419  64.0809822  26.6739511  20.3813791  64.3260002  27.5320244
   3.3204272  52.5254726  11.6622686   2.6473939  53.2042217  11.7128408
   3.8195315  52.7412987  10.8745217  79.7594739  30.2320783   0.5467113
  79.7049881  30.7577722  -0.2513568  80.6620742  30.3430192   0.8454354
  22.4958205  51.0565042  26.8390703  21.8098283  50.4337072  26.5987086
  22.8200889  51.3902712  26.0026026  50.2581287   7.1032084  34.3293643
  50.6450630   6.2550391  34.1122961  49.6323848   6.9094218  35.0273085
  38.8505077  47.5721455  34.2249084  38.8476110  47.0541334  33.4199953
  38.7906933  46.9242144  34.9269366  40.3119517  15.7111300  25.5025482
  40.9190321  16.3837088  25.8112907  39.5719362  16.2021388  25.1454473
  27.9499769  62.2041941  61.0434628  27.1089387  62.5633430  60.7608032
  28.5088515  62.2648668  60.2687311  55.8715964   9.9711169  11.6384375
  56.6185141  10.3829134  12.0729077  56.1539364   9.0705050  11.4789987
  48.5759878  48.9954138  14.8878086  47.7501678  48.5178757  14.9665952
  48.9412022  48.7059879  14.0516984  33.9281303   9.4188441  32.3723650
  34.1313088   9.0843142  33.2458878  33.9436090  10.3708304  32.4708867
  15.6790638   0.4816065  65.2018974  15.6122708   1.3750181  65.5389158
  16.3321626   0.5369672  64.5043103  17.6037872  51.5785837  32.7103567
  17.0656693  50.8291960  32.4552560  17.6010573  51.5606928  33.6673856
  24.1914034  76.4215469  32.3175812  24.9190831  77.0430660  32.2969913
  24.4593692  75.7193041  31.7248917  42.1042824  61.9184923  25.6609511
  42.6023149  61.3317585  26.2301016  41.5345049  61.3371134  25.1573753
  77.6137448   8.0762518  47.0454073  78.3541251   8.2027758  46.4520550
  78.0072308   8.0522097  47.9176569  31.9308782  50.7734966  40.9620523
  32.4095988  50.0188065  41.3048363  31.3371253  51.0223770  41.6703939
  76.6245985  14.6529234  50.9211636  75.6820250  14.8195780  50.9170771
  76.7871380  14.1765917  50.1069641  28.7630558  31.2319374  12.9439378
  29.6197033  30.8162975  12.8458190  28.1352520  30.5312657  12.7674270
  24.1625404  79.8644400   4.9814537  24.5732832  80.0114346   5.8334601
  24.4510865  78.9887285   4.7243515  50.9299660  66.4911747  21.1836338
  50.7538366  67.3997641  21.4279103  50.4940033  66.3815355  20.3385615
  70.8953285  69.3309784  15.3775823  71.8234491  69.5126677  15.5252731
  70.6411171  69.9349165  14.6798277  37.6931882  76.8476820  22.6619005
  36.9884706  76.2290764  22.8540683  37.3912597  77.3215103  21.8869448
  21.4583921  37.3689246  34.2040777  21.9879317  37.5376821  34.9833989
  22.0513368  36.9149065  33.6053157  16.1131167  72.2065592  38.9450502
  16.8378937  71.6253757  38.7144923  15.8999979  72.6590252  38.1289053
  11.9656420  64.2840052  41.1767578  12.8641379  64.4626713  40.8992434
  11.8929017  63.3298683  41.1530924  51.6749883   9.5364512  25.7853889
  50.8821082   9.2189539  26.2175584  52.3916889   9.1183604  26.2626410
  47.4480009  56.6868925  11.6233599  48.2848310  56.9572973  12.0012879
  46.8383455  56.6944551  12.3612595  82.5530213   5.9202802  30.2442527
  81.6041022   6.0274535  30.1786900  82.7216771   5.8491588  31.1837888
   7.5389504  70.4936647  58.1176090   8.0631959  70.4229593  58.9153576
   6.6324008  70.4738474  58.4242153  75.7202530  10.8907736  29.0615082
  75.7560778  10.0453413  28.6140871  75.7696200  11.5368784  28.3569956
  10.7493722  81.0759830  14.4323540  10.2832484  80.4878044  15.0264931
  10.0576770  81.5747643  13.9976060  27.8733277  65.2303219  16.8264449
  27.9032707  64.2875767  16.9894457  26.9494486  65.4149199  16.6573131
  58.2417059   0.6496943  54.5285416  58.8360072   0.6039370  53.7795830
  57.9155994   1.5495909  54.5209122  71.3003159  20.1472128   4.5351043
  70.6113863  19.4827021   4.5299038  70.9587479  20.8506526   3.9830786
  55.3089023   2.2408045  49.3486547  54.3976117   2.5131167  49.4564819
  55.5089617   2.4313010  48.4321833  17.8938198  68.8240147  56.4265347
  18.0748475  68.8535309  57.3659992  18.7265623  69.0547419  56.0147905
   2.3455943  62.3913908  41.8341351   2.8800687  62.5481510  41.0556793
   2.3815487  61.4435148  41.9624519  32.3277855  45.6728649   8.8098377
  32.9600072  45.9732914   8.1569409  32.1101475  44.7807312   8.5397261
  42.0586348  50.0772047  21.8387008  42.0815372  50.9901333  21.5518880
  42.2730541  50.1135540  22.7708673  40.4951786  29.1702911  70.3862836
  41.2950074  29.6957608  70.4059350  40.7037627  28.4382077  69.8059571
  37.7900076  72.6465416  26.3357210  37.9000759  72.7431536  27.2816515
  37.1227264  71.9669199  26.2404132  85.2357628  39.5637774  44.4704056
  85.3905469  38.6454606  44.6916962  84.2849960  39.6643662  44.5168400
  51.2309885  51.1131334  26.6503572  50.3749228  51.5136433  26.8019438
  51.4573431  50.7077217  27.4873996  24.9638605  64.5570946  49.2781115
  24.6421051  65.4439783  49.4397974  24.6010113  64.3226814  48.4239292
  81.0655140  76.8650611  48.5023419  80.9092592  75.9294899  48.6308734
  81.4778494  76.9228347  47.6404421  48.3699083  76.0305309  19.0137231
  48.5611773  75.1527786  18.6832726  49.0734434  76.5769196  18.6633933
  83.6545611  35.6927507   0.2940543  83.9161301  35.8655994   1.1984523
  82.7551652  36.0156791   0.2389653   7.8807664  37.0402690  45.0355999
   7.5754451  36.2747689  45.5224506   7.4940061  37.7859231  45.4945700
  20.7007146  55.0076389  52.2773218  21.6367769  54.8584223  52.4105597
  20.5364776  54.7137022  51.3812971  80.9862405  60.6301212  44.1775227
  81.8306100  61.0572577  44.3218327  80.3405457  61.2649632  44.4878149
  45.5778742  13.7863005  43.7877703  45.0998283  13.0055369  43.5082960
  44.9110127  14.3456782  44.1860485  18.6371958  76.4092064  36.8638253
  18.4268892  76.6440439  37.7676249  18.5246968  75.4592133  36.8308210
  22.5648952  74.8940849  27.4415302  22.0410967  75.5250549  26.9478273
  23.4164429  74.8956013  27.0043826  58.4577155  27.3290766  56.0794640
  58.9607001  26.5303458  56.2384224  58.4499884  27.7793444  56.9241095
  14.6232498  70.9449768  49.2404127  15.1562011  70.5471516  49.9288368
  14.3320739  70.2062321  48.7058973  11.5853393  52.7467346  41.6629219
  11.0171306  51.9816923  41.5730333  11.4672768  53.0274677  42.5703812
  13.2846248  54.6065044  33.5035276  12.9189813  54.6909380  34.3841004
  13.5208070  53.6818266  33.4299088  30.7616973  48.8731670  29.4552445
  29.8754764  49.0648317  29.1484690  31.1044049  49.7198200  29.7415209
  84.6451664  76.2991714  34.6493053  85.5866241  76.3968706  34.7919226
  84.3395996  77.1846533  34.4523740  76.5395247  50.9919214  27.1738219
  76.9463551  51.8003750  27.4854708  76.8359798  50.9085321  26.2675142
  66.7978144  34.3506336   1.2332470  66.8471670  34.8799038   0.4372133
  67.6004457  33.8291597   1.2242948  32.9906511  73.9346027  24.3922043
  32.3477960  73.8343382  25.0942850  33.7268019  74.3868160  24.8042917
  70.1639653   1.4240138   7.6143201  70.4863144   1.8015544   8.4327252
  69.6624912   0.6553857   7.8862889  38.3560491  73.6733246   4.4632405
  38.2101369  72.8392124   4.9095529  38.1681252  74.3364573   5.1274502
  48.5061598  81.4039135  48.2226229  48.1521654  81.3967800  49.1119289
  48.2443237  80.5603027  47.8538370  85.4188384  74.7071028  24.3026137
  84.5358076  75.0746059  24.3404269  85.9752310  75.3797579  24.6952891
  26.2235141  65.9879637  39.3426800  25.6167245  66.7135334  39.1957593
  25.7348132  65.3743696  39.8912311   3.2374054  80.8642483  53.0198002
   3.7738520  80.8723736  52.2270918   2.3998258  80.4961205  52.7384281
   8.3331448  51.6495848  54.0794182   7.8776467  51.1529922  54.7592402
   7.7315575  51.6438484  53.3349133  76.6314316   1.8596877  43.7939215
  77.4281645   1.3829173  43.5612297  76.5340853   1.7182768  44.7355986
  76.8298446  53.0168029  53.3934538  76.9625353  53.7198230  54.0293757
  77.0960449  52.2221347  53.8559048  33.3689306   1.8102301  66.9263172
  33.5726145   1.9027461  67.8570080  33.4595815   2.6948966  66.5722036
  45.6989527  79.6767855  42.0016098  45.1898861  79.9847412  42.7514410
  45.9575748  80.4762363  41.5431023   9.3341351  72.0379734   7.2374880
   8.8296008  71.4325666   7.7807701   8.7345302  72.2843552   6.5332139
  58.6963845   2.7325095  45.3840733  58.3366990   3.6167372  45.3134537
  59.1277671   2.7169455  46.2384129  36.1952209  77.6530647  26.3312483
  36.3040829  78.3488846  25.6830072  36.9678092  77.0990276  26.2199616
  32.1821499  69.3522882  58.5834360  31.6522765  70.1371288  58.7230635
  31.5614295  68.6982536  58.2622290  13.5911108  11.3887251  13.2704926
  13.9802147  11.0858572  12.4500668  12.8771425  11.9653357  12.9984558
   7.2532344  60.8442688  29.5062661   6.9236141  61.7427969  29.5215487
   8.0121154  60.8774137  28.9238286  39.9171710  59.9257088  23.9974213
  39.9163151  59.3886614  23.2050776  39.3890047  60.6905937  23.7689018
  17.8671098  64.0914774  41.4312410  18.6175799  63.5017204  41.5034437
  17.1756816  63.6620378  41.9349670  10.2987945  66.0450602   1.1665354
  10.5754912  66.1581707   2.0758635  10.7978237  65.2893353   0.8565675
  20.4223180  72.8698349  27.2760797  20.0101113  72.7765131  28.1349206
  21.1147571  73.5166359  27.4117613  35.4431963  36.0845184  28.4661937
  36.1073875  36.5802169  28.9451122  34.9359369  35.6433678  29.1475940
  68.4738756  23.1147898  30.7017255  67.8182125  22.5533999  31.1154628
  69.2917157  22.8978289  31.1492705  -0.0590959  39.7196746  40.7092619
   0.8246472  39.5464206  41.0336256  -0.5788134  38.9796972  41.0232019
  42.3929119  74.0037060  19.1270828  43.1006098  73.3630466  19.0567291
  42.3948669  74.2625189  20.0486279  60.6677771  47.9457808  21.3017178
  60.5748081  47.0588350  20.9539866  61.5169668  47.9420853  21.7434096
  43.3638716  15.0373019  10.5387843  42.6860595  14.7097624  11.1299872
  44.1508472  15.0879324  11.0813129  65.5149651  73.7340498  34.3905449
  66.4160585  73.4666967  34.5716047  65.5725050  74.2341423  33.5764003
  68.7929011   0.3749217  47.3071671  69.5982457  -0.0692712  47.5723791
  69.0917158   1.1772955  46.8792105  16.0985649  67.7439833  54.5340729
  16.7999911  68.1265974  55.0611782  15.7689929  67.0184374  55.0643539
  29.4437947  64.5338253   9.3400224  30.1873519  64.5679311   9.9418481
  29.4956249  65.3536037   8.8485845  42.1986532  50.6845808  27.2770405
  42.1318150  49.7827244  26.9633293  41.7745924  51.2070274  26.5962648
  55.5729628   6.2019957  37.7899647  55.7478810   6.7996920  38.5168791
  55.7972408   5.3366412  38.1321311  32.5428104  67.3817587   8.5361958
  33.3590961  67.0751905   8.1413227  32.6284385  68.3349609   8.5537571
  79.2919206  71.2031507  49.3295670  80.1897394  71.3569880  49.6236563
  79.1598737  71.8348980  48.6226749  12.2478092  55.1811743  36.0171032
  12.7266967  55.9925079  36.1863208  12.2210348  54.7375822  36.8648887
   6.3065290  59.2362881  40.7799816   5.5442584  59.0092373  40.2474213
   6.2856823  60.1917934  40.8329391  15.8655322  55.1642942  17.5430846
  15.0779676  55.2210236  17.0020163  15.5482316  55.2709723  18.4398413
  56.9070721  22.6406765   1.8817933  57.5375509  23.1851697   2.3532349
  57.0239067  22.8803205   0.9624716  22.8298664  52.3961687  29.2391706
  23.4593654  53.0959606  29.0652251  22.8979301  51.8183947  28.4790587
   5.3856647  66.6879463  61.1417103   4.9216470  67.5241947  61.1015463
   6.2555319  66.9123411  61.4721823  10.3715062  35.7472110  23.9965749
  11.1951852  35.5429983  23.5537648   9.6932995  35.4578924  23.3861947
  44.7676182  56.8089581  40.3357410  44.5466757  55.8946180  40.1585484
  43.9932394  57.1619034  40.7739210  76.3474894  44.9149359  38.5147977
  76.3371659  44.7940482  37.5653172  77.1441269  44.4701518  38.8042235
   1.7019714  71.1331654  21.2665510   2.1417865  71.8327856  20.7835102
   0.9862445  70.8593845  20.6929564  77.2030472  62.6364776  70.0904948
  78.0774211  62.9693385  69.8882434  76.6099869  63.2124492  69.6080340
  61.5210056  59.2850256  39.4709992  61.9923115  59.3319654  38.6391950
  60.7379675  58.7709761  39.2739344  40.5833530  71.8596125  18.0140793
  40.7865000  72.5182390  18.6782920  40.5043745  72.3568726  17.1999979
  13.3995057  22.7946700  35.4087758  13.2309747  22.5042952  34.5123839
  13.6434234  21.9963873  35.8772635  33.4174728  41.3901424  22.4594831
  32.9280639  41.2733746  23.2737780  32.9942584  40.7972097  21.8385530
  41.0956192  50.9951305  14.0918732  41.9648075  51.0287952  13.6923659
  40.5307579  51.4620638  13.4761322   8.8781548  53.2382154  44.2682028
   8.5731745  53.8845968  43.6314869   8.0993152  53.0204821  44.7802925
   2.2527611  52.7863455  40.9903431   1.6767578  53.1932783  41.6375351
   2.6908404  52.0823812  41.4686298  49.3380761   2.3432673  49.3431187
  49.2198944   1.7421950  50.0786257  49.2528010   1.7907275  48.5661650
  53.8821364  16.5153349  42.5454712  54.1623927  16.7910136  43.4182215
  54.2038536  17.2028388  41.9623137  23.2141471  42.3532009  23.5546136
  23.5565519  41.7290354  22.9147625  22.2631955  42.2903919  23.4653044
  28.3626366  80.6201649  35.8582187  28.9345527  81.3873005  35.8837080
  28.2921124  80.3435326  36.7718577  70.4044485  76.3243961  58.7641954
  71.3518000  76.2700653  58.8898993  70.0359869  76.0901451  59.6160126
  73.8190699   6.1646689  53.5065174  72.8934002   6.1720408  53.2629633
  74.1946316   6.9132746  53.0430841  34.4798470  72.8878307  53.7274361
  35.1771307  73.4916592  53.4716702  34.6175551  72.1163368  53.1778288
  33.4635568  30.2960623  69.4161224  33.5500360  30.7377566  70.2609110
  33.8707853  29.4402922  69.5504856  66.5799713  74.8679161  32.2459459
  67.4098753  75.3219748  32.3919487  66.5655517  74.6918583  31.3051867
  75.2539969   2.6501692  28.3386159  74.9621106   3.4063853  27.8295350
  75.6441355   3.0281485  29.1267490  28.5580516  81.4270782  51.8709183
  28.3722401  80.9736538  51.0486650  29.4861937  81.6543007  51.8147039
  86.3557643  73.5347414  35.3947020  85.6425539  73.4675598  34.7598410
  86.0509406  74.1829157  36.0296750   2.9154945   3.3893431  38.9234877
   2.0883251   3.4966315  38.4539056   2.7284742   3.6951674  39.8110271
  63.5622120  29.5984019  55.6485319  63.7584687  30.3797091  56.1655235
  64.0648175  28.9005888  56.0688543   0.5430437  11.0098017  59.4437647
   0.1471401  11.1435832  58.5826111  -0.1580023  10.6297720  59.9732447
   8.9130467  79.2025423   7.5723320   8.0934250  79.1012669   8.0562693
   9.5556468  79.4473934   8.2381731  62.3039579  80.6521130  48.8038301
  62.0026445  81.5347576  48.5884857  62.8632927  80.4037476  48.0678320
   7.5039732  54.8334599  25.3612137   8.1101018  54.0932941  25.3926969
   6.6609818  54.4430590  25.1305914  58.5481024  16.7768610  58.4972906
  57.7679515  16.5851248  59.0177011  58.8142419  15.9283675  58.1431007
  57.5543404  62.1330929  34.5184684  57.2164774  62.9433250  34.9000454
  58.4043741  62.0061541  34.9398470  39.7261429  77.1491766  43.6580944
  40.1271725  76.4445066  44.1668701  40.4384232  77.4886131  43.1161785
  52.8854919  21.2055529  25.5576468  52.9319978  20.2554263  25.4512095
  53.3811641  21.3815154  26.3573790   1.2468478  52.0810699  26.2340498
   0.3730735  52.3548031  25.9550858   1.1917311  52.0406008  27.1888065
  40.3142846  32.7477396  67.8576279  39.4857431  32.2752226  67.7771473
  40.3697825  32.9776324  68.7851524  52.2388101  25.2103175   2.8759214
  51.4603973  25.6144083   2.4924892  52.3567367  25.6627024   3.7111896
  83.2006121   6.2286986  15.5500019  82.2886515   6.0040415  15.3653765
  83.1857252   6.5770281  16.4414489  47.6992607  67.9429293  43.3693075
  47.9649782  68.2208347  44.2458916  46.7427969  67.9758978  43.3872461
  68.0959440  14.5430697  26.0622358  68.6470032  15.2416934  25.7093859
  67.7945042  14.0630949  25.2908850  70.1462412  28.3224524  70.9964752
  69.7973681  27.6944769  70.3638840  70.4816580  29.0411032  70.4604959
  46.9699621  65.6655836  20.6368399  47.1436214  65.6387424  21.5777731
  46.5244627  66.5015459  20.4992580  18.9660013  78.8723183   1.8314762
  19.3735826  78.5358191   2.6295230  18.8637078  79.8104000   1.9919881
  50.1245880  22.6359118  35.0718856  50.7039118  22.1989287  34.4476557
  49.2418909  22.4210585  34.7703648  69.6216488  77.2328281   7.1759707
  69.7048712  76.7437553   6.3573647  68.7611151  77.6483059   7.1203220
  45.1027704  20.2954901  58.4497309  46.0070384  20.5734004  58.3037853
  44.5768392  20.9184588  57.9481888  73.8385582  78.3158493  25.8863306
  73.0841398  78.6507702  26.3710117  73.5487556  78.2985163  24.9742174
  40.2926159  68.5510921  35.3784585  40.9687138  69.1090727  35.7628870
  40.7530451  68.0419111  34.7113943  85.8154362  73.9577675  28.2745790
  84.9292689  73.6013222  28.2122445  85.7636467  74.8065567  27.8351426
  62.4795080   8.5369814  48.9647675  62.8141594   8.2182635  49.8030090
  62.9726363   8.0458201  48.3076382  24.3026733  51.7656136  36.0322404
  24.2864299  50.8627510  35.7147479  24.3638539  52.2974682  35.2387571
  40.6664420   5.0717581  58.6380482  40.5085945   4.2149390  58.2415915
  39.7922802   5.4363478  58.7764215  42.4552774  68.1239080  52.8838110
  43.0769491  68.1190395  52.1559858  41.6033936  68.2634926  52.4702406
  52.8296042  15.1670016  21.0233307  51.8878413  15.3057612  20.9230280
  53.1250835  15.9052981  21.5560961  59.2286563  17.0327795  22.4862003
  59.2809272  16.2197531  21.9837213  60.0980139  17.1305884  22.8746390
  84.1456228  75.2384996  63.1294203  84.4517161  75.1079226  64.0269089
  83.4378942  75.8781195  63.2084084  24.6945620  71.8957663  19.7663403
  24.0295720  72.0352268  20.4405594  24.2959547  71.2687588  19.1628456
   0.4709840  72.3560524  23.2986283   0.7524515  71.8003988  22.5718141
   0.4179788  73.2344437  22.9219961   7.7180410  20.5548895  27.7180266
   8.0642343  21.4145792  27.4786234   6.8020082  20.5800761  27.4414778
  70.1546860  40.6571425  44.9177313  70.3163863  41.0618247  45.7699728
  70.6783963  41.1728037  44.3044996  64.0576744  78.9515352  35.1754189
  63.8705111  78.2253885  34.5805144  64.1477537  78.5399151  36.0348868
  53.5143328  30.6950415  51.0978317  53.5075736  31.0543574  50.2106571
  54.4413066  30.6555403  51.3331890  30.6523967  73.5518312  35.6378055
  30.8977962  74.3492031  35.1685381  29.8433971  73.7821484  36.0946488
  76.1363411   5.4597128  57.6431131  75.9361649   4.7207583  57.0685530
  76.6606140   5.0797785  58.3481121  23.9912152  79.4252062  65.7736969
  23.0598497  79.3291664  65.5747795  24.2135525  78.6353445  66.2665701
  71.3809252  27.3625697  64.4156313  71.4572573  28.3055438  64.2700100
  70.5378771  27.1278037  64.0278292  15.4888057  59.8061916  66.7209570
  14.5763635  59.6682235  66.9752095  15.5489635  60.7450839  66.5446268
  41.2416840  78.0782175   1.6902912  40.7916164  77.9111385   2.5183961
  40.5366898  78.2310677   1.0611246  28.6541843  31.4791918  16.0746360
  28.6854124  30.6804061  16.6011333  28.6115742  31.1684561  15.1702797
  79.2240834  52.2449684  27.3030806  78.9441281  52.1465445  26.3930416
  78.6127442  52.8811455  27.6742673  66.1060477   3.6709250  39.7882223
  65.6087232   3.5106791  38.9862132  65.7353354   3.0608309  40.4258633
  41.3647855  -0.1213800  21.3920474  41.5884269   0.5534304  20.7510781
  41.1585868   0.3652514  22.1901083  58.7836074  41.6019889  66.0340453
  58.6564636  40.6699725  65.8568124  58.5683632  42.0344707  65.2076910
  40.3980541  53.7264967  29.0239549  39.4696975  53.9584732  29.0000653
  40.6057310  53.6653280  29.9563503  47.3755455  57.4321699  40.8175468
  46.5106535  57.1668291  40.5048275  47.9503012  57.3140669  40.0612783
  62.1861053  15.0569285  26.7800140  62.8575278  15.7296313  26.8935609
  62.6003194  14.3964232  26.2246776  60.7419157  49.6828794  33.1999063
  61.4906216  49.9242878  33.7452459  60.7050180  50.3641796  32.5285673
  52.6454353  60.6800815  64.2148153  53.2000326  60.3723022  63.4979306
  53.2087224  61.2681647  64.7179042  12.0792604  24.5088614  28.2050538
  11.8992973  25.3967226  27.8959489  12.2876335  24.0164698  27.4111009
  31.7729247  33.4538783  31.6859221  31.9013435  33.4730757  32.6342750
  31.3456446  32.6137484  31.5190482  73.3007813   4.9569548  68.6902189
  73.8575316   5.4763831  69.2702579  72.9213238   4.2871130  69.2590380
  50.6867624   3.0413855  35.9579945  50.0836182   3.4821642  36.5564585
  50.1296831   2.4568022  35.4440331  23.8936163   2.0158614   5.3280103
  24.4332147   1.6016615   4.6545881  24.5024896   2.5715388   5.8145487
  43.2419587   5.5468787  64.9413109  43.1158769   6.0792387  65.7267523
  44.1409552   5.2257479  65.0113964   6.7712427  10.0752867  30.4882956
   7.3254324  10.1712359  31.2628245   5.8770967  10.0990237  30.8291316
  55.0230646  70.7308102   4.0091267  54.5506430  70.3184175   4.7323024
  55.7455540  71.1968851   4.4298592  64.4034195  49.7612000  53.6315727
  64.9873781  50.3822136  53.1961775  63.8936663  50.2972651  54.2390442
  33.8301149  19.1419734  18.7238932  33.1401343  19.7236193  19.0430367
  34.5672691  19.2984236  19.3141139  49.3673182  14.4811572  -0.1158941
  49.2088557  13.5384406  -0.0668830  48.7111032  14.8648966   0.4657949
  63.6594248  47.1014404  33.5193276  64.4108629  46.5098572  33.4792948
  62.9270840  46.5413380  33.7766171  23.5229564  61.7716074  67.4991417
  23.8623714  62.1165705  68.3249903  23.3925986  62.5459003  66.9516802
   6.3277365  12.7049006  12.8680658   7.0812870  12.1179045  12.9299200
   6.3161827  12.9841650  11.9525814  70.8406401  15.7142676  33.2457519
  71.4042473  16.1645545  33.8748908  70.1204777  16.3250960  33.0893087
  86.6558552  76.1924124  68.7809086  86.1510277  76.4702892  69.5452166
  86.7664433  75.2487469  68.8970804  26.5371919  18.1939448  38.7657404
  26.3487364  19.1323508  38.7559724  26.3701750  17.9067458  37.8680444
  37.4353027  67.6590824  29.2255163  37.4738646  68.6044407  29.0804386
  36.6159630  67.5230169  29.7013330  16.3635957  75.9605932  35.2763033
  17.1928322  76.3266230  35.5839086  15.8218241  75.9003925  36.0631275
  25.5338407  47.5981331  40.2472544  25.3507042  48.3689260  40.7844400
  25.5590463  46.8722153  40.8706665  45.8862102  18.4722365  26.7072988
  46.2553203  18.8320006  25.9007287  45.5877912  19.2387236  27.1968627
  76.2068605  80.5062389  34.7169447  77.1183491  80.5165291  34.4248605
  75.9783220  79.5775366  34.7559500  64.8673153  22.0194186  13.8112748
  64.1088081  22.1925677  13.2536733  65.0672174  22.8649081  14.2130470
  86.5804863  77.5177908  24.0884829  86.3993645  78.4260225  24.3304467
  85.9918213  77.3436308  23.3540606  46.0707235  80.4500198   3.3977434
  46.9468307  80.8262730   3.4820276  45.5025148  81.2016010   3.2289341
   2.8432966  29.1980303  45.7125950   2.5581528  28.8288439  44.8767567
   3.7131620  28.8248099  45.8549833  21.9481206  62.3222446  30.2761555
  22.8647184  62.5399542  30.1067805  21.4738607  62.6831961  29.5271420
  40.0448871  23.2686938   7.3309994  39.2872703  22.7991427   6.9820440
  40.2709496  23.8999022   6.6478413  79.3644476  77.1156120  62.2807980
  79.3939161  77.6915455  61.5168190  79.6617365  76.2669945  61.9526196
  25.8627535  16.5510787   8.5343921  26.2321401  17.2774352   9.0365851
  25.0410963  16.8953646   8.1842846  38.3400858   3.7517870  54.9763012
  37.7712840   3.1618250  55.4709196  38.3792800   4.5474757  55.5069304
  49.2322016   5.9223593  11.3222182  48.6043644   5.3907813  11.8115866
  49.5943833   6.5243662  11.9723272  17.5042057  35.9319135  57.3254780
  17.8143501  36.8203040  57.5009875  16.5866518  36.0433313  57.0766513
  57.2535324  57.5957203  33.1917453  56.6196585  58.3104134  33.2521462
  58.0315590  57.9976463  32.8052640  15.1205885  69.1442442  35.7945848
  15.1408780  68.5132551  36.5140796  15.6549311  68.7431622  35.1091337
  46.2062454  76.4052010  38.5588098  45.3046942  76.3762760  38.2385039
  46.6826200  76.8963003  37.8893876  73.8941622  15.5200804  26.7692089
  73.8852930  15.0365866  25.9431362  73.4164477  16.3275088  26.5792918
  84.2735386  33.9886416  44.8774576  84.0804959  33.7971056  43.9597034
  83.8138485  33.3061064  45.3664017   2.0754648  13.8104094  23.5042071
   1.6500116  13.7222231  24.3571115   1.5059067  14.4020403  23.0124712
  13.2561100  75.3048611  15.7105458  13.7579131  74.7438145  15.1192307
  12.7024734  74.6990633  16.2032187  40.4751015  67.5444508   2.9337516
  39.8033977  67.7517319   2.2840735  40.5178118  66.5882111   2.9373887
  64.7040725  31.2195338  14.9826777  64.2697406  31.8939818  15.5048966
  64.0231181  30.5666769  14.8204827  60.8724260  62.3117161  59.5845795
  61.2540102  61.4713144  59.3309069  61.5089703  62.6905441  60.1908255
  56.5097094   5.4092444  21.6617560  56.3912821   6.0806979  22.3335838
  55.8881259   5.6466616  20.9736466  77.8564119  74.2703485  31.4009118
  77.9266739  75.1688623  31.7233562  78.6956024  73.8687515  31.6261196
  18.9422190  63.6110783  60.4066658  18.6092126  63.2276773  61.2180471
  19.4139242  64.3949842  60.6881237  42.8470445   9.9075449  38.1315970
  43.2153964   9.0482844  38.3370423  43.3629537  10.5207003  38.6551571
  55.1430583  29.6151579  48.5181141  55.4443980  30.4673518  48.8330746
  54.4151307  29.8203791  47.9313946  21.2224985  11.5504969  32.8126121
  20.7979847  11.1124552  33.5502720  21.4457107  12.4194468  33.1462765
  43.4675503  19.4715155  31.6246057  43.5547495  20.4241599  31.6575670
  44.2454315  19.1760195  31.1515093  18.7397373  59.1828012  37.3286247
  19.4139242  59.5729208  36.7722893  17.9946077  59.0478754  36.7431283
  26.3339354  23.8590209  19.7756036  25.7312895  24.5383756  19.4730695
  25.7944847  23.0707710  19.8379453  38.6583304  65.2748966  27.3080945
  37.9760909  65.9422016  27.2340035  38.1838417  64.4438553  27.2867608
   5.9148408  47.8340309   4.0990527   6.3639809  48.1087367   3.2996543
   6.5858914  47.8834312   4.7798522  21.4562535  59.2663670  51.9850302
  20.5504942  58.9574909  51.9643116  21.4255691  60.0630522  52.5147295
  33.2161069  54.3990803  15.7240808  33.5264683  54.2084026  16.6092634
  32.2801924  54.2000771  15.7503629  68.5183025  18.6604632  35.7739139
  68.1061244  19.5220889  35.7110429  68.9770794  18.5530604  34.9407172
  63.9270544  18.4075011  58.2491827  64.6051622  18.8090933  57.7059221
  63.9535022  17.4790514  58.0178690  65.2525949  72.6453304  10.6756258
  66.0749054  72.2282600  10.9327173  64.7859812  71.9708252  10.1821220
  10.1920795  74.5689869  12.4945354   9.4524783  74.3251848  11.9379520
  10.1188540  73.9934349  13.2558560  23.9051354  18.1020869  68.3167410
  23.4378386  18.6230982  68.9697409  23.2827372  17.4200285  68.0644512
  48.7114632  28.3309020  50.3317881  49.4390488  28.9333666  50.4863453
  49.1180253  27.5617922  49.9325371  14.5866037  18.6825121  39.5415258
  14.4532276  18.3002509  38.6741638  15.4047180  18.2939566  39.8512840
  71.8143034  17.1629370  35.4148746  72.3839999  16.6773165  36.0114074
  71.3926888  17.8203047  35.9683514  30.9127831  76.0089159  34.3522048
  31.5223885  76.3728189  33.7101865  30.5328226  76.7748070  34.7826385
  69.3028151  54.0822669  53.6667208  70.2060186  53.7885066  53.5477213
  68.8514280  53.7966033  52.8724424  59.6071959  75.1839495  37.5148320
  60.2103519  75.3569365  36.7919827  59.9981594  75.6313753  38.2652926
  81.8934059   3.1889475   4.3910345  82.6884747   3.6127127   4.7143257
  82.2052908   2.3973120   3.9525405  86.0666161  76.0459232  19.3139327
  85.9768525  75.5225420  18.5175371  86.2345331  76.9341469  18.9991486
  18.8536096  70.0103998  27.7278638  18.0293477  69.5990276  27.9878569
  18.7521505  70.1789522  26.7910981   8.4994722  24.6729792  20.8399773
   7.6053310  24.8344172  21.1411142   8.5496927  25.1134528  19.9916291
  22.4077892  55.5069351  69.4951963  21.6925979  55.5982304  68.8655949
  22.0488644  55.8442068  70.3159571  83.7359095  17.1616496  28.4903431
  84.4964314  17.3297060  29.0467501  83.8575602  16.2631930  28.1834006
  18.8424027  72.6972008  62.7520704  17.9327393  72.5602531  63.0166245
  18.7849212  73.2563066  61.9772577  24.4138241  72.2787571   7.2741330
  25.2392435  72.0473194   6.8482828  23.7405515  71.8727207   6.7281747
  56.1637378  25.5292166  51.9524956  56.0288144  26.3071955  51.4113951
  56.7848540  25.8097304  52.6246262  30.7591152  69.6936750  52.8836012
  31.6949296  69.6925449  52.6823950  30.3688145  69.1357136  52.2108650
  75.5914736   7.1983183  64.2126703  74.8123169   7.1893824  63.6567307
  75.3968048   7.8487433  64.8874187  19.3188787  73.1740093  50.3216267
  19.6964097  73.4246445  49.4784880  19.5704008  72.2572660  50.4336452
  52.6483345   5.4899825  31.0333204  52.8430009   4.5625723  31.1683822
  51.7350150   5.5038107  30.7471633  73.1749106  21.8002738  40.7157707
  72.8987885  20.9993685  41.1613464  72.3793030  22.1271742  40.2958012
  23.4209776  82.1274376  14.0179670  24.2808890  81.7946911  14.2750013
  22.9553294  81.3586998  13.6886668  77.6935578  25.7888354  28.4857750
  77.6292324  26.0031451  29.4164562  77.2168255  26.4919127  28.0445886
  27.1770787  72.1996927  48.6029196  27.4921083  72.1606016  49.5059490
  26.9122910  71.3019371  48.4025478  59.3442678  75.5774164  25.9441447
  59.6360397  74.7152662  26.2404442  58.3975792  75.5715227  26.0854650
  58.8461948  17.3848093  33.0732393  57.9049707  17.5561274  33.0419254
  59.1992784  18.0864371  33.6203074  66.5146041  20.5346335   4.4227362
  66.4248610  21.4416636   4.7150815  65.7250405  20.0999011   4.7449583
  49.3327236  73.2452059   7.4678439  49.0379333  73.4615278   6.5832341
  48.6522245  72.6668787   7.8123587  47.6090145  69.3334389  25.7998109
  46.9321728  69.8231030  26.2670803  48.1765366  70.0071239  25.4252505
  46.8517590  80.6802273  13.4513831  46.6070890  80.5074501  12.5422513
  47.7227831  80.2939224  13.5425603  47.0993233  68.9650059  40.6001616
  47.8411722  69.1961622  40.0411749  47.4919987  68.5008717  41.3394976
  59.8469758  15.1488913  27.9503298  60.7821560  15.0819434  27.7574849
  59.6520472  14.3661154  28.4656024  10.6103350   5.3599204  33.0702472
  11.4057136   5.6937541  32.6553321  10.7800794   4.4264735  33.1971407
  46.4622593  67.1400499  16.8083549  46.5862989  66.1910295  16.7940116
  45.8508730  67.3125410  16.0923326  32.7275655   0.6744994  25.1518583
  32.0095837   0.0561846  25.0161433  32.3060385   1.4565505  25.5081487
  51.7160297  18.2839240  20.6145668  52.5378347  18.2904089  21.1053061
  51.9189835  17.8001917  19.8139119   2.5160026  20.5388662  47.1400754
   1.5923524  20.2973243  47.2090523   2.8752207  20.3626987  48.0096499
  28.0679941  79.5876122  30.8937502  27.4743032  79.9884367  30.2588463
  27.8546500  80.0142002  31.7236519  46.3347864  63.0164194  63.6341095
  46.4250231  63.0929613  62.6842546  47.1977568  62.7313042  63.9344835
  22.3825264  68.1403303  28.5439777  21.8231797  68.8337469  28.8940239
  22.4647117  68.3460855  27.6127720   3.3717027  81.8598747  62.2150421
   2.9630792  82.1585655  63.0274773   3.5546282  80.9324932  62.3658085
  36.3494110  80.6085873  12.5965905  37.2546887  80.3045654  12.5311959
  35.8232808  79.8511791  12.3401737  45.3159857  57.6061201   7.8048068
  44.9609566  56.7176008   7.8317708  45.2532434  57.9166269   8.7080675
  19.1694927  54.5436954  42.5150061  18.2214427  54.5138168  42.3863983
  19.5081019  54.9362755  41.7103624  37.0505941  16.1588229  30.9870291
  37.3145622  15.3037108  31.3266468  37.7523893  16.4040984  30.3840733
  63.8662839   7.2724093  46.9334030  64.4057870   7.9872740  47.2712517
  64.4110990   6.8562258  46.2654209  30.2414942  69.2158937  17.5194716
  31.1242461  69.5340872  17.7085030  30.3651667  68.5597372  16.8336153
  29.5444322  12.0332659   8.3036816  30.1292158  11.7920531   9.0220636
  29.9369741  11.6297663   7.5295186  11.1356426  21.1723746  50.7107639
  11.8464161  20.6007231  51.0010338  10.4791904  20.5751170  50.3521729
  52.6491499  63.4491730  46.0970354  53.1480074  62.8562021  46.6589642
  51.8714952  62.9482889  45.8508635  44.2213345  80.7720375  20.0611806
  43.6044645  81.4370060  19.7553599  43.7539053  79.9437904  19.9527800
  50.3430510  66.4853525  18.3459067  50.1117325  65.6490374  17.9417992
  49.7454214  67.1176338  17.9467916  50.8470535  51.2746143  38.9895248
  51.0966635  50.7428265  38.2337928  50.3727293  50.6708288  39.5610929
   9.8721004  13.1525839  52.0203304  10.6367327  12.5788439  51.9713545
   9.7317482  13.2850874  52.9578686  65.9744263  75.4722977  29.3540621
  66.2311316  75.0019789  28.5608816  65.2742577  74.9401855  29.7320175
  29.7063565  80.6594181  15.3845894  30.3469634  80.8633995  14.7032356
  29.3364692  81.5082073  15.6274128  40.1691818  54.2084885  33.0220318
  39.4304037  53.7560749  32.6148963  40.9359312  53.8945055  32.5427198
  85.6546570  32.2653167  10.5367215  86.0172964  32.1680801  11.4172109
  85.1063705  31.4899700  10.4165299  39.8467422  66.5729284  23.0491686
  40.5016994  65.8968067  22.8755999  40.0473452  67.2674084  22.4217224
  58.2083059  10.7279337  26.9272399  57.3365260  10.9543932  27.2511983
  58.1630755   9.7873915  26.7553115  54.8869324  79.5979691  44.7048712
  55.3736258  80.1813221  44.1225910  54.7557688  80.1105881  45.5025291
  71.0176706  67.8292894  34.1454768  71.7703915  67.5023031  33.6528015
  70.5323696  67.0419073  34.3919349  12.7683616  12.3154009  41.7356014
  12.4018598  13.1685484  41.5031195  12.6838280  12.2698821  42.6879740
   7.6712585  16.3196791  29.1811490   6.7260481  16.1737193  29.2199087
   7.7977873  17.1782340  29.5850301   0.1526333   9.6091212  65.2783346
   0.1493193   8.7391032  64.8792219   0.9133411  10.0456274  64.8949051
  45.7037497  18.5945166  12.6877189  45.1380170  18.6392916  13.4585452
  46.5509987  18.3080042  13.0287600  55.0685549  58.7252712  47.6264143
  54.6191645  59.5551014  47.4662066  55.9607506  58.8714600  47.3120165
  58.1291557  21.0570372  40.6411743  57.8976369  21.8028391  41.1947250
  57.4982429  21.0875929  39.9219751  16.3947368  11.4005984  42.9923248
  16.2079740  12.1452750  43.5640001  16.6094614  10.6861628  43.5920763
   7.3568607   3.1908644   8.1278801   6.4530683   3.3318079   8.4098870
   7.8742243   3.2804430   8.9282179  47.0132208  68.1384563   7.3208714
  46.5872908  68.2120609   6.4668244  47.9211092  68.3946609   7.1586096
   6.9783330  75.1216745  21.7082167   6.1556173  75.2117348  21.2273312
   7.3658205  75.9966516  21.6858912  74.8789072   6.1340941   0.0467341
  75.6342030   5.6147707   0.3225312  74.1305352   5.5486430   0.1625669
  51.5101242  81.6058445  47.4137974  50.8284044  81.6646576  46.7444420
  51.2171698  80.9022045  47.9928446  75.2209425  57.8705729   2.6102626
  74.7985554  57.5702322   3.4150067  75.0541020  57.1722830   1.9771884
  14.9275661  24.1505850  27.7028084  15.7089592  23.6083830  27.5947642
  14.8068167  24.2105616  28.6504650  55.6969547  62.6025295  21.1336756
  55.5915880  62.5113678  22.0806789  56.0385561  63.4887791  21.0149074
  10.4355265  32.8838671  25.0219107  11.1836363  33.4028281  25.3172851
  10.3464390  33.0989684  24.0934563  64.9151492  19.6567572  17.2595274
  64.3574834  18.9781607  16.8790841  65.4908467  19.9233378  16.5427709
  69.6187783   5.2918852   8.9760196  69.1636134   5.1088370   9.7979397
  70.4558421   4.8350657   9.0589064  68.9061689  82.1630287  27.9387760
  69.1372633  81.5431976  27.2469401  68.6668491  81.6119480  28.6839414
  27.2858168  58.6328857   6.4948495  28.0509402  59.0038459   6.9344075
  27.0837046  57.8410976   6.9933017   5.8053423  40.2053107  20.7506704
   6.5681387  40.6954993  21.0574126   5.2712847  40.0780142  21.5347695
  54.2216540  40.7148398   3.2534680  54.1782308  39.7715605   3.0967334
  53.3825755  40.9287299   3.6614290  55.7840038   8.8540686  45.9787607
  55.5421281   8.0328310  45.5506372  55.0367952   9.0605963  46.5402412
  28.0757928  67.2550440  11.8475091  28.6861253  66.7264748  12.3616517
  27.3884940  67.4984217  12.4676871  66.0090208  29.5422781  65.5482960
  66.0697985  30.3283442  66.0911179  66.6668201  29.6715773  64.8650599
  32.5025535  57.9212856   6.7733663  31.6185403  58.0369091   6.4249611
  32.9321623  57.3379469   6.1477607  32.7104593   3.0916632  17.5052750
  31.9513632   3.6492575  17.3347449  32.3560072   2.3461379  17.9898238
  49.1601086  21.6400946  28.6726618  48.6641586  22.3798789  29.0233684
  49.7310663  21.3717021  29.3925214  79.5756865  39.9492682  13.7834358
  79.6676684  38.9965952  13.7971270  80.0800085  40.2276267  13.0189693
  76.8176747   1.9470919  35.9543729  76.2654162   1.2514246  36.3111472
  76.3942290   2.7577055  36.2369108  22.0129610   5.2611006  48.5785103
  22.9093481   5.0125254  48.8041925  22.0630241   5.5315245  47.6616716
  54.4922781  52.4121904  24.1723347  54.7657251  52.4379444  23.2553840
  54.7389126  51.5369749  24.4713283  58.8011122  23.2703818  10.7701194
  58.2252336  23.0889071  11.5128601  59.1601420  22.4158801  10.5310488
  83.2659531  27.2757567  21.3432145  84.1743613  26.9805277  21.4054322
  83.1922150  27.6394595  20.4608822  57.4479628  69.6752405  26.9298816
  56.9131994  70.3567696  27.3370314  57.9962015  70.1446438  26.3011312
  61.9783688  73.3748579  36.6395259  61.2727642  73.2493353  37.2740293
  61.5596437  73.2500553  35.7878661   1.4408899  53.4554958  33.3703923
   0.6654287  52.9090595  33.2426834   2.1780420  52.8557682  33.2556605
  76.5449238  11.2079562  67.8057623  77.3734093  11.0963667  68.2720137
  75.9401226  10.6105841  68.2457447  81.3082409  16.4293326  40.3835392
  81.2248135  17.3828066  40.3705597  81.3434792  16.2046278  41.3133240
  72.0578909   6.2634219  32.6655459  72.4207688   6.4896525  33.5219169
  72.5877142   6.7602194  32.0420837  18.2001329  14.1231860  42.3776770
  18.6449934  14.9702109  42.3481321  18.6892629  13.6182917  43.0273390
  55.0713635  79.4781340  53.2955217  55.1829362  79.0542449  54.1464663
  54.1231251  79.5229949  53.1727839  53.4728909  70.6044102  22.8678203
  54.0660954  69.8710299  23.0305862  53.6625242  70.8707428  21.9681883
  22.3984098  12.2450244  27.7211070  21.5163422  12.0828903  28.0556226
  22.9339504  12.3639011  28.5055161  27.0177913   1.3714136  27.8232813
  27.1306372   1.0389680  28.7137747  26.8019199   0.5968256  27.3040080
  10.4757714  20.3267241  24.1218376   9.6275121  19.8845696  24.1562963
  10.3231573  21.1710811  24.5461011  70.0986718  80.6849963   8.2927668
  70.7258820  80.0936421   7.8766674  69.6446072  80.1392952   8.9348483
  77.3511707  73.6311363  19.7205257  77.0842516  72.9395991  20.3261352
  77.8724574  73.1799459  19.0565085   5.6256253  25.6350088  50.8045197
   5.0821036  25.5825281  51.5906906   5.0219500  25.4559183  50.0835943
  79.0688240   3.6725432  15.5349040  78.7102162   3.2227424  16.2999606
  78.9532429   3.0513769  14.8158586  37.0318031   1.5210601  70.8737595
  37.6391505   1.0301038  70.3202987  36.4122247   0.8639928  71.1909547
  80.7599186  80.8466400  37.2846031  79.9566673  81.3231230  37.0748854
  81.1501717  81.3407104  38.0055952  44.0080070   0.4124793  26.7810321
  44.2089891  -0.1601062  27.5212908  44.5611906   0.0882373  26.0703373
  20.6708431  44.6443701  23.5935903  20.3940248  43.8350868  24.0233111
  19.9526072  44.8568678  22.9975915  75.9565913  27.7764821  24.7266889
  75.8910274  26.9100285  25.1281762  76.0464251  28.3771133  25.4665565
  80.3086316   7.7310646  27.6679397  81.1139786   7.6454484  27.1577263
  80.3552293   7.0224416  28.3097458  85.8040783  40.2966928  29.6583605
  84.9882878  39.8689342  29.9186254  86.4603252  39.6006012  29.6903968
  72.0259129  61.8354868   8.2324243  71.5675484  62.3520874   8.8951892
  71.9869351  60.9369122   8.5599566  47.5123607  27.7549870  59.2347412
  47.2477411  27.5453110  58.3390598  48.4375237  27.5125940  59.2741172
  34.3107128  51.3207436   9.9023646  33.8232040  52.0987892   9.6317822
  34.4115639  50.8099413   9.0991580  48.5799097  71.9829924  70.7442076
  47.6498030  72.1918686  70.6575826  48.6062371  71.0281308  70.8056694
  10.5181372  11.6929257  17.6906085   9.7789866  12.1275735  18.1160128
  10.3446448  11.7871249  16.7539883  25.8338356  28.7257838   1.2383821
  26.0691547  28.3044600   2.0650280  24.9711752  28.3699441   1.0252508
   8.5838407  81.0221291   2.2842093   8.5769761  80.6130123   3.1495473
   9.2075878  80.5015373   1.7780933  80.6534218  18.3892775  21.4128828
  80.4610949  17.4520183  21.4409232  81.1869597  18.5008633  20.6260443
  79.6379286  17.6538289   6.9689018  79.5501804  18.5247421   6.5815496
  79.4291454  17.0518458   6.2545788  33.8091816  60.9459074  60.1130847
  34.5084809  60.4016705  60.4750471  33.5287415  61.4941819  60.8458750
  74.8718166  45.9894657  12.8331494  75.0955438  45.4438543  12.0791709
  75.6542611  45.9690809  13.3841455  44.3186795  53.7318169  13.5460770
  44.8456191  52.9539668  13.7291539  43.7963938  53.4925400  12.7804422
   4.7924334  62.0600319  33.5796595   4.3372288  61.2192154  33.5343671
   4.2606294  62.6494169  33.0448318  20.1554084  11.7859268  28.9592862
  20.1269698  12.4815249  29.6162224  19.2612267  11.7393494  28.6209083
  63.0984830  16.1338472   7.8348404  63.4590625  15.7888258   7.0180333
  63.8110709  16.0447979   8.4677070  75.5546068  78.4061225  64.4823436
  76.1201690  77.9253872  65.0867162  74.8485731  78.7446220  65.0329511
  19.0723991  81.1663987  23.5184622  18.8825273  80.7128092  24.3397021
  19.5761871  81.9367102  23.7812328  82.9627594  24.4161725   6.2056857
  83.3737278  24.2407465   7.0521867  82.9039853  25.3705263   6.1611623
   8.0453146  27.1601057  41.9459963   7.1404612  26.9074535  41.7625856
   8.3260834  26.5602827  42.6370907  86.0340463  35.7454562  14.2132354
  85.7250732  36.3675547  13.5546291  85.2656662  35.2129555  14.4188225
  76.7788791  58.7752663  15.2933538  77.0461606  59.6452724  15.5898046
  75.8304941  58.7592851  15.4219735  28.5310435   2.4789059  31.2653708
  27.9883504   3.2622489  31.1754298  27.9068661   1.7532274  31.2602806
  77.8349781  18.1330538  11.0890555  77.9107350  17.3031676  11.5599918
  78.6810869  18.2398999  10.6544113  83.5645976  43.3744240  61.1169958
  82.6173287  43.5095310  61.1426830  83.7674874  42.9423141  61.9466639
  59.0743898  24.9472935  70.3181936  58.6170529  25.0159474  69.4801245
  59.7423886  24.2774136  70.1723458  31.5886879  27.3283410   1.8877485
  32.4369717  26.8858266   1.9164692  30.9475803  26.6175604   1.8894207
  36.8502212  25.3127980   1.9710909  37.6060653  24.9403048   1.5170197
  37.2005105  25.6196141   2.8073880  13.6342466   7.2066021   4.4631773
  13.4290457   8.0277544   4.9102038  13.7147105   7.4496233   3.5408443
  66.2688821  76.6716485  20.4644418  66.3144558  76.2635302  21.3290763
  65.8183085  77.5025942  20.6152534  24.4815945  79.1923820  21.2597537
  24.0357327  79.8303344  20.7025695  23.8074588  78.5466008  21.4712715
  78.9059549  19.3202245  35.3290582  79.0838021  19.7639465  36.1583424
  79.3877738  19.8290622  34.6770096  28.1611085  51.5465498   8.5026598
  27.2438884  51.2764645   8.5473222  28.1350040  52.4191093   8.1099880
  31.8181229  17.3515582  20.6919193  31.4192224  16.4885807  20.5806541
  32.3586130  17.4681282  19.9105656  50.4083751  74.7352989  67.2130529
  51.0872196  74.1670377  66.8490733  50.0947689  75.2433307  66.4648647
  58.7829065  21.2888813  16.3475716  59.6725607  21.5751052  16.1406362
  58.2624674  22.0920134  16.3288355  49.2803388  70.9208631  24.2413187
  48.8229810  71.3266872  23.5048676  49.4612359  70.0277995  23.9481568
  49.9193476  77.4284275  53.5628800  49.5896934  77.3766763  52.6657288
  49.3360566  76.8598111  54.0655510  81.4607118  71.6770251  42.7901618
  80.5396818  71.7491467  42.5397007  81.8215345  71.0239227  42.1905796
  74.8257160  31.9492483  33.7899566  73.9713144  32.2459531  34.1033173
  74.7990369  30.9973431  33.8869095  21.0439401  67.0764263  54.3434636
  20.8155816  67.1061714  53.4143786  20.8806210  66.1691935  54.6013181
  23.0355072  17.4512053  44.2206335  22.3663211  17.2775292  44.8826456
  23.6308479  18.0729568  44.6392298  37.1633101  30.0439334  30.7965422
  37.3816752  29.3184495  31.3815403  36.7831278  30.7086325  31.3708854
  33.7164044  36.7862344  12.8487241  33.8893223  35.8476377  12.7754688
  33.2816124  36.8842769  13.6958218  35.0917904  50.5893589  69.9244708
  34.8921602  49.8831887  69.3098955  34.6699827  51.3614400  69.5473747
  58.2983208  27.1006036  53.4332466  58.2896805  26.8800712  54.3646574
  58.8287306  27.8956461  53.3802700   2.8550833  47.0831537  47.0960140
   1.9689545  46.9165564  47.4173403   3.3824334  46.3778830  47.4711466
  36.1605130  78.5820277  60.7744257  37.0819937  78.7936409  60.9238361
  36.1336212  78.2490881  59.8773972  28.5926318  21.3943362  35.8895469
  27.9010201  20.8229876  36.2234116  28.1299305  22.0530796  35.3716707
  57.8330961   9.8097249  55.6359510  57.9086246   8.8555785  55.6244449
  58.3764398  10.0841018  56.3746826  46.5809928  78.6936624  60.2135329
  47.0555877  79.5206268  60.2979199  47.1951805  78.1093033  59.7690908
  10.4785537  53.2133372  67.8390692  10.1380383  53.2592518  66.9456641
  10.0683414  53.9513428  68.2899628  38.1056523  29.9619365   9.2884111
  37.7889991  30.1046109  10.1803792  37.3422766  29.6344495   8.8127643
  62.7863334  63.9583762  60.8347170  63.3018659  64.2753918  60.0931243
  63.4345101  63.7664063  61.5123932  11.1565042  44.4846344  19.7491205
  11.5092802  43.6815405  20.1322865  10.4390323  44.1878510  19.1893125
  42.0551538  41.2882185   5.8290982  42.8450298  40.7565975   5.7305771
  41.4452410  40.9330940   5.1824713  33.5897636  17.7279854  44.0368080
  32.6578307  17.6345634  44.2343092  33.6567426  17.5363195  43.1013870
  20.2061200  52.9771662  16.9182253  19.3195784  52.7974272  17.2312284
  20.7763624  52.5338411  17.5463319  24.9437761  54.7431374  19.3698549
  24.6310663  54.0620995  18.7743461  25.8916974  54.7598600  19.2379475
  17.4583828  19.0706587  30.4112554  17.6852751  18.3145797  29.8698711
  17.3797262  19.7948837  29.7903347  32.7424036  76.6765554  70.4983084
  32.3581149  75.8347924  70.2533790  32.0913695  77.0788367  71.0732475
   6.4965045  53.9502764  10.6259799   5.8422375  54.3950033  10.0871074
   6.2036431  54.0942621  11.5258312  65.7537996  81.5766834  21.3039827
  64.9739819  81.0958678  21.5813494  65.5788844  81.8114758  20.3926587
  76.8396258  49.4931889  10.6390774  77.7017366  49.3553543  11.0315037
  76.2347972  49.4856215  11.3809383   5.7300710  61.4415248  64.9300991
   5.3242587  60.5758710  64.8832737   6.5814447  61.2851508  65.3386782
  84.8169964  78.0889082   7.8933781  84.6261756  78.6788940   7.1641749
  85.3168551  77.3742962   7.4987906  67.5450635  16.1487615  34.5763779
  68.0299603  16.7793274  35.1088166  67.9677283  16.1847043  33.7182999
   0.1505160   3.6277887  62.9386733  -0.5501128   3.6879703  63.5880808
   0.9191870   3.9871761  63.3816366  62.3600721   2.7207401  25.1427960
  62.1793556   2.9279628  26.0596561  61.8676304   1.9167644  24.9773932
   9.3470109  17.3939586   1.0739142  10.0547981  17.9857194   0.8187892
   9.7915006  16.6505694   1.4813858  50.1195907  11.6816640  15.2248108
  50.0405073  12.3066390  14.5041287  50.9860539  11.8509853  15.5946827
  84.9943813  55.9504032  30.0562429  85.2816641  56.2997580  30.8998394
  85.1374736  55.0065804  30.1266074   2.6648533   7.5077713  12.5114954
   2.3960224   7.9734325  13.3034062   3.6103231   7.3948735  12.6093388
   4.3693006  11.0249758  16.0031390   3.6318687  11.2170434  16.5823936
   4.2052442  11.5546119  15.2228820  50.7594775  66.1958535  64.1132931
  51.5085195  66.5123851  64.6182416  51.0129379  66.3288744  63.1998954
   4.2438146  21.9416380  21.9339418   3.9638117  22.8057456  22.2358489
   4.7436345  21.5822029  22.6668930   8.1836766  27.3792911  34.1242409
   7.5240636  27.2443199  34.8046255   8.5225630  26.5028429  33.9419580
  28.4503126  25.1452470  12.5493419  27.7719331  25.8201861  12.5715637
  28.4544086  24.7805500  13.4343338  28.4649992  17.9383612   4.4447666
  29.3519306  17.6164305   4.2836887  28.2305431  17.5768936   5.2995199
  10.8806074  49.5301437  10.5499685  11.3046050  49.6920252  11.3927341
  10.0170696  49.9343061  10.6347513  11.3615692  34.5843601   3.3418903
  11.6765273  33.7837434   2.9223105  11.4687276  35.2624464   2.6748484
  34.3098354  23.0124879  32.8410721  33.9220262  23.4352756  32.0748544
  34.0896511  22.0863771  32.7407122  26.1558914   7.9501331   6.8022805
  25.7025266   8.3589232   7.5395626  27.0422339   8.3098942   6.8368787
  62.8029632  54.6630144  20.9180546  62.3171377  54.0501833  20.3661084
  63.4012150  55.1052809  20.3157854  21.5278578  25.9251642   9.4959944
  22.0740604  25.6500673   8.7596405  22.0980239  26.4876986  10.0201106
   0.8294481  53.1407166  36.1427069   1.5355964  53.4676409  36.7001176
   1.0027565  53.5280275  35.2846956  15.7083880  58.2933552  64.4873093
  16.6037368  58.2160373  64.1577594  15.7654594  58.9463730  65.1848350
  38.2260633  19.0806913   2.0335518  37.5987124  19.4879150   2.6309058
  37.9641843  18.1605530   2.0019959   5.0273460  41.7277336  30.3524661
   4.7219124  41.7770290  31.2582874   4.3272406  41.2688112  29.8882747
  21.1671329  21.9855213  41.7869949  21.6122723  21.1674786  42.0081043
  21.8322849  22.5059509  41.3364840  35.5635715  34.4068432  14.9187398
  35.4827142  33.7789154  14.2008257  34.6615696  34.6510601  15.1260650
  49.4256687  19.4381654  11.5499485  49.6842146  18.8558102  10.8356333
  49.5084763  20.3184390  11.1832178  38.8713360  55.1854515  11.1146426
  38.1125617  55.3337097  10.5502725  39.6225357  55.2325344  10.5232763
  27.1035123  31.5282631  25.5297470  27.6158881  30.7296038  25.4038668
  26.6131449  31.3734794  26.3370967   8.9093310  12.9529023   2.1980369
   8.4006053  13.4751201   2.8182942   8.2804608  12.3261976   1.8402712
  48.8302517  50.1633358  23.1715822  49.6854639  50.1280451  23.6000681
  49.0049458  50.5662012  22.3210478  31.5723467   6.4224368  30.8163166
  31.8163538   6.3873625  29.8914051  32.2226906   5.8751589  31.2565136
   6.3880330  25.2794361  30.9343696   6.6070241  25.9777522  30.3174186
   5.7534838  25.6769443  31.5306640  26.4512181  64.3109989  11.7165411
  26.7404532  63.4253311  11.9360161  26.5721655  64.3745804  10.7691443
  19.7172117  28.4785748  10.1013565  19.6467400  28.5074091   9.1471899
  20.4060555  27.8360534  10.2713358  28.9987803  19.9907434  28.4873247
  29.7856426  20.4177094  28.1485319  29.2804813  19.0999830  28.6957049
  45.0350428  17.0820439  43.2589912  44.6128845  16.4881611  43.8797283
  44.3979645  17.7843928  43.1283474  10.6140518  33.4475565  10.6466103
  10.3898919  32.6279330  10.2059281   9.8278177  33.9871120  10.5632639
  81.1316627  29.6681166  21.5328264  80.1809370  29.5839167  21.4602804
  81.4510422  29.5561886  20.6374502  20.7375503   9.7647786  44.6892118
  20.8865309   9.6506715  45.6278372  21.5687108   9.5187950  44.2831326
  19.9673772  22.2944236  36.9227672  19.4127858  21.5188098  37.0069242
  20.0400019  22.6348281  37.8144431  33.6253834   9.2046505  44.8249578
  34.2969823   8.7711483  45.3515148  34.1125870   9.8119283  44.2681122
   8.9163387   3.7773746  10.1962686   9.8431396   3.6348146  10.3884876
   8.7594408   4.6903759  10.4371917  47.7158785  44.7936058  14.3767130
  47.5322962  45.7286882  14.4669724  46.8708086  44.3684292  14.5227170
  18.1946421   4.2826721  38.9205766  17.8740823   3.6074406  39.5185184
  17.4204898   4.8060071  38.7131143   0.8517750  27.0312643  36.6875076
   1.7978659  27.0148253  36.8319845   0.5428945  26.1916089  37.0278096
  28.6818361  12.8537452  33.6299944  28.3292651  13.0328274  34.5016909
  29.2835546  12.1209240  33.7609148  33.5169673  50.3764153  21.3618851
  32.6627159  49.9668550  21.4988112  33.9925575  50.2167559  22.1770883
  15.8822393  48.1955528  51.1010265  16.4008462  47.4296093  51.3472176
  16.0055387  48.2743073  50.1550770  38.9664650  16.4762366  28.6002827
  39.0702605  17.3245370  28.1691861  38.6403084  15.8962190  27.9122186
  84.3679137  61.1208487  39.5585465  83.4379580  61.0321999  39.3498492
  84.3812443  61.5283346  40.4245758  74.3407225   3.6680528  62.5939123
  74.8136090   3.8281270  61.7772190  73.5733389   3.1600352  62.3307238
  26.5217257  44.3372011  25.7501793  25.5748725  44.3762970  25.8849859
  26.8895292  44.8129511  26.4949036   5.4639077  37.1948123  24.2628169
   5.1172101  36.6429090  23.5617900   5.0113785  36.8937016  25.0507116
  12.1386206  10.8928907  22.9155445  12.9171538  10.3438950  23.0089355
  11.8306231  11.0262132  23.8119793  39.2281651  52.5014925  16.1863112
  39.8056626  52.0013666  15.6095958  38.4313107  52.6323938  15.6723881
  19.6509635  13.6691093   6.5011686  18.7447751  13.8967216   6.7091292
  19.8119855  12.8597689   6.9862169  70.8187401  59.5649242  26.9527340
  71.6327679  59.7337770  27.4271607  70.2957630  59.0359020  27.5551128
  62.5299501  20.9839320  49.8651266  63.0024528  21.7916155  50.0666761
  61.6190028  21.2589169  49.7612524  86.8115316  21.7913055  38.0783606
  87.4322420  21.7422867  37.3513484  86.0381192  21.3224030  37.7649975
  33.3062840  16.0860014  35.8939481  34.2422628  15.9002364  35.8186531
  33.1218433  16.0113394  36.8302369  47.9101634   0.6777037  20.8641219
  47.6508391   0.4518260  21.7574096  47.7317608  -0.1134073  20.3556442
  17.8366959  17.6574349  49.2037249  16.9480634  18.0127668  49.2211771
  17.7532208  16.8264401  48.7360620  27.9212666  45.8345747  11.6114795
  28.2225466  46.7406368  11.6786385  28.0764341  45.5977249  10.6971180
  66.9985317  59.4066425  60.9473340  67.0887111  59.5183237  61.8937097
  66.5691279  60.2092619  60.6512837  73.9116775  41.3510677  68.9740260
  73.7337565  41.5175887  69.8996857  74.8042773  41.6699477  68.8405548
  77.1293991   8.6053616  11.4283824  77.4994605   7.8513074  10.9693742
  76.5189719   8.9919811  10.8005798  59.4837427  26.0363841   6.3207275
  58.7817526  26.4938474   5.8579451  59.0757942  25.2310157   6.6388309
  53.3897822  81.7768893   6.3204986  54.2144873  81.3356929   6.5240651
  52.7582472  81.0658548   6.2117553  32.0837307  46.5186930  28.8180232
  31.5192175  46.0686827  28.1894946  31.6223359  47.3343182  29.0132165
  20.5819106  25.1588988  32.0286584  19.7739112  24.9050570  32.4746776
  20.8231854  24.3890238  31.5135765  17.3708594  20.1294851  23.4366059
  17.4686193  21.0642147  23.2550669  16.9873381  19.7690475  22.6370883
  21.0681819  60.1551421  35.8224265  21.4699125  59.3798335  36.2145225
  20.8702277  59.8935135  34.9232070  75.5795931  46.9914218  70.7208968
  76.3706528  47.3022147  70.2805970  75.9027015  46.4320823  71.4272729
  12.6554870  74.7899996  46.6719198  12.8764295  75.5861192  47.1552515
  13.5010433  74.4294023  46.4050198  13.6729074  25.7582617  14.1215181
  14.4281292  26.2322569  14.4696546  13.9983344  25.3424859  13.3231068
  20.9252071  65.4518604  44.4929361  21.7754221  65.7686663  44.7978973
  20.3024697  65.7704878  45.1463175  54.5102810   7.3215288  14.4002521
  55.1902484   6.6620660  14.2624605  53.9474368   6.9472218  15.0779915
  44.0959024  23.9633155  22.1906233  44.3740559  24.1875958  21.3026142
  43.7871695  24.7902250  22.5609398  41.2647938  76.8852742  68.6762604
  42.0284663  77.3864610  68.3901720  40.6950949  77.5328548  69.0913664
  61.1689376  62.7573036  17.2264028  61.5113058  61.9179069  16.9191110
  61.0976388  63.2910561  16.4350390  38.5104537  28.4644961  15.2800333
  38.8961816  28.7428880  14.4494057  38.4791517  29.2618203  15.8087361
  37.6727152  17.6078665  19.1757178  38.6161852  17.7441120  19.0889311
  37.3316503  18.4599936  19.4473529  51.4724588   2.5307843  69.7454357
  51.4468288   2.7318841  68.8099480  52.4052286   2.4962099  69.9575186
  29.2643427  72.0258724  26.4072728  30.0860118  72.5041603  26.5183258
  28.9766192  72.2465145  25.5214024  76.2633394  71.8021571  27.8398371
  76.1817121  72.5364940  28.4483743  75.5780517  71.9532471  27.1888494
  29.6669674  34.5993924  23.8299298  30.1653767  34.2467642  24.5671368
  28.7529993  34.4212532  24.0516520  28.6528373  10.7076633  12.9892302
  28.0618429  11.3137078  12.5423908  29.4526100  11.2140357  13.1313014
  17.5847018  41.6822338  19.5087123  17.0115054  41.2435102  18.8800609
  17.3540771  41.2956572  20.3534627   7.7748102  64.8517036  30.5480194
   8.3399111  64.1450787  30.8603835   6.9773161  64.4096422  30.2567887
  26.8146586   6.7168045  13.5701489  26.0468721   6.8280649  13.0094719
  27.1308422   7.6072896  13.7227786  21.1076403  39.4610858  51.2031221
  21.6430855  40.2528381  51.1515570  20.4647326  39.6508074  51.8864250
  19.7650098  79.3389291  16.1552203  20.4628801  79.3304988  15.5001307
  19.5195770  78.4191876  16.2555623  37.8120279  19.7837329  40.9221792
  36.8833709  19.5547616  40.9595680  37.9470158  20.3603244  41.6742086
  31.0250711  48.2700062  24.9884510  31.0526085  48.7672234  25.8059144
  31.9425631  48.1835604  24.7296691  10.5373669  73.0847597  14.9609113
   9.9452221  72.3473883  15.1088190  10.9946263  73.1956816  15.7944822
  57.2332668  28.5459352  13.6024928  56.9011354  27.7941012  13.1119168
  57.1327066  29.2859674  13.0037653  67.5998877  72.0992668  64.5838563
  67.1944259  72.5720771  65.3106884  67.2141193  71.2240989  64.6225355
  86.5761786  56.5539312  38.9175582  86.2758270  55.6488943  38.8343406
  85.8392538  57.0149565  39.3183446  79.3592428  17.3388083  63.7457435
  79.0114569  18.1166084  64.1819815  80.2869390  17.5334914  63.6126761
  14.6885574  46.9094753  40.7158995  15.2499080  46.9477654  39.9415278
  14.6491480  47.8134775  41.0280895  54.5971372   9.3887015  56.3951711
  54.6771549  10.3395387  56.4709310  55.2011343   9.0443345  57.0530705
  77.4598383  22.3589822  56.1878638  77.9800486  21.5577480  56.1276142
  77.0907747  22.4713727  55.3118531  22.8912759   4.7829664  28.3139443
  22.0133185   4.7437078  28.6932564  22.8436589   5.4920352  27.6727057
  83.4285202   3.3712691  19.1747582  83.8554567   3.5004157  18.3278358
  82.5312382   3.6759809  19.0395999   7.9567081  29.8389840  11.0391462
   8.4228486  30.0131965  11.8568230   7.0378041  29.7682381  11.2976861
   1.4457440  34.9602958  63.9703880   0.9544372  35.6310292  63.4960817
   0.9680152  34.8498889  64.7924678  71.5647316  80.5972576  38.3876681
  71.4501524  79.7500944  38.8182688  71.5115404  81.2362862  39.0983272
  28.4454393  17.3338497  11.6515374  29.2643523  17.8049612  11.4976907
  27.8068113  17.7741706  11.0907304   8.5351330  62.6550388   3.9044601
   7.9703689  63.4277248   3.9197147   7.9951656  61.9714975   3.5076758
   7.9280537  65.5578852  15.5856085   7.9176873  65.0558424  16.4005172
   8.5284376  65.0771999  15.0157738  25.7170105  55.0430428  34.8007560
  26.5055084  55.4940902  35.1025105  26.0155630  54.5017969  34.0699005
  20.4918957  42.0786190  13.9690697  20.9109426  42.6415634  13.3181298
  20.9969449  41.2659025  13.9435494  32.9895616  55.5741215  35.9591579
  32.3246193  54.9320698  36.2078595  33.6884141  55.0538635  35.5627108
  72.7493130  73.8511234  10.1935530  72.0474040  73.2151275  10.3316307
  72.2976123  74.6530115   9.9305439  20.2917457  22.4325657  25.7428432
  20.2429223  22.9424644  26.5514565  21.2222791  22.4277687  25.5185294
  50.7717751  54.1052075  67.6808913  50.4240202  54.9934204  67.7607421
  51.7199730  54.2234023  67.6244925  55.8378576  56.6449638  69.3799929
  56.5779733  56.9785853  69.8871012  55.9881185  56.9724019  68.4931792
  85.5867679  57.5484276  17.2097278  86.4941839  57.8411293  17.2943127
  85.2683514  57.4919558  18.1106460  24.5080590  45.6843901  35.1832771
  24.6090269  44.9204540  34.6154404  25.3901887  45.8561563  35.5127883
   3.1172326  18.1959522   2.8261364   2.2904703  18.6699808   2.9155359
   3.2258546  18.0797720   1.8822426  23.2856839  71.1654170  36.5892403
  23.9471899  70.5720122  36.2335555  22.4767940  70.9188683  36.1407511
  20.7462668  58.4394264   8.7034118  20.2779961  57.9758024   9.3976784
  21.6473866  58.1235552   8.7700480  39.7498751  17.3765182  16.6137099
  40.2274752  16.5977597  16.8994820  38.8284397  17.1555102  16.7491436
  31.6923118  29.0724874  18.1038797  31.2596464  28.4250259  18.6605000
  32.6044393  28.7846732  18.0662167  58.7160049  80.4707178  20.9860349
  58.0174542  80.3563957  20.3416824  58.8403504  81.4183332  21.0389042
  35.5808353  41.3344383  15.7890332  36.2443089  41.1292648  15.1302922
  34.7500753  41.1083937  15.3707349  36.8712759  64.1921139  19.4754779
  36.0299516  63.8918304  19.1316247  37.1751571  63.4717798  20.0277543
  30.4561853  31.1220717  31.2347102  30.1157260  30.4608655  31.8373108
  29.8664427  31.0861230  30.4816198  17.3759437  40.2973175  24.4271827
  16.8041587  40.0388527  25.1500154  18.1671381  39.7723341  24.5481539
   8.9569384  24.1036487   3.4858334   8.3919972  24.8704100   3.5814881
   9.8003048  24.3814349   3.8433239   0.2301339   6.2712866  25.5845284
   0.4611634   5.9849924  26.4682078   0.9979268   6.0565645  25.0547910
  80.3296399  11.3601577   7.6432371  80.2746129  10.5106294   7.2056258
  81.2039703  11.3728142   8.0326188  86.4640927  62.4465155   1.6887946
  86.4322328  63.3014034   1.2593967  85.6341242  62.0304202   1.4558864
  27.1590757  70.1500737   8.2043427  27.1115827  69.9993919   9.1484141
  28.0965614  70.1843165   8.0141294   3.2882801  32.3730373  32.6761127
   2.4711904  32.6301527  32.2489238   3.5221440  33.1261063  33.2187247
  60.0959992  74.9310332  19.7259474  59.7462516  74.1038929  19.3946660
  59.3565478  75.5374425  19.6845818  11.1697578  17.9024053  20.0942636
  10.3659630  17.4206972  20.2894664  11.4824724  18.2023942  20.9477544
  12.6926589  39.3945813  26.1030865  12.4466372  38.4709644  26.0517025
  12.3374927  39.7819138  25.3030467  68.8101232   6.8952346   1.1853477
  68.0781924   7.4484348   1.4582548  69.5904922   7.3903358   1.4346078
  59.3275595   5.7117528  13.8500512  59.8404980   5.9255296  13.0706763
  59.9432468   5.2567464  14.4246173  44.3678045  20.2658033   6.6606832
  44.6991825  20.7216263   7.4344051  43.4537172  20.0731349   6.8693775
  78.8913214  35.5557108  36.6277504  78.3920007  34.7563672  36.7949677
  78.6422330  36.1467552  37.3382807  27.0206356  49.5404768  18.4408748
  27.8271246  49.0932178  18.1844234  26.8282700  50.1260900  17.7085638
  15.1397215  77.8054745  55.8336131  14.4424497  77.6698525  55.1920120
  14.7793745  78.4456761  56.4472286  58.5501908  54.8662098  66.7520068
  58.0957149  54.0253205  66.7011390  58.0034994  55.3994115  67.3291169
  25.6395030  15.0201344  19.7499073  25.9011102  15.7145095  19.1452277
  25.3346014  14.3114412  19.1833210  81.1350983  17.0265388  17.9383290
  81.2747407  17.9610717  17.7854228  81.3116675  16.9075239  18.8715434
  80.3319686  41.7963552  15.9850991  80.0786042  41.1717415  15.3054678
  81.2375271  41.5678644  16.1948335  27.2791624  20.8898497   8.7647241
  27.4189329  21.2887692   7.9059118  26.8391109  21.5692329   9.2756307
  46.1774874   4.1291234  17.8143454  47.0250511   4.5589989  17.7000034
  45.8051109   4.0956283  16.9331849  22.6081085  10.4948950  35.6224823
  23.4530735  10.4548991  36.0704446  22.2457695  11.3455570  35.8701038
  48.3437686  73.4217196   5.0061208  48.7952422  73.9985048   4.3899044
  47.5492155  73.8997977   5.2435201  22.3736310  49.6293736  21.5136719
  21.8680978  48.9580488  21.0554266  22.0614147  49.5889568  22.4176192
  15.6825864  18.1886387  32.9475546  15.8086801  17.2465849  32.8341246
  16.3049519  18.5884511  32.3400664  34.3295956  53.8439512  18.0740023
  34.7546649  54.0466738  18.9073396  34.6057773  52.9491758  17.8756845
  54.2077690   6.8390008  69.8032170  53.4031581   6.9502374  70.3096353
  53.9330407   6.3654729  69.0180242   0.8833501  48.6971903  14.0676737
   1.0010418  49.5873213  14.3994021  -0.0439427  48.5085297  14.2117822
  65.5211282   0.7272185  32.7458930  65.6374741  -0.1076757  33.1993699
  66.4053178   0.9816016  32.4818254   9.4562638  55.6674099  21.9652867
   9.8361629  55.6441975  22.8435636   8.9065832  54.8850060  21.9213367
  20.3224158  64.4827414  38.3046007  20.3643012  64.2243433  37.3838878
  20.3843856  65.4377937  38.2883906  18.8926816  66.4761686  25.4797506
  18.8926089  67.4128962  25.2828193  19.5847309  66.1150169  24.9257946
  77.6289832  50.4229879  24.6665144  78.2141923  49.7487640  24.3212819
  76.7518365  50.0532532  24.5657921  41.5634966  58.4726667   9.9986833
  41.9832277  58.1724834  10.8048785  41.4545536  59.4155979  10.1221251
   0.5656171  28.8250899   4.1020146   0.3163648  29.7148418   4.3519083
   0.8433176  28.4151435   4.9211949  46.7494488  23.0417728  25.1800203
  47.2391748  23.4587955  25.8888888  45.9655619  23.5819745  25.0803614
  24.9318552  60.9763813   1.9909373  24.0761590  61.3996315   2.0607685
  24.7522712  60.0475693   2.1368575  25.2138591  33.9664173  35.3340220
  24.7107983  33.1780744  35.5381727  26.1275506  33.6832738  35.3691363
  23.5190535  74.7090006   5.9361666  23.9200068  73.9413214   6.3437706
  23.3241749  74.4307137   5.0412858  40.6691360  29.9911618  34.3679237
  41.4126396  29.6225858  34.8449826  40.9550047  30.8707929  34.1214252
  26.6997385  52.9992390  22.8298330  26.2640262  52.6570415  22.0492649
  27.4589396  52.4287605  22.9498506  23.1743193  56.2211370  34.3530202
  23.2024693  56.5502882  33.4546328  23.9556289  55.6738520  34.4321775
  23.4585333  70.7597542  33.5724545  23.3133507  71.1693239  32.7195740
  22.8088808  70.0580549  33.6148810  45.8348370  78.4422445  20.9720635
  45.9464312  78.2592583  20.0391674  45.4901981  79.3347597  21.0015225
  77.8591370  22.7457162  59.4435481  76.9098639  22.6372739  59.5014612
  77.9777002  23.5974141  59.0230851  63.0141115  54.6842909  29.6250606
  63.0716562  55.6380367  29.5677328  63.7951183  54.3694353  29.1699457
  50.5476570  21.9942307  40.6949520  49.6850586  21.6518402  40.9292936
  51.1571264  21.3001013  40.9458780  72.5301718   1.9074222  61.6213225
  72.8159880   1.1578818  61.0990821  71.6737234   2.1376535  61.2611554
  14.2276084  40.7002068  21.1496210  15.0216949  40.8074856  21.6732121
  13.5434997  41.1326981  21.6606712  19.9305701  40.5748367  28.4788704
  20.5140996  39.8290920  28.6188412  19.0841508  40.2836037  28.8179708
  72.5690531  74.0275370  27.2541332  71.8668591  73.5209244  27.6621747
  72.1273612  74.7881906  26.8765807  37.0762587  70.6132603  16.1892128
  37.4900007  70.7451773  15.3361905  37.6725364  70.0283623  16.6567361
  23.8697386  59.7158575  15.2980351  24.1646194  60.4573774  14.7694290
  23.8534284  60.0519705  16.1941350  16.0578632  41.1872625  16.0304582
  16.1720002  42.1349525  15.9591579  16.9487524  40.8373260  16.0208404
   4.2754650  15.5582353  64.9876778   4.2608833  14.9461242  65.7234375
   5.2009892  15.7745906  64.8744224  43.9200211  66.9650269   1.6497676
  43.9757204  67.5002003   2.4414237  43.7632227  66.0772133   1.9713798
  40.9291220  49.4624949  34.5995116  41.1442566  49.2934608  35.5167770
  40.1625347  48.9153671  34.4285417  10.6810665  29.6552181  31.0876632
   9.7786301  29.4256425  31.3093281  10.9235466  29.0359545  30.3992224
  27.2993922  44.8582602   1.2677029  27.6675558  45.6545162   1.6506651
  26.3593578  45.0306559   1.2143184  75.0202631  59.3397827  37.2648851
  74.6511387  60.2207132  37.3276441  74.3018602  58.8022669  36.9314115
  37.3562360   8.0394877  29.5154071  37.3671937   8.5657729  28.7159491
  36.7193026   8.4762038  30.0809407  71.1588573   8.7204333  66.8809058
  71.2775087   8.9722081  67.7967460  70.8289098   7.8227540  66.9201062
  34.8676610  41.6958237  18.3246219  35.1717496  41.5005827  17.4382579
  34.0859485  42.2332239  18.1967151  23.4609294  52.8025246  33.5259008
  22.9960322  53.4207296  34.0897489  22.7709341  52.2565508  33.1490040
  14.5784867  34.0923691   4.1284651  13.6341238  34.1830182   4.2557222
  14.7188342  33.1496596   4.0399504  46.0735846  36.0103154  22.1285415
  46.5840292  35.3767323  21.6243124  45.9960747  36.7695308  21.5507722
   0.6627860  14.0916049  26.1269879   0.5179875  14.9575341  26.5083456
   1.0212611  13.5704112  26.8453765   3.2658529  70.1128864  38.9245200
   3.9336625  70.7261944  38.6177397   2.7011418  69.9736929  38.1642842
  43.5128307  55.0593853  28.1414986  42.9560709  55.8222198  27.9854870
  42.9745388  54.4751930  28.6755347  72.7408146  65.8637078  59.1439192
  73.6066507  65.7425792  59.5336513  72.2815250  65.0427492  59.3208711
  23.2858849  19.2300522   6.0073352  23.9740705  19.4798136   5.3906906
  22.7435780  20.0143003   6.0915470  49.5901178  76.7729385  48.0243389
  49.9652504  75.9053953  47.8730838  49.4958733  77.1490343  47.1491806
   3.9732674  72.2499752  25.7661533   4.1108322  71.3126087  25.6295872
   4.8535675  72.6062965  25.8858895  38.4906530  47.5979710  23.5883808
  38.0197883  48.3339071  23.1973314  38.9170194  47.1659613  22.8482389
   5.7598746  56.2730312  31.9859910   5.6534934  57.0230150  31.4008021
   6.6220838  56.3988161  32.3822284  47.1523285  27.7661157  12.5997829
  47.7682352  28.4401059  12.3123372  47.5196981  26.9477797  12.2657263
  42.8482150  30.5288287  69.9809654  43.0515443  30.5851146  70.9146254
  43.3995270  31.1977788  69.5750230  64.5241141  23.4246751  70.0519349
  65.2170484  22.7643462  70.0581571  64.9797469  24.2514869  70.2100919
  39.4231499   4.7767867  30.3211904  39.2991221   3.8580454  30.0829411
  39.0686369   4.8442782  31.2077570  57.6098108   0.0205694  27.9411602
  57.6217079  -0.4005751  27.0816684  57.3381662   0.9209507  27.7629590
   6.2674552  45.8173800  27.6691961   6.7343718  45.2072239  27.0982933
   5.4622936  45.3564930  27.9048419  68.2788765   9.4413634  56.9662384
  67.5132733   9.9402877  57.2511236  68.3859979   8.7645885  57.6346187
  76.8031096   8.1270047  70.4492541  77.1052372   8.0784436  71.3562232
  77.5841724   8.3633586  69.9489464  16.1030149  13.5192561   9.6465963
  17.0325327  13.6383951   9.8416227  15.8359289  12.7814150  10.1947629
  80.0497221   8.2171222  62.3872618  80.9932136   8.3378144  62.4944334
  79.6889853   9.1028854  62.4263166  14.1954470  27.1838903   8.9557904
  15.0208127  26.7455792   8.7487048  14.1249990  27.8819346   8.3046335
  24.0361166  24.4168997  25.4809046  23.5450101  24.6603608  26.2656164
  24.6749997  23.7737250  25.7881331  21.6810846  10.2792549  18.8144684
  21.6066813  10.2387381  17.8610253  20.8579493   9.9104071  19.1348326
  35.6622243  52.0690346   2.6254582  35.3482294  51.2541533   2.2335283
  35.1539779  52.7546644   2.1920657  16.1819732  57.9547262  31.5990305
  17.0977712  58.2046175  31.4761496  15.8859169  57.6934910  30.7270575
  54.1077375  61.8978453  23.6841869  53.9918184  62.8011179  23.9789605
  54.9554920  61.6356945  24.0430999   9.8993224  51.5177345  19.4275463
   9.2429727  51.5775108  18.7333822  10.4236734  50.7511330  19.1960096
  72.8116285  34.5136233  66.2137769  72.3988008  33.6523982  66.2777717
  72.4974083  34.8686572  65.3822438  17.5286222  53.0760002  17.3464608
  16.9161451  52.3819637  17.1027064  17.1021640  53.8834667  17.0594716
  41.2326466  80.0598533  64.0316282  40.3299748  79.9461920  63.7341432
  41.3185297  81.0012562  64.1820089  24.7296190  48.0194950  10.4718292
  25.3943062  48.3582306  11.0715604  25.1978683  47.8816748   9.6484345
  28.6427975  43.3503246  28.6356759  28.4614491  44.1790056  28.1922412
  29.5959520  43.3277273  28.7206459  39.7806931  50.2625370  30.0019240
  39.5057344  50.2181292  29.0861416  39.0215111  50.6194305  30.4629016
  46.1687994  76.0697365  26.2204671  46.3383102  75.1389122  26.3656044
  45.7609367  76.1068630  25.3553081  25.0040746  40.4385090  12.2805095
  25.1104784  41.3751364  12.1142793  25.6227756  40.0175238  11.6836727
  46.0938263  37.4654746   6.5449530  45.6167650  37.2238541   7.3388439
  46.9930983  37.1823168   6.7103791  26.4081335  61.2747240  15.6459248
  25.6927967  61.0327101  16.2341011  25.9739995  61.5180969  14.8282886
  -0.2756413  15.5334914   6.3630599   0.3850041  14.9208629   6.0398477
   0.0413763  16.3941181   6.0890996  28.4611726  60.9272861  33.4799910
  28.5356283  60.0346851  33.1424212  28.4261894  61.4772129  32.6973104
  36.8506670  57.8734303  26.1103296  36.4548588  57.6821566  25.2600479
  36.7979598  57.0469999  26.5904021  17.3397815  55.2308321  11.6235709
  16.5536892  55.7441902  11.8100011  17.0945489  54.6782255  10.8814692
   0.6457042   7.7891799  68.2535301   0.7863307   8.7272283  68.3820763
   1.5168690   7.4022456  68.3406161  37.3311114  54.6069574  31.9954324
  37.2128081  53.6584425  31.9448256  36.4449644  54.9536467  32.0992494
   3.2865572  10.3427955  58.9394311   2.7160287  11.0642072  59.2045705
   3.4040999   9.8251983  59.7359924  23.3900476  15.0493264  21.4719582
  23.6258364  14.5419407  22.2486138  24.1938257  15.0805092  20.9531164
  86.1879181  68.8138039  65.8978177  85.5498194  68.4720714  66.5241427
  85.6590341  69.1287787  65.1648079  37.7576637  30.4921937  17.0592427
  37.1298790  30.6696677  17.7596867  38.3709168  31.2262464  17.0955837
   9.5771378  74.6631575  24.3027210  10.4223669  75.0709200  24.4912672
   9.5221817  73.9309072  24.9167442   5.8397543  63.1524706  29.4863939
   4.9123955  62.9540682  29.3564987   6.0996681  63.6148119  28.6895752
  43.4615612  52.4738026  29.0856266  44.2740822  52.0276451  28.8469028
  42.7865934  52.0358992  28.5670805  32.0738554  36.7696977  28.5168505
  31.2892127  37.2882271  28.6948800  32.8003550  37.3723340  28.6757874
   1.4255834  58.4874439  18.0159128   2.3338056  58.6525917  18.2690835
   1.2325120  59.1608858  17.3636603   0.7592818  47.8516865  28.3806396
   1.7079715  47.7244616  28.3864355   0.4515659  47.3255014  27.6426196
  35.5807686  33.0193520   3.8349771  35.4681253  32.0704317   3.8905969
  36.5292096  33.1473327   3.8173199  39.9974275  26.0261464  21.5069985
  40.0061703  25.7718086  20.5842495  40.1601553  26.9693589  21.4970183
   7.7531999  51.8458700  40.3489780   7.6082510  51.3821697  39.5242333
   6.8754637  51.9764137  40.7078218  33.3025146  65.4545927  12.6697135
  33.8480639  64.9970341  12.0299888  33.9221215  65.7847500  13.3203411
  73.5583878  40.8054829   6.1340958  72.8551149  41.2057543   5.6228024
  73.7517405  41.4463806   6.8182749  18.5366309  66.5745687   9.6230674
  18.0407417  66.8572187  10.3914654  18.7651587  65.6634951   9.8073184
  43.9680386  26.8188238   7.9710710  43.5507917  27.5729823   8.3874601
  43.2526064  26.3648939   7.5257218  28.8756299  53.3959198  38.3656716
  28.0977869  53.6440516  37.8660512  28.8627863  52.4388123  38.3691978
  45.0579119  51.6424656  36.5200090  45.2462196  51.0423422  37.2415543
  45.0208855  51.0814524  35.7453322  43.5718060  47.2181273   7.8212130
  42.9696655  47.4783754   7.1241271  44.3187094  47.8090715   7.7255398
  28.1384444  49.9335670  41.0902548  27.6380563  49.5934820  40.3485107
  27.9289818  49.3410969  41.8122911  30.7150865  30.6873846   3.4348255
  31.5602350  30.3141546   3.6851349  30.6347251  31.4777565   3.9687601
  15.6585168   8.3281537  70.4312293  16.1010885   8.7888118  69.7183794
  14.7277689   8.3944436  70.2178232  74.6311140  11.6865277   8.6175072
  75.1211333  11.9250357   7.8305972  73.7132382  11.7235684   8.3485037
  18.9552438  17.8102386  34.6732616  18.1494188  18.3224940  34.7401333
  19.3583655  18.1035101  33.8561201  40.9085083  78.0352402   6.9370407
  40.8794641  77.6424980   7.8094763  40.8367729  77.2925043   6.3375163
  49.8598385  57.8465366  12.2531629  50.6541681  58.0463457  11.7578340
  50.1358080  57.1916342  12.8943896  25.2785039  56.4051962  16.3132048
  25.5531931  56.9092131  15.5472100  25.8627343  55.6470346  16.3231480
  36.0448265  32.2254729  19.0191126  35.3607702  32.7021194  19.4893301
  36.4001369  32.8641701  18.4010088  28.0207204   3.7531539  57.1959786
  28.4937524   2.9741880  56.9032649  28.3070755   4.4453021  56.6000192
  85.1783330  41.7311287  22.0795226  84.8378413  42.3334026  21.4180350
  84.7524809  42.0027447  22.8926086  65.2237629  41.7231818  48.7493340
  65.0353669  41.2183734  47.9581921  66.1787146  41.7844840  48.7726013
  69.8094559  79.1687346  31.3542295  70.5528069  78.5664511  31.3844037
  69.3342733  79.0037107  32.1686006  47.9158020  51.8811703  40.6900167
  48.3222055  51.0704517  40.9962940  46.9753361  51.7247868  40.7754421
  34.3803287  45.9182644   4.0001762  34.5212889  46.8490887   3.8271734
  33.9787316  45.5837393   3.1982753  24.8286152  11.5036142  14.0596104
  24.6629667  10.5608809  14.0528309  24.1792917  11.8652320  13.4564149
  43.2188511  24.6946645  31.8080425  43.5976124  25.2975821  31.1683059
  42.6450157  25.2428198  32.3432732   7.2579169  39.2271447  49.2950678
   7.2614664  38.7521458  50.1260900   7.3379272  38.5446286  48.6287355
  12.9814661  69.2144012  13.2118475  13.1013691  68.5895586  13.9269888
  13.4963679  68.8538933  12.4899471  43.7862253  39.1869092  22.8431630
  43.2147217  39.8592043  23.2141566  44.1628599  39.5960069  22.0640516
  42.0518064  81.5459442  26.8536472  41.3521910  81.3376808  27.4728417
  42.6252747  82.1442604  27.3325801  19.3378294  48.0427074  15.1690865
  20.1072502  48.5714769  15.3803420  19.4350231  47.2543287  15.7031643
  81.0262924  72.8342533  27.1231508  80.2386826  73.2002354  27.5255942
  81.0515898  71.9271994  27.4278593   4.3616939  80.0393486  15.1456261
   4.7647482  80.2936649  14.3155038   3.5325527  79.6322870  14.8945189
   9.9459457   9.3579286  15.7262802  10.4541159   9.1876531  16.5193760
   9.0944445   9.6554548  16.0466790  84.2469218  18.8962615  39.5556235
  84.2066934  19.2757165  40.4334784  84.9246400  18.2230449  39.6165180
  57.7796125  53.5709429  17.2385240  57.3802757  54.2081404  16.6462874
  58.3448887  53.0420971  16.6754830  49.1250801  53.9803314  24.1445088
  49.8755932  53.3924818  24.0584850  48.3734703  53.4492493  23.8813186
  66.1702180   3.4688414  30.8717084  65.4651833   2.9227866  30.5238938
  66.2435079   4.1912879  30.2480626  32.4511933  44.8066282  21.7898226
  33.1646943  45.1998854  21.2873340  32.1352649  44.0913773  21.2377024
  41.7500782  41.4776611   2.1762016  41.8365479  41.3219261   1.2357221
  42.0475340  42.3792744   2.2980197  71.0353624  70.8160173   6.5590882
  70.7171308  69.9221026   6.4330804  71.9584142  70.7792210   6.3083822
  28.2916093  37.4340677  11.1580348  29.2145228  37.1831942  11.1189771
  27.9394388  37.1854091  10.3034139  43.7453175  32.7878523  32.6261306
  43.1217337  32.7921510  33.3523250  44.1839981  33.6367702  32.6820946
  36.1958671  11.1477339  29.5893407  35.3942776  11.5044904  29.9719787
  35.9953356  11.0532737  28.6581612  81.8866768  23.4629965  23.1027389
  81.5257370  23.6796761  23.9623928  81.5434622  24.1412354  22.5209904
  44.6688461  17.4988651  21.0955667  45.0396442  17.3684287  21.9683361
  45.3910875  17.3071074  20.4973793  47.4563694   8.0240148  16.2878740
  47.1065855   8.3446658  17.1191788  46.8115377   7.3833627  15.9878826
   0.5616059  73.6980104   4.5551443   1.1449936  72.9892778   4.8264226
   0.0124798  73.8628674   5.3216386  21.4748001  66.0763311  22.7149057
  21.8888068  66.8876076  23.0092978  21.7925596  65.4103422  23.3245897
  14.9382484  32.2573090  24.9494624  14.2692709  31.8958998  24.3680120
  14.5266569  33.0295920  25.3372788  25.9380341  33.2873368  22.4394584
  26.6822338  32.8464389  22.0295691  26.3209701  33.7769699  23.1673670
  80.8533024   6.5936220   8.1193769  80.3907960   6.1791605   7.3909944
  80.7565438   5.9779561   8.8458931  17.5778639  58.2872152  20.6166959
  16.6576695  58.4916353  20.4503059  17.7177119  58.5383892  21.5297055
   4.3026710  41.1682606  33.1637883   3.7277314  41.8192005  33.5662270
   4.9197096  40.9327221  33.8566208   0.7553577  66.7951488  11.3820386
   1.5776441  66.6425323  10.9164369   0.1912906  67.2231770  10.7379508
  31.5729880  51.1831379  35.8021736  31.0920954  51.1932230  34.9746037
  31.7750597  50.2593422  35.9505177  16.8578052   2.4739333  36.1642353
  16.5387916   2.4197456  37.0650808  16.2029028   2.0024034  35.6494562
  24.1584849  35.5798888   7.9367876  23.4785342  35.9522486   7.3753196
  24.2416906  36.2036777   8.6580348  80.4934924  55.6988859  62.6438618
  80.3515440  56.3658285  61.9720936  80.3273773  54.8691463  62.1964598
  39.9980414   3.3294238  21.3239694  40.4575873   3.0746974  22.1240711
  40.2382958   4.2464484  21.1913848  21.6000295  68.7582779  33.9015794
  22.0990849  68.0714273  34.3436289  20.8628583  68.2981443  33.5002279
   0.3639721  42.4335051  39.8511028   1.3126576  42.3727083  39.7391605
   0.1057151  41.5718842  40.1784229  22.7436233  54.2224360   3.9009228
  22.6350713  53.7409019   4.7210258  22.8218079  53.5420370   3.2322115
  10.2956295  41.4077520  15.0079143   9.3920445  41.1307430  15.1596808
  10.8272243  40.6905413  15.3532386  13.1444180  58.2800293  17.9842401
  13.0845261  58.0515385  17.0566428  12.2363353  58.4081554  18.2584679
   5.1597255  51.0502672  36.1658645   5.4619652  50.7124519  35.3227973
   4.2467335  50.7685423  36.2233806  39.4942832  76.9787645  27.2278500
  38.8629055  76.3828325  26.8247867  39.1231656  77.1748161  28.0881214
  34.0148592  72.4189425  19.8698604  33.8334560  71.5574360  20.2455401
  33.5709262  73.0334044  20.4543209  83.7971013  38.1370044  36.8392563
  83.5503906  37.8932333  35.9471011  83.3990764  37.4631834  37.3904109
  47.9528618  51.5943718  36.7260337  47.0251942  51.6581392  36.9531727
  48.1472015  50.6582928  36.7731977   8.3650875  31.5708804   5.9500748
   7.9012614  30.7624102   5.7321870   7.8415149  32.2634530   5.5470318
  33.0454254  61.5847445  29.7261333  33.3623004  60.6860113  29.6361399
  32.9858088  61.9088078  28.8274360   2.5097364  26.8989205   2.8235745
   2.8386134  27.6017618   3.3840060   1.5805098  26.8322492   3.0434030
  18.2841885  44.3774366  19.1140687  17.6049602  44.9434137  18.7472582
  17.8800774  43.5104513  19.1496480  60.2469883  18.6689111  61.0688232
  60.4816370  19.5788213  61.2511353  59.3552872  18.5795184  61.4051412
  72.1658777  74.0669043  65.0959031  71.4314388  74.0986712  64.4828586
  72.7868341  74.7129948  64.7594361  23.4815454  52.1509647  21.2146258
  23.1578445  51.2524605  21.1502814  24.3507767  52.1215963  20.8148670
  25.5116248  60.9402514  23.2497549  25.0087929  60.3733969  22.6648903
  24.8526192  61.3544655  23.8068628  72.8760551  79.4353564  59.1853170
  72.4100422  79.0961702  59.9495260  73.7221693  78.9881237  59.2027800
  15.9912109   8.5572835  62.9818146  15.7446718   9.3716689  62.5433765
  15.6025505   7.8680917  62.4431221  12.9220748  39.2957568  58.5005045
  12.7553511  39.8259664  59.2798042  12.0566022  38.9896441  58.2294226
  46.6777611  55.3911257  25.7793260  47.4504089  54.9619865  25.4117823
  47.0265388  56.1423540  26.2591624   4.9857545  14.1242922  51.4316368
   5.5217862  14.7857893  50.9942293   5.3088498  14.1116274  52.3325682
  67.3610950   2.0568598  36.6504216  67.8008676   1.7266406  37.4338651
  66.8281937   1.3218440  36.3471127   7.8365880   9.1628927   3.1565136
   8.2187963   9.8440403   2.6031721   8.5656828   8.5731441   3.3484757
  18.0364776  55.2259970  25.1588106  18.9702058  55.0189209  25.1200366
  17.9060435  55.8745384  24.4669938  44.7876692  51.6170835  24.0549135
  44.6066427  52.2744799  24.7266936  44.0152454  51.0517645  24.0587115
  44.6245098  24.2811084  19.5837462  45.1925659  23.6624122  19.1246605
  45.0819063  25.1194763  19.5192540  55.4455233  27.2150874  17.0466149
  55.7354879  26.3110161  17.1682942  54.6748686  27.1456599  16.4831412
  43.8834858  48.3886337  14.1952109  44.0889359  49.1469860  13.6484718
  44.5810223  48.3697319  14.8504341  81.6951727  13.2283517  55.7326297
  80.7623171  13.2556077  55.9454028  81.7539739  12.6273748  54.9899320
  14.6279633  41.5671968  11.4080930  15.0316942  41.3091469  10.5794537
  13.6869538  41.5390158  11.2350619  19.4630253  60.9984636  19.9761176
  19.1288555  61.4821148  19.2207074  20.1194835  60.4059029  19.6098268
  82.9180234  14.0696001  21.9410348  82.0299583  13.8500595  21.6593003
  82.8323069  14.9277949  22.3562288  20.6562948  28.4861088   3.5886577
  20.4881167  29.4244599   3.5023758  19.8401558  28.1275749   3.9373702
  41.2268209  47.8252459  29.5988417  40.7486296  48.6314678  29.7926879
  41.4230061  47.4507618  30.4576230  15.5228972  14.7615254  12.7472401
  16.3023984  15.3108382  12.6643729  15.8629036  13.8676119  12.7865541
  17.5279367  24.0954065  32.8102589  16.6291440  23.7845373  32.9187226
  18.0708921  23.3738589  33.1277490  48.0684233  33.4414554  17.4692571
  48.7972736  34.0612125  17.4390697  47.3051262  33.9794326  17.6794684
  37.0436049  29.7783852   1.5322414  36.7809343  29.1724682   0.8393481
  36.9761848  30.6448126   1.1310077  18.1409657  38.4663105   9.5778859
  17.4873865  37.7670264   9.5698583  17.7011454  39.2099667   9.1658580
   9.4958442  62.9598141  31.8163562  10.3925216  63.2353926  32.0067692
   9.5683515  62.0249748  31.6238713  59.9439240  25.6353545  16.2295651
  60.5632830  25.8271646  15.5254114  59.4683790  26.4557123  16.3603342
  23.9557552  41.6096783  30.8200645  23.8545084  40.6735945  30.9924769
  23.2982469  42.0280695  31.3758159  51.4900278  56.9345565  70.1241550
  51.6376303  57.0805557  69.1897408  52.3439144  56.6647120  70.4622270
  79.8751736  42.9446840   5.0354707  80.8271122  42.8571558   5.0841862
  79.5401478  42.1369648   5.4248089  19.0309775  29.7341371  21.9237852
  19.0625572  30.6058145  21.5295625  19.4504321  29.8419857  22.7774000
  45.7362223  43.9511013   6.3719642  46.0284138  43.0838156   6.6524470
  45.8311701  44.4993305   7.1508509  20.5141688  16.5652216  25.1397991
  20.9119749  16.2434329  25.9487677  19.8048628  15.9482134  24.9597621
  34.2122197  62.2416592   4.6164000  34.0422964  61.3027477   4.6925908
  33.4697366  62.5795746   4.1156361  38.3471799  23.4147668   0.3490614
  38.3125806  23.1564808  -0.5719834  39.2777920  23.5551906   0.5236374
  47.0930910  56.0218096   0.4669247  46.6080904  55.7209730   1.2353654
  47.3239517  55.2187967  -0.0000891  51.7085600  53.9084387   1.4924595
  51.5983343  54.7973728   1.1549997  51.3706684  53.9482832   2.3871511
  51.6173363  58.9983034   8.5679680  52.0262480  58.6907578   9.3769425
  50.7305956  58.6389589   8.5961813  11.7481613  56.5129566   2.3112324
  11.4542389  55.9320545   3.0129403  11.3365817  56.1619425   1.5215339
  39.6264982  23.5280895  15.5321193  39.8271561  22.8647828  14.8718202
  40.3131437  24.1865706  15.4265082  34.5870590  35.6679940  25.8941793
  33.9232421  35.0253129  26.1442590  35.0883174  35.8188152  26.6955662
  70.9645485  33.0349326   2.8192574  70.4665553  33.8384461   2.9695845
  71.8729472  33.3268714   2.7430084  48.2530165  48.6553764  37.1931243
  49.1092014  49.0674543  37.0774651  48.2529306  48.3542204  38.1017137
   9.6049523   8.3924504  64.1845850   9.3821573   8.4531995  65.1135109
   9.4202613   9.2647525  63.8364403  40.9218931  33.4654093  20.9750104
  40.3057241  33.5336733  20.2456880  41.4927006  34.2277002  20.8784628
  46.2346077  45.3854752  21.0443807  46.2646818  44.9012327  20.2192545
  47.0194721  45.1053047  21.5152597  37.1647501  57.7615595  20.5705976
  37.1705818  57.0679760  19.9109495  36.2399578  57.8763676  20.7892561
  15.7438040  64.4871426  35.7845831  15.8698165  63.5544538  35.9590721
  15.1196110  64.5129395  35.0593591  33.6855316  79.8516703   7.7361351
  32.7736115  79.5653391   7.7875906  33.9597416  79.6195936   6.8489027
  66.3176823   6.4650954  35.2615047  66.2754560   7.3404730  34.8765802
  66.7373991   5.9279574  34.5895290  28.6533260  16.6891166  59.1132502
  27.9361248  16.2419912  58.6638777  29.1668987  17.0854541  58.4094088
  26.6445494  65.5764389   9.2411453  26.9327950  65.6830215  10.1476693
  27.3778248  65.8989096   8.7171710  84.9460982  32.0166942  61.9944863
  85.2858805  32.7869865  61.5390394  85.0636267  32.2163554  62.9232244
  39.7347784  58.3681870  37.4058986  40.3186226  58.5043097  36.6596889
  38.8988471  58.1167030  37.0132113  61.9866705  64.5804691  30.2904153
  61.9207859  63.7548971  30.7703400  61.5237665  65.2138948  30.8387947
  67.8138494  54.8643255  32.2798800  66.9822502  55.2968597  32.4737525
  68.3441401  55.0020218  33.0647755  85.6112074  22.7213117  41.2023680
  86.1677598  23.4916183  41.3168590  86.0430717  22.2137996  40.5152313
  46.9333124  54.0831824  70.5429588  47.8127956  54.3843337  70.7710884
  46.3847875  54.8635837  70.6224728  39.0462399  42.0193529  34.2532635
  38.2008886  41.6525602  34.5122528  39.6653318  41.2983322  34.3676400
  47.3297108  19.8349608  29.3002486  46.4879704  20.2704848  29.4344974
  47.9717040  20.5447901  29.3150020  55.6452036  58.8437700  39.0973377
  55.6048584  57.8887272  39.1473699  54.8100519  59.0985537  38.7051201
  63.5608292  47.7984953  16.0921776  63.8967657  47.5140095  15.2422106
  64.1844416  47.4452114  16.7266273  42.5088406  47.5845289   2.2475185
  43.3804512  47.2006369   2.1518660  41.9742918  47.1303511   1.5962015
  85.5207348  51.7440319  41.0623837  86.2474346  52.3169327  41.3071871
  85.8471966  51.2515450  40.3093147  32.5763011  64.0212822  21.8786716
  33.4101868  64.1723394  22.3236990  31.9184566  64.3796587  22.4745226
  62.9897069  29.8813172  59.8207991  62.7890708  29.2976876  60.5524747
  63.9385670  29.8141690  59.7140912  48.5750151  25.3507209  15.8503795
  48.2656574  24.4693136  16.0593104  48.6596298  25.3551221  14.8969364
  72.1469927  27.5296330   3.3444169  71.7733717  28.3797431   3.5766914
  71.5795517  26.8921399   3.7778354  71.3397885   3.1932105  14.1464794
  71.9882727   3.3431948  14.8343813  71.7988921   2.6614130  13.4963632
  31.9639087  24.0275860  13.1278396  31.9948411  23.6426759  12.2519863
  32.7981949  23.7813282  13.5272825  44.4923114  22.4035474  61.9457333
  43.8784122  21.6774388  61.8356119  44.5103883  22.8336593  61.0908012
  16.9156182  59.0795040  26.0144711  17.0890677  59.0106630  26.9533038
  16.6929817  60.0005293  25.8789396  41.4442730  71.2778711  46.1649609
  41.5646410  70.5450535  46.7688799  41.8222761  72.0292950  46.6218042
  16.3116658  53.9586496   9.3434364  16.4028776  53.0178595   9.4945133
  15.5464685  54.0366602   8.7736815  71.4844584  47.0406791  69.8427301
  71.5197956  46.4739867  69.0721209  71.5574311  46.4405891  70.5848842
  23.0925059  62.1079922   4.9896592  23.9436364  62.4939156   5.1967132
  23.0627465  61.3025475   5.5060017  37.0560837  59.9371767  22.3578930
  37.4786139  59.2212677  21.8833637  36.1814618  59.9960423  21.9734406
  21.4815259  79.2092514  39.7362280  21.0315204  79.5668030  38.9707971
  21.2546802  78.2793188  39.7347188  39.8360300  58.6880350   1.9725227
  39.5359397  57.7863646   2.0872600  40.1027060  58.7367249   1.0545120
  70.1149893   7.8248251   9.1214311  69.9617768   6.8836153   9.0384895
  70.4485989   7.9356421  10.0117421   8.3100176  11.4993211  50.2549355
   8.8307523  12.1300527  50.7521717   7.6871681  11.1483117  50.8913950
  36.0492253  62.7484989  23.5208035  36.5609527  62.4866009  22.7554440
  36.4850712  63.5380363  23.8415909  42.2917175  54.0861845  31.1051750
  42.8655529  53.6421585  30.4808497  42.8225279  54.1756058  31.8966770
  61.3786364  35.3324342  10.5388427  60.9334135  35.7387424   9.7952533
  61.4699888  36.0387349  11.1783934  83.2510873  48.9013338  31.4251256
  83.5622838  48.1737566  31.9636559  83.8656947  48.9368010  30.6921649
  65.5992459  75.2313430  62.6713542  64.6905421  75.5316599  62.6886086
  65.6824039  74.6750624  63.4458647  20.9233117  63.7190533   6.0062236
  21.1618853  62.8138924   6.2062097  21.4678144  63.9495420   5.2534795
  65.6228471  17.1868170  12.4165559  64.7842503  17.3954428  12.8282106
  65.6361223  17.7155150  11.6187239  21.2910652  49.6620703  23.9159918
  21.1103702  50.5926466  24.0487075  20.5133581  49.2167377  24.2522669
  42.3455048  55.0738859   1.7754640  42.2217560  55.7748175   1.1354563
  43.2785940  55.1044464   1.9867341  50.8998108  74.0478945  -0.1195809
  51.5262222  74.1121960   0.6013245  50.9174776  73.1243563  -0.3705726
  42.2960615  50.9402704  31.1382961  41.3974762  50.8287287  30.8279252
  42.7026510  51.5178013  30.4922509  19.9586248  57.5365114  16.8266463
  20.8649397  57.4739504  17.1281612  19.9062550  58.3924055  16.4012825
   8.1902879  75.0688934  16.0393536   7.8099787  75.0592661  15.1610005
   8.5083592  74.1759443  16.1724329  38.0958104  51.4642239   0.9674986
  37.3221540  51.9416475   1.2670842  38.8181949  51.8378973   1.4722370
  51.5025854  77.3831654  24.8280525  50.5776405  77.4547005  25.0638342
  51.9495630  77.2201109  25.6586289  54.5128202  49.2014170   7.7937722
  53.8356590  48.6657429   8.2069749  55.0084639  48.5860777   7.2534758
  50.6581545  65.9912252  27.5333118  51.5676498  66.2853527  27.4829340
  50.7192087  65.0436211  27.6539230  81.6056872   6.9796790  20.5240726
  82.4230099   6.5148200  20.7033062  81.0885954   6.8714655  21.3222814
  55.4909182  75.3282785  41.3793087  54.9491596  75.7255316  40.6974602
  55.9420300  74.6086597  40.9378576  76.9402933   7.3480738  34.8748374
  76.8504811   7.8399504  34.0586162  77.8523398   7.4789370  35.1342225
   8.4111387  46.3374615  34.2501497   8.6521816  46.7860460  35.0606441
   7.6954132  46.8613052  33.8902116  51.0935068  48.8837051  19.8001921
  50.3177595  49.4413328  19.7410679  51.4525366  48.8779593  18.9128947
  76.5053296  32.7340031  25.6995344  76.5254592  32.3209429  24.8362780
  75.7236802  33.2862425  25.6826425  24.9289155  53.4848690   6.2919348
  25.2756310  53.8448048   7.1083093  23.9795566  53.4851217   6.4141929
  50.2201080  54.4575548  29.5722008  49.9952602  53.9512873  28.7915802
  49.5109463  54.2749023  30.1886106   3.2592893  66.9807053   9.8643774
   2.7731157  67.7581215   9.5896316   3.5879446  66.6030169   9.0485525
  40.8947515  70.8021736   6.6621816  40.4222393  69.9902391   6.8458343
  40.6320906  71.3963985   7.3651320  41.3724947  46.3443708  26.5721655
  41.2507439  46.0220623  27.4652100  40.8152962  45.7802916  26.0359049
  60.4145098  74.4008255  23.1680465  60.5837011  75.2719116  23.5269570
  60.6342888  74.4775009  22.2395802   3.6955220  69.7986031  19.5540547
   4.1916865  70.6119490  19.4617403   3.1553185  69.9346161  20.3324580
  54.7215414  69.9217701  27.6705503  54.2519188  70.6639910  27.2900414
  55.1073122  70.2692366  28.4747171  55.9189653  45.2174520   4.3320087
  55.9553766  45.4459524   3.4031957  55.7354069  44.2780542   4.3405417
  69.8313284  34.6234894  10.3651738  70.7327843  34.8628426  10.5803955
  69.3268490  35.4208636  10.5261815  55.5610371  22.9026270  24.4920850
  56.3214731  22.3277497  24.5786023  54.8915148  22.4989033  25.0443363
   1.4626288   1.6504022  66.9716270   1.3695168   1.9436427  67.8780336
   1.5494108   0.6992742  67.0353149  51.4794445  61.0380602  34.5940375
  51.3656187  60.4380989  35.3311396  50.6247997  61.4568472  34.4919014
  40.4251623  21.2700367   2.9543492  39.7251987  20.9444642   2.3884122
  41.1844969  21.3460755   2.3765424  80.5159997  37.8731652  68.1169157
  79.6234845  37.8685352  67.7710415  80.5703997  37.0800086  68.6499975
  47.7019072  61.6838408  12.5517941  48.5260677  61.7470455  12.0690966
  47.8228617  60.9346676  13.1351769  22.1885729  64.3910265  24.8900580
  23.0699205  64.6890974  25.1150274  22.2673750  63.4394312  24.8230696
  34.1632915  76.9178104  35.4424548  33.5458040  77.6024294  35.6998253
  33.8307261  76.5983057  34.6036768  46.9437361  44.2318630  18.7056124
  47.8155184  44.2587614  18.3112669  46.8907452  43.3662701  19.1107893
  24.5728850  61.0748005  45.4541397  25.2135801  60.3641176  45.4282522
  23.7568259  60.6725311  45.1567221  17.9331756  73.9006901  36.5319180
  17.0555079  73.9582872  36.1542749  18.4219384  73.3511448  35.9192657
  37.3485422  63.0173874  16.3286364  36.9013929  62.1740866  16.2570310
  36.9681382  63.4248829  17.1067572  46.6028643  50.2703857   5.8529383
  45.9177017  50.8529520   5.5252194  47.3838997  50.5166769   5.3574008
  56.7625618  20.0649107  18.6177778  57.5646091  20.4428709  18.2570899
  56.7833567  19.1491354  18.3400047  58.5147715  57.4131346  45.0025511
  58.1412792  56.5318394  44.9952698  59.1736746  57.3997688  44.3083620
  68.0311012  71.5258503  29.7442174  67.4349308  70.9971285  29.2138743
  67.5497103  71.6886044  30.5553913  19.7369361  42.6118565  30.7346582
  19.7399259  41.8689108  30.1311183  20.6439662  42.6823378  31.0322499
  48.6529779  70.3462124  11.9362545  48.1871700  69.5362234  11.7284799
  47.9661512  71.0108852  11.9882834  32.3350358  42.6571846  17.4507475
  31.6614580  42.9113865  18.0815446  32.0495939  43.0481243  16.6249609
  30.2499580  76.7199870  66.3666309  29.6181297  77.0935031  66.9810505
  30.2515173  77.3267051  65.6262748  32.0712042  54.8901653  32.5290823
  32.1855402  55.7628059  32.9054570  31.2183595  54.5997381  32.8524089
  28.5062194  29.2633390  17.3839748  29.1440988  28.9516497  18.0259955
  28.2680583  28.4823751  16.8843651  24.7667408  56.1522532  41.9600582
  24.6942759  56.0865498  41.0078716  25.5554390  56.6749907  42.1047401
  14.0439081  68.1864500  60.5441332  13.0915296  68.2323503  60.6283855
  14.2878699  67.3895121  61.0148764  23.3457422  62.3721361  20.8560681
  24.0990591  62.9382372  21.0242271  23.4974289  61.6024065  21.4044619
   0.8583498  10.2716514  69.6458172   0.2756214  10.2585241  70.4050846
   0.6281685  11.0761996  69.1811146  75.0181674  55.4598495  48.1625859
  75.1992189  56.3683959  47.9217569  74.0667068  55.4230949  48.2605831
  29.7619605  38.9498782  17.3926687  30.0552893  38.2782388  16.7769670
  29.0462422  38.5362482  17.8752565  54.8471260  40.0087309  15.7536697
  55.5656242  40.2887344  15.1865816  54.3510675  40.8092928  15.9247160
  68.5860538  58.2017374  28.7731528  68.9760065  58.4562302  29.6094561
  67.6796770  57.9819107  28.9885402  38.3203650  60.0322294  34.4767046
  38.5520363  60.2670574  33.5781407  38.5837841  59.1157913  34.5602655
  13.9361417  68.4457064   2.1530102  13.3054268  68.3231783   1.4434913
  14.7280085  68.7614250   1.7176929  29.7971392  56.4266348  38.2273698
  29.7798657  56.6941071  37.3084617  29.2600775  55.6348324  38.2564831
  48.4563351  67.0634127  30.6120610  49.0668011  66.3287115  30.5505896
  47.6963425  66.7868137  30.1000690  76.9059491  60.2232695  39.3385029
  76.3160991  60.4731417  40.0497484  76.3256645  59.9072409  38.6459494
  67.3610042  80.6000431  60.7739036  67.6386975  81.5137847  60.8386759
  68.1027626  80.1525791  60.3667192  28.7353516  74.9430037  32.6816058
  29.1652894  75.3297663  33.4443641  29.3769717  75.0278330  31.9763684
  16.6087496  77.1644831   5.7018113  17.0510840  76.7115164   4.9839026
  16.9303286  76.7314100   6.4925468  20.1382064  22.5591489  55.1592462
  20.0490284  23.5112401  55.2017109  19.4135522  22.2753307  54.6019749
  30.6666684  46.8981361  22.2509408  30.4647017  47.0070887  23.1802249
  31.2541270  46.1430216  22.2204447   2.7701640  41.9922801  38.7701933
   3.0655360  42.7368995  38.2462351   3.0314326  41.2237712  38.2628791
  28.7645197  71.5355968  30.7742357  29.6718955  71.6723919  31.0466123
  28.8092351  70.8154535  30.1452446  67.2761846  32.1432627  28.1199431
  67.1367097  32.4297560  27.2173357  66.4205480  31.8217600  28.4041071
  33.2912803  49.5218277  12.1997154  33.5656428  49.9656725  11.3972473
  32.5431108  50.0311279  12.5113070  29.3649387  67.2389555   9.1433418
  28.6814690  67.1566486   9.8084176  29.4435787  68.1814861   8.9960867
  44.2608309  60.6349850  14.8258603  44.2931271  59.6994543  15.0257850
  44.4965219  60.6902790  13.8997805  26.9096851  57.7337027  18.4383464
  26.0844231  57.8379869  17.9647422  26.7248988  58.0646658  19.3172932
  49.2050218  18.1653567  65.8442460  48.3765792  17.7959796  66.1499809
  49.5971155  17.4697419  65.3164081  21.7205644  46.9031382   4.7986278
  21.7031240  46.8934679   5.7556200  21.4167857  46.0316515   4.5447236
  51.7429781  34.7436595  13.6594236  52.4052620  34.6299291  12.9777503
  51.0658789  34.1019630  13.4449637  38.6722088   6.4098760  68.6556668
  38.9120578   7.0788785  69.2968668  38.4123897   6.9049665  67.8787447
  33.4028482  58.1267357  38.3596754  34.2465615  57.8574371  38.7227988
  33.5295725  58.0964088  37.4113870   6.4969873  37.6292372   4.3512881
   6.4819664  36.7047572   4.1036096   7.2298980  37.7015066   4.9627215
  51.2162018  51.7924345  11.5746748  51.9491768  52.1570433  12.0707011
  51.5170098  51.7951621  10.6659722  44.1031790  53.7702847  25.7336593
  44.8798084  54.2916346  25.5305004  43.9442968  53.9297628  26.6640115
  35.8906746  36.4863034  70.1178069  35.4212141  37.3108407  70.2442014
  36.1901855  36.2444469  70.9941803   5.7005548  81.0958576  12.4215519
   5.6924391  80.3692436  11.7985010   4.8726150  81.5513706  12.2690666
  33.1986690  55.8054447   4.9115092  34.1104031  55.9673071   4.6690756
  33.2081342  54.9363279   5.3124869  77.2603773  57.3695060  63.7634454
  76.9486486  56.6640636  63.1965194  77.9460215  57.8011485  63.2537274
  41.8386078  52.0119858  35.3165531  41.5499258  51.2261200  34.8525429
  42.5435257  52.3652172  34.7738266  41.4298487  60.1486635  31.5456367
  40.7187271  60.0375986  30.9146047  42.1969271  59.7772694  31.1098766
  44.5866489  60.1979733  34.2771077  45.4246712  60.4919529  34.6342206
  44.7795773  59.3475008  33.8825130  29.8625421   4.5666190  46.4283721
  29.3632650   4.4471379  45.6204860  29.2209291   4.8899385  47.0608513
  65.1944923  59.4815922   8.9803088  64.7882557  58.7582493   9.4577777
  65.2169561  59.1852999   8.0703968  28.5097694  71.1006832  39.4677186
  28.1923199  71.1478138  40.3695154  29.0693521  71.8711376  39.3702102
  22.8337240  60.9610271  11.7595923  21.8980980  60.8065510  11.8898714
  23.1829166  60.1091814  11.4975739  34.7492313  37.5464153  15.8544731
  34.0836310  37.4094725  16.5286052  35.2658296  38.2858992  16.1746693
  24.2283654   8.7451220  13.1192183  23.5609484   8.8833869  12.4471569
  23.7814641   8.2433504  13.8009334   9.3831193  71.3615322  35.2956867
  10.2168071  70.8920813  35.2671552   8.7250960  70.6928730  35.1056075
  46.1905336  55.0005054  22.6720023  46.5051842  54.1697216  23.0284023
  46.5795708  55.0492001  21.7987823  16.5949035   2.6947535  40.9433126
  15.7147146   2.6481188  41.3165808  17.0720745   1.9801272  41.3650370
  43.6803293  58.4222984   5.3205520  43.3592892  58.9264965   6.0681838
  44.5553017  58.1360435   5.5826718  40.3571796  56.7583227  39.3463349
  41.1389589  56.3036966  39.0327001  40.0733709  57.2883797  38.6015391
  47.5568056  66.5687084  12.7520871  48.4962606  66.6986561  12.8815854
  47.4751377  65.6500101  12.4960387  42.3747110  69.8512268  23.8589549
  41.4484262  70.0773335  23.9432693  42.4359941  69.4028664  23.0154800
  76.4627671  50.4818153   4.5223892  77.1133852  49.7899199   4.6415883
  75.7094800  50.0377417   4.1330415  64.5664835  30.3110385  19.4793856
  63.7624550  29.8973942  19.1652656  64.6199369  30.0609159  20.4017806
  43.0361080  33.2734776   4.4357005  43.3325672  32.3949218   4.6733698
  42.1180105  33.2975912   4.7054160  33.3797526  59.0115213  32.6129889
  34.3055558  58.8687801  32.4161506  32.9257679  58.7968874  31.7980886
  59.7235918  18.4231986  10.2426589  59.6504236  17.8863085   9.4535905
  60.0327564  17.8177393  10.9165001  32.4435806  20.1224375  34.9078250
  32.9665613  19.6011496  35.5169082  33.0743909  20.7115293  34.4939637
  26.2643504  54.2341042  27.2069836  25.7136869  54.3969774  27.9727983
  27.1564555  54.2140388  27.5533557  38.8090669  66.9670518  69.5514272
  38.7149220  66.1173899  69.9820614  39.0734123  66.7539914  68.6564639
  44.2164230  42.0773125   4.1031742  43.5876083  42.5004578   4.6877879
  44.6020031  41.3784838   4.6315646  46.6951942  58.7785149  20.7845783
  46.9497013  58.7582827  21.7071009  46.7844391  59.6973562  20.5315948
  60.1940203  29.2065239  13.7020075  59.3020296  28.9604712  13.9470458
  60.5235100  28.4542131  13.2103789  48.1314338  21.7439784  38.1261253
  48.1391895  21.7352522  39.0832543  47.7723599  22.6012648  37.8973126
  27.4988390   5.6523074   9.9423879  27.8246141   4.8629893  10.3749013
  28.2438207   6.2533034   9.9479789  76.5464019  30.1052543  54.7740082
  76.4763951  31.0103151  54.4703667  77.1042608  30.1555082  55.5502157
  15.7049799  78.8673258  18.4214818  14.8283160  78.8274240  18.8037097
  15.8881783  77.9684973  18.1480253  49.1140032  53.1438923  27.3835611
  49.1951895  53.9451504  26.8662381  48.5484219  52.5767088  26.8594861
   2.8431958  29.0375185  43.0118990   3.6037064  29.4814110  42.6366472
   2.9874399  28.1110620  42.8192711  65.7250309  14.7861041  36.0084271
  66.3691974  15.2430762  35.4676366  64.9025369  14.8737563  35.5267119
  73.9837503  76.5869570  55.2440357  74.7964954  77.0893240  55.3015184
  73.3227444  77.2294903  54.9862337  32.5293851  44.2213345  12.1626604
  32.8193641  45.0239420  11.7291176  31.5818262  44.2053461  12.0280862
  62.9223394  64.1927290  23.6739659  63.2499027  63.9454412  24.5387101
  63.3097410  65.0521231  23.5078573  55.5662489  59.9342823  33.7402964
  56.1500454  60.4307270  34.3138409  54.8116398  59.7242594  34.2904615
  50.1563358  51.5075445  17.7349126  50.7477140  51.2645197  17.0225608
  49.6697903  50.7057667  17.9263663  29.9758744  38.3934879  29.5909452
  29.0464115  38.2221603  29.4393730  30.1990676  39.0784216  28.9606428
  77.7941990   8.8272227  20.3486180  78.4853316   9.2126025  20.8871818
  77.8445197   7.8887022  20.5299306  77.0353161  39.6060344  68.7049441
  77.4441575  39.4633456  67.8512926  77.3204779  38.8614246  69.2345418
  60.7352304  59.8131657  13.6239958  61.0402775  58.9860058  13.9968026
  61.1483526  59.8539543  12.7614999  36.6664981  15.0991651  63.9621494
  36.4271068  15.8538219  63.4241794  37.2747469  14.5998546  63.4172134
  85.5789109  52.7652836  24.9908137  85.0734266  52.1830320  25.5579996
  85.0994114  53.5935116  25.0094986  31.2071943  63.5430145  12.8685844
  31.6766429  62.7329779  13.0678177  31.8972778  64.1903591  12.7238035
  14.6584761  69.6688509  41.9540405  14.4282949  69.6692610  42.8831530
  15.0669670  70.5221224  41.8081093  55.8429575  45.7522678  18.5665524
  55.4982042  46.0302401  19.4151437  56.7825747  45.6439590  18.7135983
  76.8058573  27.0152541  57.1085207  76.8182968  26.8475839  56.1662023
  75.9605467  26.6746827  57.4012546  43.3778572  41.4550591  10.2760458
  42.5824261  41.4642286   9.7436565  43.1040430  41.0714197  11.1091614
  47.4551905  18.3200301  35.5667830  46.8113423  17.6366366  35.3806090
  47.1542681  19.0762557  35.0629950  52.2371578  41.2921000  21.1148453
  52.2184086  41.5559530  22.0347714  52.0421743  42.0949030  20.6313968
  67.2254658  55.1060820  25.1502109  67.9257154  54.7906256  25.7215023
  67.0823431  54.3914270  24.5297170  66.2223053  45.4391336  22.8490758
  66.7293167  45.4705095  23.6603642  65.3167009  45.3239536  23.1368923
  76.4557934  12.0610941  31.3227654  76.4305449  11.5300406  30.5267882
  75.7556486  11.7056025  31.8701720  60.3822517  58.0342817  43.2441378
  60.8977413  57.7422285  43.9959383  60.9501314  57.8788567  42.4894285
  46.9163179  72.2609615  11.4285767  47.5333595  72.8663921  11.0175443
  46.0847378  72.7349329  11.4361155  12.5215006  11.9817659  67.2435678
  13.2491970  12.2630616  66.6889833  12.1621179  12.7950927  67.5979341
  74.9340665  36.2713548  68.1805320  74.2983328  36.0551139  67.4983929
  74.6906423  37.1525737  68.4641361  51.5194273  12.4669970  10.5025935
  51.6100002  13.2810439  10.9979331  50.8796192  12.6715125   9.8206466
  46.9165993  81.7593479  20.5545950  45.9961414  81.5012074  20.5060983
  47.2735405  81.5362167  19.6949196  30.6213927   6.1757708   2.4696185
  30.5486250   5.5722046   1.7302641  30.1721215   5.7300657   3.1877649
  69.0539026  53.8468361  22.3516130  69.5143461  54.6160936  22.0162487
  69.5852375  53.1048727  22.0628214  82.3042773   4.7699138  67.4586402
  82.4214911   4.2535897  66.6612057  81.8183827   5.5438110  67.1736349
  83.6491525  43.2441378  29.4657445  82.9123199  43.6236334  29.9445891
  84.0599802  42.6478195  30.0917315  82.0501875   4.6239062  64.3747858
  81.3693356   4.2016765  64.8986153  81.8964075   4.3095418  63.4838550
  15.9929418  14.4517537  68.4324480  16.6752529  13.8451215  68.7199950
  15.8631801  15.0373288  69.1784328  23.5983229  76.6427135  49.1905165
  22.8028131  76.4080858  49.6683693  24.0529633  75.8106947  49.0590858
  31.2587070  53.7675619  36.8762422  30.5263400  53.6700821  37.4848223
  31.2226152  52.9821587  36.3302875  62.9849195  63.2373142  45.4715490
  63.9397669  63.2332802  45.4045963  62.6837206  62.9228115  44.6191406
  -0.1400018   1.2376949  46.0782115   0.4421639   1.9541808  46.3311164
   0.2533793   0.4590388  46.4721362  64.0883827  68.4377146  29.9695039
  64.3712282  68.1003380  30.8194494  64.8795938  68.4238338  29.4309592
  40.9606886  55.2676201  20.7711291  40.2379799  55.0723267  20.1746559
  40.5439329  55.3709364  21.6266227  53.3664894  42.1754313  16.1637807
  53.5016012  42.8328085  16.8462968  52.6854038  42.5480127  15.6038404
  17.5010062   7.5894202  27.3563814  16.8879509   8.1154288  26.8428516
  17.8508842   6.9528044  26.7330527  61.6033316  61.1840010   5.7399917
  61.2106466  60.3951263   5.3662169  61.1700058  61.2889910   6.5870106
  42.5874186  49.8777914  24.4888449  41.7249346  49.4629049  24.5039678
  43.1416702  49.2971706  25.0102973  35.2229714  48.4168100  19.8590720
  34.6600986  48.9556026  20.4150486  34.6162820  47.9530001  19.2819750
   2.7468896   3.1175347  54.2469935   1.9025230   3.2038566  54.6895151
   3.1474852   2.3442098  54.6441333   7.1310115  80.0797272  34.0652728
   7.6125723  80.4597950  33.3305120   6.2104726  80.2372932  33.8554811
  33.7792754  41.6867924  11.4803362  33.5178447  42.5872564  11.6728222
  34.4321370  41.7702961  10.7853329  69.2511725  46.0479212  10.2745879
  69.5694506  45.7314491  11.1200333  69.5212209  46.9657707  10.2453256
  52.1086550   0.5347193  38.5551476  52.8792000   0.0976981  38.9177799
  52.0108176   0.1603449  37.6796484  69.0692257  10.4424306  70.1796273
  69.9095558  10.2252265  69.7760183  68.8227033  11.2786361  69.7843835
  36.0461545  49.0369272  12.6751471  35.9810138  48.1123495  12.4360967
  35.1379371  49.3262100  12.7628052  45.3555489  79.0213490  47.0447493
  46.1794043  79.1230536  46.5681458  45.5196238  79.4271708  47.8959990
  31.0591960  38.7288690   7.6336098  31.3321090  37.9657793   8.1429660
  30.5931473  39.2814469   8.2610583   2.4258256  68.2138205  30.9319592
   2.8400922  68.7277031  31.6251731   1.5013051  68.1813145  31.1778235
  45.5757713  49.9947453  38.6745787  46.0096741  49.2096090  39.0085244
  45.5947590  50.6092787  39.4082117  57.9290485  69.1459942  15.6890881
  58.7409878  69.3447208  15.2227318  57.4818993  68.5096931  15.1310444
  83.4025193   5.0890482  21.5261483  83.5736990   4.4213522  20.8619928
  82.8449297   4.6503390  22.1686840  47.8187466  75.0707817  40.0520611
  47.2860956  75.5167246  39.3935370  47.2050810  74.4922686  40.5048037
  22.2909927   4.1388150  61.7824529  22.6097440   4.8153039  61.1849670
  21.6252517   4.5797750  62.3102610  42.1740271   8.2291858   0.7986720
  42.5576664   7.6128738   1.4225419  42.3484160   7.8415601  -0.0589768
  78.0110597  37.1075269  69.6845401  77.7899026  36.7307063  68.8328771
  77.6817333  36.4722654  70.3203217  25.9051061  63.6000156  21.2562132
  26.0363722  64.3162441  20.6349087  25.9874654  64.0112305  22.1166492
   5.0231647  16.9605943  54.7605936   5.2015137  17.6635190  55.3853480
   5.5289077  17.1971532  53.9830999   8.1766916   3.4701670  35.1015043
   9.0034366   3.0314482  34.9008751   8.0811716   4.1277922  34.4125676
  12.5103855  35.8748933  68.3465324  12.1874666  35.4313346  69.1308853
  12.4186611  36.8070813  68.5436348  44.1529417  65.0782156  31.1154461
  44.9887848  65.0413990  30.6504345  44.1535664  64.2989397  31.6712880
  52.4332952  74.0150309  23.4980583  52.0704556  73.2553387  23.9535213
  53.3434200  73.7765312  23.3219337  20.2872133  30.6816980  64.4065009
  20.8496093  31.4363595  64.5809392  20.7434082  30.1969310  63.7186663
  25.9426832  80.9899139  39.6021891  26.3255405  80.2200317  40.0228357
  25.5601406  80.6544685  38.7914038  66.8144226  56.2791348  47.1755743
  67.5610256  56.2262535  46.5789032  66.9442749  57.1005869  47.6494789
  31.8444277   3.2831133  56.0035896  31.6081644   2.9212130  56.8576574
  31.4520098   2.6809443  55.3714275  60.6900120  60.2285480   3.2359663
  61.4853430  60.6166840   2.8712335  60.7313347  59.3084049   2.9754511
  75.0672650  63.4815379  50.2799026  75.0910079  64.3952438  49.9956219
  74.5353710  63.0387183  49.6186702   1.8548752   5.0704707  30.4596066
   2.3761965   4.4229163  30.9340811   1.1406399   4.5650900  30.0714254
   6.2876582  20.5890390  65.9934588   5.7530284  21.3700458  66.1363871
   5.7840371  19.8781701  66.3900290   5.4653167  18.0058595  52.3325781
   4.6704173  18.5011502  52.1349446   5.6552887  17.5261565  51.5263359
  64.5707893  74.6995592  49.8010921  64.6263790  73.8661909  50.2686834
  64.8868179  75.3484869  50.4297829  57.9641199  55.3273010   7.8605568
  57.3029613  55.9861040   7.6482266  58.1544065  54.9009562   7.0249426
  11.6553093  20.6327666  13.4940517  12.4720264  20.1339949  13.4730375
  11.9017483  21.5084971  13.1964219  59.5405579  58.3167553  27.1949983
  59.1189814  59.1535807  27.3905301  60.2250671  58.2325363  27.8587627
  64.1044092  64.8211432  14.8252285  64.6249628  65.0999308  15.5785775
  63.2060719  64.7876978  15.1540196   7.9758526   0.7184924  46.0702324
   8.8043667   0.9511031  46.4893818   7.4632049   1.5266360  46.0880947
   8.9665342  72.4388361  17.0775437   8.0444169  72.3483992  16.8372202
   8.9487577  72.8001118  17.9637706  12.0352077   7.3897763  67.6074929
  11.8414592   8.2881471  67.8751181  11.9232368   7.3936196  66.6568728
  20.0158167  59.9924898   5.5207801  20.2957153  60.4848099   6.2924725
  19.5942497  60.6443167   4.9607474  47.8492570  20.6489886  20.1915812
  47.6245916  21.2527216  20.8995843  48.7400377  20.8941878  19.9413466
  13.2731247  23.6957236  58.4947292  12.6614999  23.4160443  57.8136055
  14.0708828  23.1964465  58.3199768  28.4351039  33.4934521  18.2388854
  28.5371828  34.3635774  17.8532767  28.5424972  32.8911376  17.5027359
  65.9272766  58.7589884  40.3200722  66.5978813  59.1558361  40.8759832
  65.5130291  58.1003380  40.8775759  56.8012476  48.4353924  22.7470684
  57.2647524  47.6184654  22.9315329  57.4656582  49.0056705  22.3603153
  34.5785427  50.2691746  29.9643731  35.3330803  50.6702900  30.3956628
  33.8217545  50.6039524  30.4454422  19.3018674  22.7538654  67.4805923
  20.1181221  22.6384469  67.9670460  19.5135641  23.4007426  66.8075622
  28.1683898  71.6724825  60.2163267  27.8697610  71.1567354  59.4672918
  28.8672662  71.1469078  60.6056595  47.7908039  35.7665920   3.1155488
  47.8696203  36.6736007   3.4111106  46.9268227  35.4895258   3.4205157
  44.4772863  65.0725842  40.5000639  45.1957321  64.4971943  40.7627344
  44.6379709  65.2484465  39.5729828  10.1576662  80.3899193  44.6460962
  10.7760823  81.1200619  44.6199369  10.5784285  79.7011089  44.1315699
  42.4198961  47.4744844  21.4810729  43.2143927  47.4410200  22.0138884
  41.9708014  48.2687569  21.7703414  36.9225287  77.6446009  29.3795061
  36.6388106  77.2906828  30.2224040  36.4461803  78.4704304  29.2939305
  17.2786331  54.7230816  40.6842709  16.3653255  54.6493959  40.4073763
  17.6343679  55.4331350  40.1499367  82.2782230  70.2461815  48.3213758
  81.9305229  70.3767204  47.4391651  82.4478340  69.3056679  48.3752346
  72.7494001  68.9464712  19.3781734  72.9843426  68.3679771  20.1036906
  71.8747568  68.6590433  19.1162276  11.6904999   3.4485949   1.6732503
  12.5426746   3.8680209   1.7920297  11.3092638   3.4279860   2.5510132
  35.1372432  10.1791354  65.9933765  34.9511575   9.4073507  65.4586302
  35.2004575  10.8972570  65.3636639  50.9669304  79.2661285  49.1248083
  50.8942986  78.5145807  48.5364771  51.8303585  79.1726589  49.5272923
  75.5697680   0.4560221  41.2292767  75.7470847   1.1505354  41.8636608
  76.0283995   0.7332839  40.4361677  -0.0162577  80.9379578  44.0948677
   0.0556303  80.4106998  44.8905182   0.7830072  81.4645290  44.0834522
  69.4674098  73.0816984   6.4506549  68.7979817  73.0822897   7.1348315
  69.8354959  72.1984816   6.4764780  13.7489784  54.4866323  26.7051268
  13.3457434  55.3208828  26.4650035  14.0246522  54.1051674  25.8716297
  -0.1722693  10.3409899   1.3180013   0.2272440  10.1489867   2.1663877
   0.1489998  11.2144316   1.0941556  57.9176474  55.8208466   3.1036481
  57.2483444  55.8291769   2.4193960  58.6928558  55.4569769   2.6760012
  70.6154824  15.1144827  43.0501699  70.5711079  15.4614867  42.1591902
  70.7364989  15.8869589  43.6023140  55.0434733  15.8696784  25.9491324
  55.9697771  15.6505812  26.0500646  54.9597669  16.7408026  26.3368964
  12.1408128  20.3263065  68.7266555  12.2681045  19.5937177  68.1238784
  12.4471044  21.0921308  68.2409264  32.7151489  61.6032362  33.6093402
  33.5054374  62.0298147  33.9405632  32.9968047  60.7154751  33.3884811
  34.5366502  68.3608627  12.0434701  35.0384927  68.8550854  11.3952947
  33.7183380  68.1427908  11.5973270  62.8186750  76.6941118  44.8017311
  63.2293367  76.0268402  45.3515863  63.3181715  76.6724825  43.9854813
  27.3178005  38.8645288  70.5715075  27.7706146  38.6962386  71.3978670
  27.9216623  38.5493823  69.8989997  21.9177532  52.9343864  63.5900496
  21.7490720  52.1614524  63.0512099  22.5331354  53.4559318  63.0747507
  67.5561166  29.2349661  19.9448240  67.5124407  29.8559416  20.6719542
  66.6911054  29.2817343  19.5376337   6.3193535   3.2758924  61.8310438
   6.9094419   2.5945016  61.5089665   6.8543219   3.7896415  62.4361090
  84.5725631  64.1471740  69.2108698  85.4400181  64.3119689  69.5804623
  83.9869928  64.1402217  69.9680301  72.0932674  61.0869884  13.4932077
  72.2363806  61.2154198  14.4308937  71.7142105  61.9132233  13.1933999
  83.2827473  14.1988600  45.7709503  83.7352181  15.0421847  45.7883549
  83.5995722  13.7409533  46.5495205  11.4042139  26.0963174  59.5927898
  12.2272586  25.6124803  59.5240037  10.8665633  25.5712911  60.1856737
  66.4847851  50.3222561  46.5600252  67.1571207  50.9959173  46.6619158
  65.8846331  50.6798744  45.9056902  39.0809488  79.6603298  15.9074700
  39.4727874  78.7999582  16.0573077  38.7089515  79.9049520  16.7548263
   7.1586061  69.1886282  17.5911152   6.5849615  68.7784910  16.9438481
   7.2326112  70.0984955  17.3031962  10.6014275  21.5001746  65.1209341
  10.0160837  21.5762635  65.8744682  11.1296510  20.7235356  65.3054301
  77.3750162  22.7450980  16.9817209  77.6841689  22.2940958  17.7673745
  77.8253651  23.5895861  16.9974804  54.3387031  22.3851987  53.1433479
  55.1330566  22.6213571  52.6643340  54.1079998  21.5174743  52.8115849
  63.4722591  16.9962347  16.5523267  63.9869595  16.8448008  17.3450327
  62.5624156  16.9665278  16.8481946  58.4905434  66.8989277   8.3980918
  59.2759228  66.6958380   7.8899920  57.8277493  66.2928200   8.0670738
  52.6786708  48.4795161  64.2530237  52.0711422  49.0803596  64.6844439
  53.5031700  48.9637061  64.2083452   5.1253235  45.4761791  24.7121978
   5.3194720  45.9274292  25.5337262   4.3485555  44.9511480  24.9050927
  15.5048061  11.0379446  11.0142720  15.4520965  10.3147448  10.3894281
  16.0808493  10.7145060  11.7069423  19.8958135   1.1612738  42.0111609
  20.6829096   1.5539587  41.6336393  20.2131868   0.6693877  42.7684927
  18.5551035  71.7183113  34.5029736  17.6286793  71.7473078  34.7419906
  18.5542214  71.6583395  33.5476542  78.6999940  55.7021304  68.0624948
  79.1191601  56.5097209  67.7652801  78.6310958  55.8033916  69.0118269
  31.1439705  53.7733936  29.9701548  31.5020943  54.2371702  30.7270479
  31.7012215  54.0412903  29.2394447  38.0261421  70.8461523  20.7684255
  38.8437247  70.5234432  21.1474371  37.4905920  71.0874081  21.5242100
  46.6218639  11.7871512  38.9601421  46.0388160  12.4081172  38.5234642
  46.0574937  11.0484351  39.1882253  76.1909819   4.5542754  36.5603995
  75.5847168   5.2846850  36.6836190  77.0064497   4.8488463  36.9659495
  45.8927297  28.0281039  63.4653167  45.7211399  28.1777116  62.5355826
  45.7886886  28.8894244  63.8697050  77.2251130  19.7782649  13.4070349
  78.1662560  19.6483935  13.2903528  76.8464947  19.5663680  12.5538158
  50.5774927  80.3979206  42.9181385  50.1460266  81.2183571  42.6794767
  51.5105391  80.5739307  42.7969837  15.0628566  48.1041022  56.0890881
  15.4212761  47.5165340  56.7543117  15.0295686  47.5731059  55.2933709
   5.5789781  55.4885054  17.6945281   4.9045873  54.9507666  17.2794747
   5.2651906  55.6175375  18.5895789  67.4080897  18.4149683  17.8079748
  66.9934655  18.9234293  17.1109891  66.7673993  17.7373160  18.0236852
  41.0977125  53.8218089  68.6022781  40.9121656  54.5913097  68.0640660
  40.4853773  53.8886806  69.3349488   8.3933038  69.5823526  29.2328739
   8.8755786  69.4439697  28.4177089   7.8843731  68.7800503  29.3492198
  77.0378923  65.9971094  64.3666840  76.6161489  66.6544914  63.8133192
  77.7974463  65.7093287  63.8602304  34.9275184  62.9184341  34.2775798
  35.6531715  62.7466488  34.8777032  34.9324799  63.8685608  34.1615391
  14.6249771  57.0668765  47.6342647  14.1423273  57.4105617  48.3860414
  14.4126320  56.1336490  47.6196091   9.6239966  52.4098396  25.1739192
  10.5660188  52.3717690  25.0084639   9.5194101  52.0378733  26.0496688
  78.8025999  75.6498194  15.3536010  78.4487057  76.1859512  16.0632145
  79.5483780  75.1955700  15.7456529  29.7313238   7.2379817  33.2404304
  30.3477312   7.5315703  33.9113116  30.1768328   7.4149645  32.4119186
  71.6766215   2.6872672  51.4287090  71.4380932   2.0803870  50.7279634
  71.1915446   2.3741377  52.1921730  45.3742552  58.1068993  32.7552676
  45.6155682  57.2692442  32.3598790  45.3761959  58.7258101  32.0250797
  31.4539671  36.1874294  22.7345967  30.8574915  36.7557359  22.2472811
  30.8910966  35.5020976  23.0947757  16.9002128  29.5246638  41.4656734
  16.0142732  29.8736990  41.5632343  17.0800901  29.5866240  40.5275679
  74.0044581  66.3441821  62.9825412  74.7015916  66.9997474  63.0041937
  73.1954323  66.8530532  63.0350415  46.2016321  13.7770880   9.6070260
  46.8150163  13.2724322   9.0728778  45.9679819  14.5267619   9.0596503
  70.8236885  73.8305759  31.8952918  71.0462570  73.9112663  32.8227544
  70.9224510  72.8975773  31.7055702  60.6438351   3.5726965  17.9344344
  61.5552926   3.5645426  18.2266855  60.1736951   4.0338553  18.6290801
   4.5524287  34.4032117  45.4765980   3.8612818  33.8456889  45.1192204
   4.3697500  34.4390222  46.4155213  44.9131250  68.3154269  68.1025822
  45.0430631  67.6158687  68.7428690  44.6448230  67.8619167  67.3034756
  74.5636427  53.2006332  70.2556729  74.0560996  52.6124736  70.8148654
  73.9445459  53.4856769  69.5835860  21.0393024   6.3298071  19.2328250
  20.4261185   6.6480769  18.5702980  21.5112472   5.6182135  18.8002300
  34.6310782  81.2501335  35.9484172  34.3357491  81.2049770  36.8577981
  34.3197298  82.1001720  35.6374049  56.6897678  72.1749973  56.9868231
  56.8590498  72.1349669  56.0455608  56.2553978  73.0180645  57.1164131
  41.3243008  64.8336172  45.8759689  41.4647579  63.8961554  46.0089016
  42.2058153  65.2043009  45.8340693  56.6023111  62.9430246   2.9095674
  55.8122063  62.6567554   2.4512924  56.9868088  62.1357584   3.2511997
  36.2545706  11.8258608  12.0886850  36.0915590  12.7236689  12.3778176
  36.8299700  11.4588393  12.7598345  31.9889593  33.1966516  70.1314308
  31.7493057  32.4761316  70.7142202  32.9172372  33.3491346  70.3082943
  73.9321327  54.2239332  35.3392148  73.7566996  54.4793320  34.4335532
  74.8849773  54.1454411  35.3856468  74.3981028  72.1807909  26.0273480
  73.8103914  72.8964853  26.2694383  73.8163662  71.4901638  25.7097840
  36.6671777  79.6428585  24.4872141  35.8062172  79.8230648  24.8647118
  37.0947742  80.4982853  24.4467664  35.2822161  53.6025572   6.8907851
  36.1468816  53.2048130   6.7888629  35.4624224  54.5271349   7.0608407
  23.4292507  31.2193891  42.5421636  24.3258905  31.1296436  42.2193353
  23.5011243  31.8181726  43.2854859   2.1824146  21.8328513   9.5304853
   2.3753191  21.3142241  10.3115380   2.9026724  22.4609412   9.4761288
  32.5506520  59.1566181  26.6694236  32.7642536  58.2241249  26.6369247
  32.8911495  59.4510317  27.5141811  61.4432550  31.4131964   3.2083005
  60.6933380  30.8718718   3.4549168  61.7006255  31.0872687   2.3458818
  37.1814108  63.2509518  26.8830132  37.1873784  62.4607849  26.3427973
  36.3245821  63.6455822  26.7207146  73.4553242  79.0969801  23.0104375
  73.5472012  79.5860481  22.1927571  73.8953543  78.2637930  22.8419185
  50.0649405  46.9870520  25.5327344  50.0202036  46.1254120  25.1182342
  49.1521168  47.2661114  25.6042624  71.2825632  58.8891983  24.3453217
  70.9621000  59.2221069  25.1835966  71.0791302  57.9540825  24.3654323
  25.2315807   9.9791213  63.8323240  25.4056167  10.5686113  64.5661114
  25.1504659   9.1140958  64.2340486  55.3037215   4.8697413  16.6799140
  54.4496322   5.2898539  16.7812586  55.9330845   5.5881060  16.7438459
  42.6397467  78.2408667  19.5706856  42.7739143  78.5269117  18.6671329
  41.7050409  78.3744526  19.7279096  80.9592581  14.3655528  32.2599387
  80.0914336  14.7353781  32.4222469  81.3698197  14.9772585  31.6488028
  58.3684612   2.5993002  12.6010501  59.2871094   2.5515402  12.3364007
  58.0314494   3.3774699  12.1570778   2.3805904  54.1277286  48.0030362
   2.4362182  54.0051624  48.9507262   2.6592707  53.2886573  47.6362483
  17.1851565  25.2160184  12.5584729  16.8638970  26.1127918  12.6524289
  17.8437926  25.2688758  11.8659146  51.6912365  51.4423466  15.4053152
  51.6333055  52.3281527  15.0472295  52.6189899  51.2167501  15.3374135
  63.2677317  45.0747108  10.8735156  63.3330584  45.9577227  10.5098569
  64.1102266  44.9301386  11.3042521  76.9627905  17.6148642   8.0489302
  76.5109587  17.4498690   7.2213697  77.8859234  17.4532259   7.8541791
  61.6805506  49.8460627  47.2235870  62.2328568  50.5398655  46.8632746
  61.2806940  50.2373028  48.0002975  50.0916338  77.2668171  38.3567572
  50.8808851  77.4178362  38.8768554  50.3166103  76.5301800  37.7884436
  68.1951094  68.9612675  13.1886566  67.4617386  69.5374632  13.4040582
  68.8923836  69.2266893  13.7883127   8.6316419   6.8273390  15.7428801
   9.0030409   7.7071894  15.8073592   8.6625839   6.4881552  16.6374338
  43.3957624  64.4710827  12.0338631  43.6624289  64.6657896  12.9323113
  43.8999605  65.0821352  11.4966154  23.3930063  68.0720043  44.3762159
  22.8908587  68.7556696  44.8197079  24.2368460  68.0633974  44.8279810
   7.9724812  15.8078500  67.9101722   8.4510421  16.6258689  68.0445577
   7.3292279  15.7875034  68.6187209  48.8392353  78.0982828  21.9631529
  48.0030251  77.9380417  21.5257621  48.8554525  77.4711084  22.6860785
  69.4628477  62.7273750  16.8687308  68.9315462  62.3696756  17.5800669
  69.0992498  63.5990620  16.7131925   6.1477543  11.0569514   7.1568829
   6.7013717  10.9116782   7.9241061   5.5321337  11.7367400   7.4310035
  12.6980304   6.8601390  70.2456788  11.8507242   6.7466184  70.6762790
  12.4820852   7.2049066  69.3792295  21.3845515  74.3956661  19.3154335
  21.2537670  73.6661053  18.7097371  22.3298717  74.5458746  19.3089020
  28.8730741  59.6953583  18.5061407  28.2689023  59.0594292  18.8892913
  28.4622335  60.5444002  18.6691403  53.2266951  59.7991943  21.8377113
  53.1077576  60.2319002  20.9922218  53.2379627  60.5146885  22.4734592
  24.3788362  40.1897562  17.1785223  23.7293840  39.5882643  16.8142986
  23.9887644  41.0572184  17.0709562  13.2530022  11.6720332  44.4178152
  14.0088547  11.1575926  44.7011375  12.5159586  11.3026083  44.9041557
  77.9589080  39.5754119  47.5870363  78.6078285  40.2697154  47.7013699
  77.3880123  39.8939201  46.8878524  29.5820141  53.7605524  21.6884804
  28.8244867  53.3645344  21.2577248  30.2545810  53.7929392  21.0081601
  85.0608324  16.3389846  46.2506430  84.8542809  16.6448327  47.1338312
  85.9524750  15.9973928  46.3178818  44.3128586  28.8934159   3.5418758
  43.4891891  29.2574668   3.8663161  44.0579700  28.0878568   3.0920535
  10.3694629  31.5968391  45.5018131   9.5378852  32.0684072  45.4535191
  10.9685230  32.1116992  44.9611918  44.5159864  76.3960123   1.0888163
  44.0861940  76.8679190   1.8021309  45.2202034  76.9793081   0.8058373
  78.6099672  68.8270760  48.2168531  79.0110445  69.6076488  48.5990477
  79.2415905  68.5294008  47.5621223  19.8800134  49.2491885  66.1456559
  20.4699993  49.6932193  66.7547406  20.3509521  49.2502376  65.3123210
   9.5941919  46.4441776  20.5440521  10.2464759  45.8669281  20.1471400
   9.8192739  46.4560223  21.4743376  11.1502577   9.7569979  29.1300917
  10.4070736   9.5740832  28.5552454  11.1873985   9.0043868  29.7203755
  26.1669374   2.5178660  25.0003290  26.1673094   2.3981608  25.9500146
  26.9648863   2.0804156  24.7034645  21.9428301  16.1329051  68.3602001
  22.3469686  15.6096574  67.6680176  21.2271309  16.5952560  67.9240377
  12.2428060   9.8072470   4.7414589  12.9906202  10.3146113   5.0570321
  11.9782186  10.2476920   3.9338481  42.5480235  18.9699973  22.0654321
  42.8946030  19.8401965  22.2626138  43.3026767  18.4799517  21.7389536
  54.9126673  59.5285749   0.1794881  55.8059406  59.3040228   0.4400074
  54.3727016  58.8296366   0.5484767  63.7084723  75.8386040  35.7614851
  63.6841249  74.8907757  35.6300974  64.2838335  76.1618137  35.0681400
  70.6259919  24.1983164   0.9769236  70.9157944  24.6208323   0.1683903
  70.3325844  23.3298243   0.7014622  65.7287932  11.3561476  16.6044474
  65.3324533  12.1001757  16.1510563  66.5646243  11.2211455  16.1579132
  31.3007855  57.5412989   0.9907883  31.3829041  58.2350445   1.6451649
  30.9949899  57.9903793   0.2027202  75.1104164  48.5977697  17.2729206
  75.3955221  48.8789797  16.4035141  74.7329950  49.3841171  17.6671946
  69.1159392  10.4772795   8.5555446  69.3778992  10.7121027   7.6653379
  69.5448923   9.6370829   8.7176853  43.5598373  58.6603451  18.6848152
  44.2114973  59.3276787  18.8998413  43.1021690  58.4979343  19.5096743
  61.2172604  79.8161173  28.7888575  62.1015501  79.8356533  28.4229636
  61.2072706  80.5274391  29.4292855  40.2774477  81.7161942  14.0912449
  39.8657441  80.9544468  14.4992554  40.6986284  81.3684750  13.3051574
  68.9990282   9.5461215  40.7625723  69.0552283   9.3104781  41.6886091
  69.8719883   9.3627585  40.4153633  73.6724377  26.6115035  42.9192781
  74.1315031  26.9005526  42.1306419  73.8682080  25.6765975  42.9812908
  16.8556976   6.0845205  68.3291279  16.1092806   5.6153222  68.7018840
  16.4625120   6.7513915  67.7661730  25.5009714   7.1236742   4.3700132
  25.6696710   7.3627032   5.2814066  26.0864914   7.6858080   3.8626564
  71.7044640   4.0950621  17.7772295  72.5747919   4.4570864  17.6107705
  71.8248415   3.1470622  17.7221394  70.4786491  75.4524851  54.3051434
  69.9329472  75.6579256  53.5460424  71.0438156  76.2181377  54.4080877
  14.7377420  24.1491831  11.9792008  14.6973110  23.2063426  12.1393585
  15.5993534  24.4105757  12.3040640  41.7063166  14.6919383  43.2377148
  41.6805292  14.0627135  43.9585829  41.7065073  14.1513194  42.4478006
  45.4841852  65.8736229   8.2371587  46.4186192  65.6683302   8.2674801
  45.3055382  66.3009405   9.0748423  17.2825504  32.6981200  26.2646508
  16.4205623  32.4095477  25.9647560  17.9004789  32.2320879  25.7014346
  10.4196287  74.1561222  33.1183290  10.1388860  74.0904808  34.0310740
  10.1099134  75.0159550  32.8337240  30.7464338  27.3639716  12.5532413
  30.1019502  27.2857131  13.2566249  31.2569643  26.5559519  12.6051664
  10.3780818  28.6347648  56.9357864  10.0903415  27.7312061  56.8053274
  10.8968854  28.6072036  57.7397220  82.9092932   1.2416590  70.1111031
  82.8635121   0.9619463  71.0253763  83.0893278   0.4379023  69.6234608
  53.0241919  55.0987625  25.3532553  53.1852770  56.0117054  25.1148820
  53.7122154  54.6086931  24.9030447  40.6590296  15.9190882  30.7194614
  40.0074697  16.3137663  30.1398659  41.3659025  15.6462134  30.1345658
  55.3675795  55.9849024  39.2181754  54.6805096  55.3516054  39.4257808
  55.4857731  55.9083176  38.2713914  38.7702871   7.4481333  17.2772825
  38.2248712   6.7709769  17.6775372  38.7348009   7.2608412  16.3392580
  42.5207043  57.6428509  33.0565834  43.2134342  56.9827604  33.0818892
  42.2104025  57.6298094  32.1511698  64.4969176  80.3242166  46.9730131
  64.9581884  81.0643943  46.5785496  65.0646232  80.0431116  47.6905934
  59.2391634  63.2201767  28.3471847  59.6537876  63.5169125  27.5370812
  58.9594173  64.0256882  28.7820649  22.7129745   1.0261890  55.0374321
  22.7153825   0.4214212  55.7793741  23.1228828   0.5341455  54.3260257
  61.0081292   3.6851347  44.2366552  61.2605381   2.7698649  44.1150045
  60.0912428   3.6465872  44.5088100  45.2393818  70.7339716  41.5833330
  45.8939552  70.0361204  41.5555048  45.0543976  70.8518314  42.5150633
  54.4290876  81.2229443  28.0361772  53.5639620  80.8185005  27.9712892
  55.0325489  80.5492496  27.7228069  56.2726498  76.3030624   7.3119193
  56.4921427  77.1038294   7.7881771  55.3290701  76.2012911   7.4365234
  13.5172582  80.3179455  14.1889346  13.3729196  79.4110584  14.4590473
  12.6417375  80.7043552  14.1696823   3.2744574  45.2573558  58.1096391
   2.7617311  45.8543082  58.6546044   3.9522600  45.8102962  57.7209620
  15.6798769  28.2557715  24.3285298  15.0466753  27.5665511  24.5291901
  15.3084732  29.0446223  24.7235012  66.6068649  70.7650757  68.5847569
  66.1970997  70.3866863  67.8068447  67.5025415  70.4276943  68.5717821
  15.7730652   3.7588252  19.8696339  14.8870397   3.5900820  19.5491350
  15.8420587   4.7132815  19.8916900  74.8461151  81.9440174   5.2093560
  74.4273806  81.1770630   4.8186201  75.4408550  81.5832424   5.8668923
  21.9803692  14.9265898  39.3656802  22.7234960  14.3852557  39.6320391
  21.6310526  14.4886626  38.5895133   4.9282671   5.9617079  20.1265764
   5.3421617   6.4792479  19.4358706   4.2862583   6.5542067  20.5177355
  50.8935285   3.7351931  29.5048046  50.9570814   2.8992308  29.9667072
  50.4403949   4.3138350  30.1180577  66.0520721  16.3308753  44.6458578
  66.6622639  16.1391772  45.3579998  66.3226986  17.1905554  44.3234539
   9.9454546  61.0269996  68.4274053   9.9737787  61.8808337  68.8591511
   9.7683620  60.4067584  69.1346277  69.1628170  62.8433466  43.8225937
  69.2500401  63.3268785  44.6440697  70.0269032  62.9050684  43.4154367
  12.1320988   4.2883337  21.7355943  12.8081394   4.2412890  22.4116063
  11.3071323   4.2276610  22.2172356  20.3332210  22.4077643   4.2566633
  19.6230150  22.6955069   3.6830369  19.8980928  21.8951071   4.9379003
  63.6702919  40.0559521   3.3883274  62.9356480  39.5453620   3.7286571
  63.3528137  40.4072857   2.5564587  60.0913429  65.8938694   3.4174791
  59.8894167  64.9641132   3.5224071  59.5502329  66.1746883   2.6795268
  76.2002802  47.6835574  31.8850303  75.3381443  47.3624075  31.6208172
  76.8175841  47.0782507  31.4742088  83.9385939   3.1980647  52.7211332
  83.0881644   3.5397948  52.9972076  83.7931967   2.8872336  51.8275595
   2.9656244  23.2604159  27.5448895   2.8768421  24.0704096  28.0471420
   2.0938850  22.8658904  27.5705862  39.4640280  36.3786448   2.7771664
  39.0928675  36.5988863   3.6315486  40.3082491  36.8294085   2.7593794
   0.0024010   5.3410758  46.2921715   0.3052355   6.1388625  45.8585119
   0.7433487   5.0659407  46.8321037  60.4635763  51.3792562  30.8530092
  60.1177931  52.1533203  31.2974095  59.7095966  51.0104322  30.3928852
  28.9143252   8.5083598   6.3479269  29.2134047   7.6714581   6.7034227
  29.5237875   9.1528857   6.7076105  29.2510462   7.2721964  21.5577579
  28.7099051   7.6635706  20.8720279  29.2233014   6.3325012  21.3776612
  23.1925678  36.1395454  23.5636592  23.1255913  35.2830553  23.9857650
  23.7139940  35.9788489  22.7771950  51.5927814  77.3762949  64.5863543
  51.0787796  77.5746186  65.3691076  51.3703417  76.4690859  64.3772535
  64.5804119  22.4691010  17.5922441  65.3717709  22.3118401  18.1072688
  64.2504025  21.5943289  17.3870671  23.9810300   3.8148823  16.2805188
  24.1251826   4.7611499  16.2751222  23.1626511   3.6945280  15.7988513
  63.7728119   6.2214470  11.8961072  64.6086502   6.6571718  11.7295146
  64.0152454   5.3507245  12.2112286  36.9771873  70.6213839  48.8694922
  36.7600261  69.9615915  48.2108967  36.7876946  71.4570506  48.4428946
  49.8871183  21.8124056  10.3958654  50.6283951  21.9252563   9.8008788
  49.9656439  22.5369430  11.0164392  71.6711497  79.9839603  10.8821476
  70.7270610  79.9259326  10.7353103  71.9059848  79.1396921  11.2672389
  31.8476224  51.3377190  30.8037472  31.5463781  52.1441650  30.3852630
  31.5682793  51.4221525  31.7153764  29.3211555  28.4583831   9.4014782
  29.5659208  28.4384418  10.3266394  29.2323089  29.3893099   9.1972417
  57.5068378   1.4838715  15.6105900  58.1653452   1.6063808  14.9267864
  56.7699003   2.0283991  15.3337407   6.8233108  81.9593890  59.2994146
   6.4609241  81.1649306  59.6915178   6.1351871  82.2719367  58.7120192
  86.2920761   4.8228934  33.3982158  86.7271233   3.9964896  33.6080265
  86.1419678   4.7815117  32.4537659  64.5529364  56.7754026  37.9435293
  64.4370126  57.2814913  37.1393721  63.6804174  56.7462726  38.3360712
  51.2612057  30.9468532  10.8086753  52.2147655  30.8703494  10.8418834
  51.1032772  31.8280602  10.4699111  49.8950148  41.0305023  19.4253707
  50.0484753  40.7525826  18.5223532  50.7665443  41.2344074  19.7646105
  82.0784378  29.0042591   4.0366128  81.7255288  28.3093572   3.4809154
  82.5461387  29.5802546   3.4318683   0.4912090  33.3433737  66.3912473
  -0.3186036  33.7149294  66.0414187   0.3556251  33.3227642  67.3385720
  10.7504141  43.0457640  22.7405548  11.3872933  43.6693764  23.0894446
  11.1382091  42.1872187  22.9101157  40.0303125  28.9151645  31.6378140
  40.3019142  29.1601801  32.5223637  40.6021929  28.1835175  31.4056969
  80.4725193  35.6848928  45.3197448  79.5644664  35.6429454  45.0198905
  80.9928559  35.5633470  44.5255725  48.4277509  68.9492853  69.7589676
  48.4139108  69.4143779  68.9224694  48.6619245  68.0500634  69.5291979
  38.5622357  76.9093568  56.6166238  38.2990598  76.0180004  56.3876025
  37.8932880  77.2054632  57.2339265  17.9381955  29.8658562  28.6504793
  17.0955563  29.4122720  28.6291981  17.7190602  30.7673383  28.8861561
  33.0439138   8.2484460  55.2876472  33.1798649   7.9756147  54.3802834
  33.2462788   9.1840088  55.2893257  51.1020707  79.2535098  68.0540119
  51.7564391  79.6378596  68.6373725  50.2630996  79.4604523  68.4657575
  22.4592566  23.9671254   3.3487767  21.6264677  23.5456586   3.5610437
  22.5753498  23.8097787   2.4117619  12.0639705  20.3329952  59.4361155
  12.8230857  20.6204565  58.9288310  12.1346711  20.8089693  60.2635710
  11.2364495  45.1725817  30.0789905  10.9506130  45.3720570  30.9704709
  11.6992974  44.3383551  30.1568890  43.2955265   6.3068628   2.3393919
  44.0711212   6.3586855   2.8979653  43.5123301   5.6379116   1.6899820
  77.2836315  66.2663936  17.8420699  76.6809689  66.2093603  18.5835385
  77.1340357  67.1390926  17.4784088  54.4521618  23.7267494  13.3889794
  54.7638559  23.4192920  12.5377750  53.8309956  23.0561709  13.6730731
   7.7612972  39.8001052  66.0503368   8.4706973  40.3929346  65.8022712
   7.1525764  40.3487731  66.5449582  72.1553229  79.1966452   6.6423810
  71.2946223  78.8712867   6.3786221  72.7756857  78.6020493   6.2206733
  55.5395985  25.6662607  41.9732380  55.5142736  25.9222245  41.0512447
  54.6900225  25.9378624  42.3206377  31.6167355  29.7364068   6.8451416
  31.1257720  28.9452195   6.6233039  30.9566259  30.4291749   6.8687743
  66.8137430  75.2692588  52.5344316  66.8638085  74.4919808  53.0908160
  66.0450577  75.7425673  52.8527657  33.1055689  74.6032666  18.2612157
  33.6615848  73.9645820  18.7074912  33.7160015  75.2613830  17.9288173
  63.2121444   0.7957686  12.8672671  62.9614330   0.8003367  11.9434953
  63.9269281   0.1611746  12.9183173  71.4173985  19.9415803   9.6270090
  71.8106365  19.8381853   8.7604618  71.3082123  20.8870220   9.7292185
  64.9549245  52.0605142  66.8085144  64.2793082  51.5185065  66.4010779
  65.7804440  51.6786308  66.5103321  40.5492592  34.8078084  13.1451452
  40.3222179  34.3179226  12.3547685  39.7401452  34.8261881  13.6562479
   6.1207545  29.9482226  27.3162150   5.3261954  30.4018831  27.5974607
   5.8273268  29.3606234  26.6198969  47.7202307  76.1262520  59.8117487
  47.0731972  76.1318977  60.5171208  48.4755682  75.6705196  60.1832418
  39.1068792  13.5964700  70.1612707  38.8370371  14.4491025  70.5024942
  38.3292770  13.0455562  70.2510486  52.6206827  39.4731832  10.2942395
  52.3248053  39.8815846  11.1078072  51.9505548  39.7062683   9.6517217
  36.6947578  60.0307412  58.0412309  36.3421230  59.6575673  58.8490812
  35.9248858  60.3420384  57.5651817  38.5678077  20.0047493  46.5779972
  38.7079740  20.3769875  47.4486446  37.6518226  20.1988316  46.3791609
  31.3299274  57.0301676  34.4397187  31.9215655  56.7213106  35.1258707
  30.4534006  56.8638611  34.7865224  43.2659149  46.6142273  36.9065261
  44.1771793  46.8507147  36.7336011  43.2783175  46.2416744  37.7881622
  22.0034075  11.7169583   7.7931184  22.8286648  12.1668375   7.9742026
  22.0751500  10.8864081   8.2635117  26.1286664  42.9206324  23.4456229
  26.4573526  43.3719921  24.2231011  25.1772022  43.0089331  23.5017228
  29.8987389  45.9658241  26.5855932  29.9245334  45.2616167  25.9377813
  30.5083466  46.6228485  26.2495446  26.4386559  39.5081329  10.4015040
  27.1756124  38.9533734  10.6571794  26.7614293  40.0031328   9.6484947
  81.5829181   9.4497987  47.4242250  82.3807143   9.7289010  47.8735082
  80.8734416   9.7122165  48.0107490  22.5887619  59.7664852  69.5761920
  22.5233864  60.1891847  70.4325117  22.6218813  60.4921086  68.9528088
  67.8958750  29.0453386   4.9496314  68.6422396  29.5045614   5.3347063
  67.8072882  29.4236350   4.0748304  22.4802351  76.2324238  24.0228438
  22.2074151  75.4170895  23.6020947  22.5769520  76.8536949  23.3011127
  30.5679107   3.7958208  24.7636437  31.2824416   4.4265449  24.6749592
  29.8993492   4.2604965  25.2669668  55.2699321  10.1788636  66.5652944
  56.1933174  10.1039144  66.3245161  55.2817234  10.5534002  67.4460970
  82.7911924  27.3650475  61.8931745  82.2120880  27.4093385  62.6540331
  83.1932043  28.2325251  61.8473373   8.1276988  72.8555973  62.6774226
   8.6394405  73.2929595  63.3579145   7.8409194  73.5638864  62.1009533
  66.1661052  67.7839334  47.4500792  66.2492989  68.3166487  48.2409803
  65.7301687  68.3574398  46.8197743  34.0347648  49.9520254  15.0653541
  33.6061287  49.6791458  14.2541587  34.4813752  50.7674599  14.8376787
  38.6220043  61.8820818  58.3281581  38.1962090  62.4919350  58.9306633
  37.9792111  61.1846168  58.1993477  77.6692890  75.9988029  65.9689621
  77.7905582  76.2310107  66.8896167  78.3110117  76.5328200  65.5007230
  21.0093689  32.6961565  11.0896420  21.6559267  32.8436375  10.3993928
  20.2141261  32.4404860  10.6222510  31.6425776  53.6985397  19.7133088
  31.0625267  52.9601192  19.5275533  32.3934340  53.5646915  19.1349232
   3.6530533  41.8082142  27.0734596   4.5058206  41.6734028  26.6601229
   3.4143698  40.9470797  27.4165440  38.0872464  17.3202932  24.8630071
  37.1569562  17.4042892  24.6538734  38.5353684  17.7693462  24.1462302
  36.5924168  56.7735195  12.8086722  37.2555447  56.0838413  12.8376031
  35.8896017  56.4539099  13.3744729  40.1835251  41.3680553  31.4328957
  39.2844677  41.1483240  31.6771173  40.7264757  40.8567286  32.0328784
  72.8221833   0.6633493  54.5453910  72.6391708   1.0611077  55.3965811
  71.9710457   0.6297847  54.1087334  35.7745552  13.2317086  55.7338993
  34.8326826  13.1001540  55.8425109  35.8525180  14.1113444  55.3645889
  38.0070949  55.0325584  20.2541161  37.0944715  54.7640085  20.3600764
  38.3569288  55.0488901  21.1449480  33.8976192  38.6462045  30.6634021
  33.9154243  39.1261363  31.4913988  33.6880779  37.7461171  30.9127378
  78.3728361  43.4146690   8.6603993  79.0852522  42.7852058   8.7720799
  78.5163039  44.0634966   9.3493611  56.5121078  48.1430578   1.9479510
  57.3854876  48.2478237   2.3253968  56.4422703  48.8496542   1.3060206
  40.6023359  57.1260595   6.1482662  40.1140547  57.7419567   5.6019282
  41.0766077  56.5764236   5.5244094  31.9196963  25.4541445  28.3861589
  31.1779809  25.3347802  27.7929950  32.3468280  26.2533140  28.0777431
  30.0892091  35.9220982   8.7158215  29.5071006  35.1850104   8.5312080
  30.8773398  35.7387900   8.2044733  51.9500351  27.3684168   4.6683401
  51.0994339  27.7358675   4.9085221  52.5828648  27.8798890   5.1724756
  12.6630377  55.8978911  51.4039473  12.9596196  56.5864105  51.9991044
  12.3660539  55.1941712  51.9808452  14.1447282   3.3673477  14.0025842
  14.6496702   4.1256869  14.2961693  13.3034254   3.4514898  14.4513071
  71.5193855   9.6746083  69.3408738  72.0862734  10.4346152  69.2095035
  71.8065726   9.3029042  70.1748947  17.1717739  21.3334632   7.4744898
  17.1986401  22.2817636   7.3470598  16.2395763  21.1164641   7.4622196
  60.3501803  25.6184932  61.4503948  61.0501432  25.9961482  61.9829927
  60.6878608  25.6479951  60.5552225  37.8252571  74.9984081  64.3767057
  38.6708926  74.8969419  63.9398561  37.6096087  75.9247501  64.2689089
  15.3197074  40.6795120   4.0490171  15.0525105  41.4460373   4.5562419
  14.5019913  40.3291845   3.6956903  84.3299844  47.1262550   3.3761138
  83.4948763  46.6694117   3.2755136  84.1221210  47.8893280   3.9153215
  13.4588468  53.6414671  11.5527666  14.0284240  53.0797100  12.0783579
  12.5810444  53.2834864  11.6852260  41.6196585   1.7683247  23.9332414
  41.7750931   1.4777122  24.8319149  42.4023438   2.2698279  23.7049317
  73.8688385  41.0237217   9.6984625  73.2406806  41.7445087   9.6524447
  74.6712112  41.3805962   9.3175775  20.2897882  24.4315362  23.3153152
  20.0961304  23.5522366  23.6402178  19.6494460  24.5758748  22.6186371
  28.6256528  13.1849480  18.4578812  27.6980472  13.3774078  18.3209920
  29.0770435  13.9908850  18.2069969   4.2848252  65.6177790  57.5663821
   4.2086290  66.5474017  57.7813880   5.0101970  65.3055198  58.1072728
  27.9122066  22.4820253  58.8558273  27.4477291  22.6500865  58.0359201
  28.4672546  23.2521030  58.9788584  71.5794538  57.6776321  57.2115688
  70.6392645  57.5817342  57.3634891  71.9886278  57.2031303  57.9352109
  43.5195160  47.9755878  26.2251925  42.8134060  47.3310757  26.2725949
  44.3204212  47.4613094  26.3266802  54.1837931  16.2631631  35.8356333
  54.9773264  16.5859890  36.2626219  54.0623569  16.8444574  35.0849128
   8.5609435  57.6805039  56.0475103   9.2269277  57.8276141  56.7191152
   8.4359836  58.5385640  55.6421105  74.1506100  22.2870922  19.1178477
  73.5281086  22.8064036  18.6088872  74.3360901  21.5272141  18.5661101
  86.3451980  53.0015321  68.8092288  85.9371637  52.8623362  69.6638415
  85.6993221  53.5061009  68.3147736   8.5039097  67.6137972   8.2434863
   7.7840954  68.2339573   8.1272995   8.1225401  66.8962383   8.7493521
  63.1276894  23.7405515   2.7359471  62.3575449  24.3009710   2.6408494
  63.6595106  24.1754150   3.4024978   3.6474657  10.3073951  69.5149512
   2.6934909  10.3762075  69.5527053   3.8197899   9.7998115  68.7219237
  37.5768828  10.8883810  23.2257986  37.6773953  11.0227358  24.1681767
  38.2722521  10.2719426  22.9962397  71.1119270  15.6653711  63.5732947
  70.4628371  14.9620935  63.5910861  71.7652177  15.3723355  62.9380201
  35.1333666  42.4869871   5.9879577  34.8635268  41.6894102   6.4432490
  35.7477403  42.9092884   6.5883207  34.9252915  48.5941505   3.5020927
  35.0945497  48.6825800   2.5641358  34.3443036  49.3257189   3.7106478
  47.1838903  39.6831775   0.6957335  47.4423885  38.7617040   0.6784885
  47.9075956  40.1429605   0.2701993  40.4927778  41.8412352  18.7928677
  40.4461384  42.4349260  18.0434752  41.3688660  41.9786835  19.1531575
  15.3547000  38.7520677  53.1305556  14.5581817  38.2370959  53.0017499
  15.5047654  39.1764457  52.2857980   3.1884312  74.8270225   1.0788216
   2.6003313  75.2085667   1.7305849   3.2744431  75.5044829   0.4080899
  84.0034199  30.0527906  16.2745929  83.3070374  30.7090521  16.2993145
  84.5097351  30.2106977  17.0714235  81.6794252  78.8697957  23.6282539
  81.8156289  78.9078008  22.6815581  82.0480465  79.6899660  23.9563847
  53.9678526  63.1349230  27.2883010  53.0216551  63.2729864  27.2449827
  54.2863369  63.3849382  26.4209557  38.4844089  25.0704026  17.9036272
  38.1650448  25.9261680  17.6174355  39.0830755  24.7938895  17.2098172
   9.8158151  53.8259077  14.1816056   9.9190384  54.0999794  13.2703078
   9.0905237  53.2015324  14.1632473  49.9605322  27.0891166  17.4312437
  49.3709993  26.5392232  16.9151998  50.4912376  27.5480938  16.7801464
  73.7183558  33.2704926  19.0675056  73.4655988  33.4490347  18.1617081
  73.0711042  32.6364779  19.3762505  35.9741592  21.3744545  29.0019083
  35.8726811  22.3035765  28.7953544  36.2786627  21.3626862  29.9093080
  41.6013861  49.3255186  16.7247355  41.5081167  49.8935699  15.9599793
  41.1964798  48.4994650  16.4603233  22.6482391  20.0306913  45.3421370
  22.1055126  19.2462178  45.4213850  22.0356750  20.7211181  45.0885479
   9.6776170  39.1529918  34.1609955  10.1686370  39.9723697  34.0997386
   9.7001016  38.9292765  35.0914145  42.5595175  51.0807688  67.1762027
  42.9259001  51.9643719  67.1409659  41.7469381  51.1381955  66.6735612
  29.3438768  51.3479853  19.4650257  29.2962122  50.5048943  19.0142965
  28.8301539  51.9416952  18.9174581  48.0890894  47.4816942  22.6840925
  48.6779118  47.3599148  21.9393158  48.2746315  48.3682489  22.9936457
  55.3655361  77.6583750  58.2799534  56.1206220  77.9220827  58.8058190
  54.6118354  77.8099306  58.8502161  18.6546052  64.2745876   7.9512131
  19.4703710  64.6902800   8.2304192  18.8445699  63.9386177   7.0752740
  85.1228069  71.0001619  48.0788533  85.4880928  71.8793233  48.1782238
  84.1818403  71.1153824  48.2113044  79.2333221  10.5836269  68.6181004
  79.5592736   9.8677369  69.1635246  79.8309015  11.3102933  68.7944221
  75.1363455   5.7395288  70.3141842  75.4404318   5.3706809  71.1434707
  75.6840169   6.5131923  70.1810118  83.5547375   9.8281356  52.1898477
  82.7657246   9.3404313  51.9535582  83.8850903   9.3851110  52.9714028
  51.1902523  49.1932058  24.3992400  51.0293341  48.3413982  24.8051524
  51.1030769  49.8207378  25.1167583   9.4146633   1.3542434  69.1266942
   8.8218045   0.9825965  68.4735282   9.2760300   0.8190175  69.9080678
  12.9889810  42.3388195  19.1215718  13.5283744  42.8686333  18.5345578
  13.6163700  41.9210339  19.7115481  41.2043571  46.5153980  18.2059717
  41.8820143  47.1693230  18.3774281  41.5508938  45.7067919  18.5831928
  48.3647537  48.2464933   3.2271469  47.6850796  47.7115011   3.6370888
  48.6481333  47.7345514   2.4696228  21.2287712  19.1252303  14.0344167
  21.7044592  19.4931221  13.2896948  21.0148168  19.8823416  14.5796120
  73.3633779  67.7228220  67.3980389  72.8170370  68.0530031  66.6847907
  72.7520679  67.5762494  68.1198768  79.5630192  73.6288603  63.3638029
  79.1798614  73.0086262  62.7435355  78.9023136  74.3154271  63.4550272
  58.6213732   4.9488390  19.5736933  57.9266787   4.6861113  20.1775146
  58.1787825   5.4910506  18.9207339   1.0302329   6.1500140  61.6066842
   1.3956213   5.2751561  61.4749913   0.7830715   6.4409753  60.7289104
  79.8828220  69.4615269  12.3634684  80.5210876  68.7482119  12.3579133
  80.2308750  70.0894356  12.9965723  28.3698630  54.8945189   4.3358186
  28.0583858  54.9796152   3.4347242  29.3219852  54.9657679   4.2678547
  15.2297366  54.0190363  24.2755890  15.4037392  53.1932926  23.8238144
  16.0741901  54.2696905  24.6501589  69.2374872  71.7926247  70.3719837
  68.8120745  72.2827037  71.0756012  68.7735795  70.9556825  70.3486078
  79.8710846  63.5382970  53.3164827  80.6184124  63.0738409  53.6933271
  79.1979240  62.8655632  53.2139377  52.1409512  57.8242397  18.1551218
  52.0631075  58.6838961  17.7414012  53.0841064  57.6761770  18.2241654
  40.2785492  57.0516872  12.6164711  39.6399522  57.4760675  13.1894708
  39.7657537  56.4190960  12.1133792  50.5019903  63.3740187  23.7984061
  51.0728931  63.8828325  23.2227230  50.7044935  62.4617338  23.5911512
  30.3599906  31.4646935   9.2491513  29.9202251  31.8194532  10.0217986
  31.0553980  32.0943952   9.0591079  33.8951039  28.8852596   8.3951241
  33.9055037  29.3157220   9.2500079  32.9727364  28.8830924   8.1392586
  37.2532153  60.7370949  25.2195144  37.4647927  60.2342844  24.4329691
  36.7392063  61.4782190  24.8989534  29.0715289  20.8434963  39.1783118
  28.1630540  20.7928181  38.8810992  29.0143561  21.2049270  40.0628090
  21.0838413   7.5802442  69.1747141  20.9411144   8.3480235  69.7282274
  20.3218603   7.0237895  69.3359017  44.4585263  70.3587206  60.9865241
  44.2959915  70.6353672  60.0847034  45.3247987  70.7100375  61.1923878
   1.6914065  35.2477646  49.2703295   1.8413930  34.4283152  49.7417498
   0.9707645  35.6664562  49.7410774  78.3487462  16.6161128  42.3540632
  78.1392574  15.8413335  41.8324701  78.8269567  16.2741729  43.1094615
   1.9062376  19.0017053  65.5377249   1.9263959  19.4068023  66.4047445
   1.1032867  18.4806558  65.5354200   8.0694574  35.3433037   3.1074581
   8.7739277  34.8005748   2.7533388   7.5867331  35.6420088   2.3367551
  54.4710945  59.7920473  62.2269003  55.2567481  59.3340023  61.9282780
  54.4014906  60.5508585  61.6475968  76.5024589  34.8819865  58.1176500
  75.6857275  35.3369184  57.9121689  76.2848495  34.3249453  58.8650338
  35.5200457   5.3426667  68.1193690  35.9837579   4.7379466  67.5401275
  36.2078332   5.8990260  68.4849407  27.4821305  71.6444302  19.9461305
  27.7501798  71.3653231  19.0706420  26.5663457  71.9038963  19.8448920
  66.6636990  69.2874916  64.8326812  66.2018441  68.8764842  65.5634306
  67.1962856  68.5847075  64.4602810  54.1738366  36.6578694  69.4315074
  55.0266002  37.0063664  69.1715543  54.3811320  35.8896728  69.9636104
  33.4717486  11.5138377  24.8076200  33.6210615  11.2481440  23.9002347
  32.7365634  10.9737147  25.0974536  31.0565233  29.9348116  12.1845865
  30.9593296  28.9880276  12.2865117  31.9218445  30.0457239  11.7906988
  68.2357001  16.6570588  51.2366764  68.4272062  17.1505042  50.4391376
  69.0362047  16.1616393  51.4098327  40.7919836  45.0475550  11.6045094
  41.3071585  44.8094654  10.8337057  41.0707331  45.9392595  11.8128145
  51.8791103  28.6568785  20.5296373  50.9323883  28.6253500  20.3919649
  52.0424128  28.0134821  21.2192774  52.2232533  18.1077075   0.9165132
  52.1771622  17.3162591   1.4529043  53.1604385  18.2651198   0.8018910
   6.7231321  78.2378633  59.0314965   6.6374444  78.3832128  59.9737088
   5.8223485  78.1505425  58.7197272  83.0400680  54.5470972  52.7221648
  83.1392072  53.6989529  52.2896687  82.2827076  54.4358308  53.2968430
  17.6930022  29.9483705  25.6337619  17.5225997  29.1427302  25.1457667
  17.5048959  29.7211456  26.5443754  46.1132717  15.8017969   7.5558549
  47.0327568  15.8566260   7.2955108  45.6985092  15.2874720   6.8632722
  31.8338537  44.4870567  31.5576339  31.4175773  44.2843819  32.3954082
  32.4501657  45.1907969  31.7604613  34.2513132  24.6737051   9.7963041
  33.8791871  25.2338934   9.1151714  35.1195145  24.4410181   9.4671917
   9.0058851  71.3512261  60.5627934   8.7601566  71.6479547  61.4390354
   9.3525504  72.1333797  60.1335005  25.3292465  69.2770195  28.6781502
  24.5854235  68.6754799  28.6448407  25.3919339  69.6297789  27.7905345
  20.4154634  71.0760450  23.7817836  19.8187542  71.7825127  24.0289164
  20.4878187  71.1456394  22.8298640   4.9145541  62.3940754  13.3406866
   4.7446203  63.3085489  13.5667300   4.5153970  61.8933392  14.0521419
  14.5854234  29.7163507  53.5903065  13.8926410  29.1635152  53.9517657
  14.3864488  29.7691985  52.6555078  48.0347300  20.1146746  48.9049721
  48.7688398  19.6009207  49.2416763  47.4171782  19.4621050  48.5747957
  26.8281055  69.5771082  46.2463419  27.0372036  68.8387211  46.8184368
  26.0055404  69.9230178  46.5927045  24.1175699   2.0639537  32.2248745
  24.6524334   2.1941924  31.4418101  23.7032366   2.9135054  32.3759389
   9.6593350  76.5363598  18.1550491   9.2311966  76.0749531  17.4339163
   9.0996337  77.2952080  18.3197260  53.8641405  48.3495951   2.7024108
  53.4466648  48.3665228   1.8412140  54.8013163  48.4039497   2.5153834
  25.6156993  24.4086576  28.9343762  25.4912925  23.8065028  29.6679735
  26.4737821  24.8028779  29.0909624  84.3337082  46.6016491  51.3303713
  84.4088672  45.6994958  51.6413395  83.4330152  46.8517436  51.5363686
  19.5586526  46.2156868  16.9708598  19.2807639  45.8339596  17.8035033
  19.9958014  45.4980707  16.5124226  53.7431192  30.4237485  10.0032341
  54.3380451  31.0895061   9.6581793  53.2153511  30.1602960   9.2493886
  36.8018293  19.6322131   4.3896115  36.2620902  19.2300427   5.0701797
  37.4908495  18.9898872   4.2196137  59.1761564  80.8231647  50.2610962
  59.1430711  80.3593524  51.0977654  59.6075081  81.6531642  50.4642527
  26.6901135  25.7838249   2.1908024  26.3666987  25.5952382   1.3098545
  26.1904669  25.1983261   2.7598161   3.1607461  10.8501836  51.9976918
   2.8008508  11.7209121  52.1666257   3.9412403  10.8023807  52.5497560
  33.3484983  40.4688454   6.9272906  33.6056542  39.9771285   7.7072382
  32.4149275  40.2840614   6.8246597   9.7414755   2.3579141  54.3281321
  10.0168562   2.6631709  53.4637157   9.9169683   3.0971643  54.9103169
  80.2960014  23.6594793  47.4671404  80.1300096  24.5981189  47.5545113
  81.2258767  23.6000701  47.2479789  23.2771158  25.6326151   7.3753679
  22.6241732  25.8362079   6.7057061  24.1115546  25.8872342   6.9815266
  67.8234863  34.0811872  40.5994415  68.0638266  33.7697339  39.7268200
  67.1311998  33.4847188  40.8843851  66.1907864  31.6624355   8.3757502
  65.7046747  30.9467077   7.9662877  67.0561790  31.2936902   8.5528177
   1.5984638  26.9942570  22.1151638   2.3873682  27.1414804  21.5934491
   1.4722444  27.8129625  22.5947714  11.0454369  55.5057907  16.3038099
  10.2956772  55.4050636  16.8902779  10.8468091  54.9356508  15.5610347
  70.2386211  67.2404177  68.8581118  69.5427583  66.6043790  68.6923809
  70.6383442  66.9499357  69.6779108   2.9600170  44.8311090   9.7341454
   3.0593446  45.7814312   9.6770900   2.4867280  44.6885443  10.5538440
  47.3409449  78.2266815  68.3548628  47.7935826  78.6344917  69.0931318
  46.5590500  78.7638242  68.2269992  47.7168368  59.6055873  67.1389039
  48.3150493  60.3265495  67.3353366  47.4958347  59.2378361  67.9945610
  69.0941858  17.9494047   4.1024008  69.3848515  17.7483058   4.9919534
  69.7063637  17.4773514   3.5379249  61.4447784  18.2599258   2.0715398
  61.8728209  18.2553375   2.9276878  61.9854069  18.8411033   1.5365778
  33.4628367  11.4137316   4.9427587  34.0976334  11.4204824   5.6591511
  33.0201912  12.2600019   5.0069916  57.5860714  60.5970378  39.8555605
  56.8959283  59.9835928  39.6033256  57.2511147  61.4549024  39.5945970
   5.5590081   2.0066091  66.8535392   5.2624297   2.8990956  66.6753809
   6.3795113   1.9253322  66.3673286  68.9510368  43.0298873  66.9376062
  69.3897115  42.7458640  67.7395580  69.0202688  42.2790595  66.3479413
  43.9622641  50.1553011   9.6671736  44.0149117  49.2514467   9.3565083
  44.8366642  50.5128908   9.5129538  41.9841146  18.3723664  65.0529385
  41.6226578  17.4918079  64.9519539  41.6096258  18.6923230  65.8736801
  34.1629624  26.3777828   1.5897368  35.1029348  26.2474799   1.7150517
  34.0882969  26.7560196   0.7136123  20.6293917  26.0091329   1.1716615
  20.1222658  26.6320109   0.6510076  20.0442314  25.7636809   1.8883026
  15.7094478   2.2827455  67.7099730  14.8200035   2.5881835  67.8883759
  15.8445501   1.5645143  68.3281357  44.5786582  73.1656773  66.5624438
  45.1163565  72.4330099  66.8629633  44.3195223  73.6177547  67.3653798
  38.2141118  53.6790378  66.3870106  39.0559446  53.2273228  66.4461951
  37.5626795  52.9888721  66.5116627  29.0716434   6.6958243  16.8834198
  28.9546657   6.8431830  15.9448922  28.1855297   6.5518254  17.2155309
  42.2762369  71.2119849  62.2185068  43.0942963  70.7490523  62.0376615
  42.4262093  71.6436799  63.0595658  47.8383780  56.9291878  27.8359628
  48.7608814  56.7066860  27.9612899  47.7924204  57.8687477  28.0130029
  59.8553016   5.5611201  60.1815144  60.0423608   5.0981685  60.9981625
  58.9191421   5.4233428  60.0371067  53.1346201  65.2825625  65.2043025
  52.8607415  64.3794997  65.3646098  54.0171598  65.2044661  64.8420094
  65.2372074  52.0102072  18.6431539  65.1740026  51.6883135  19.5423865
  64.5763874  51.5111160  18.1630957  40.2777433  69.6489191  28.8909745
  40.7946301  70.1832438  29.4939351  40.1999617  68.8012028  29.3286443
  26.1573362  42.6022673  14.0200043  26.5398550  42.2402430  14.8192823
  25.4115176  43.1193590  14.3243158  38.3750415  11.6040957  18.5066032
  38.7858295  10.8015180  18.1851149  37.4400806  11.4750946  18.3471084
  62.5942467  66.5283854  68.1373511  61.9851636  67.2550900  68.0063756
  62.8671430  66.2823327  67.2534866  57.3599672  15.7536733  15.2659750
  56.8989325  15.2399540  15.9291279  58.2561827  15.4179204  15.2832282
  11.0971117  36.4254304  32.0749275  11.5671539  37.2394010  31.8939893
  11.7731857  35.7482120  32.0517795  67.6564622  11.1024226  24.2797542
  67.4394036  10.8406008  23.3850098  68.5568023  11.4225806  24.2238855
  27.2831225  65.5430889  27.7518964  27.5604367  65.1445436  28.5768127
  27.4587774  66.4770699  27.8661656  10.2642131  14.1479751  56.9212334
   9.7141051  13.4354659  57.2467153  10.7603883  14.4365712  57.6872317
  34.3900776  67.5041866   4.4226748  35.3301954  67.6203680   4.5601901
  34.1985703  66.6424608   4.7927910  66.3120567  31.9880029  48.5247104
  67.1938675  31.7987176  48.8453547  66.4493584  32.5611182  47.7704398
  11.6958617  79.6955760  52.4173097  10.9920215  79.1668661  52.0413999
  11.2928819  80.5478604  52.5829951  60.7846355  55.5736160   8.9616334
  60.6514597  55.8936548   9.8538625  59.9140882  55.6017351   8.5646582
  70.3924608  56.2799549  25.0179744  70.4867125  55.3303814  25.0932002
  70.0613499  56.5562201  25.8725333  68.6440229  32.8865957   5.8012104
  68.0113888  32.8387070   5.0844723  69.0471840  33.7496853   5.7075572
  40.8467388  61.9430208  21.7082310  41.7512417  62.2539902  21.6707635
  40.6424332  61.6915083  20.8075452  54.2143583  34.1018033  20.2355695
  54.2849159  34.4950128  19.3657184  53.2766485  34.1115808  20.4274893
  54.7115040  28.9962101   3.4680784  55.6345177  28.8899493   3.6982611
  54.7214842  29.2296767   2.5398406  34.4410539  28.1308270  17.5604165
  35.0881076  28.6033821  18.0841005  34.9618220  27.5740218  16.9816232
  35.1282644  39.1500711   8.8913721  35.5887604  38.4276748   8.4643817
  35.7990289  39.5827556   9.4196635  39.4755626  14.0160871   0.7119170
  39.5371795  13.2207870   0.1828294  39.5224714  13.7062800   1.6163790
  23.9508962  20.9089824  47.6616280  23.3041238  20.8627626  46.9575111
  23.4563875  20.7032748  48.4549634  41.3238287  55.4418659  35.0503063
  40.9595490  54.7472763  34.5016003  40.6612825  56.1325073  35.0337243
  65.5642484  78.4716065  60.5579929  66.1257290  79.2436345  60.4876821
  66.1367749  77.7378781  60.3341882  54.1056728  63.3385372  29.9328732
  53.8732433  62.5400114  30.4067588  53.9922619  63.1110001  29.0100527
  47.8200626  71.6823824  58.8648538  47.4660491  71.5478690  59.7439520
  48.5482692  71.0642584  58.8027315  65.8243637   5.2710839  62.0980917
  65.2182477   4.5306655  62.1232991  65.2596854   6.0436937  62.1192138
  58.2793140  65.5494356  11.9820559  58.5893154  65.5282927  11.0766912
  58.3989763  66.4590597  12.2550094  44.7429085  37.8028035  33.9349246
  44.5806456  36.8597913  33.9098263  44.7392988  38.0709982  33.0160713
  85.8424854  39.4247580  32.5256324  85.7968044  39.4630408  33.4809732
  85.3600025  40.1974154  32.2316194  43.4425879  71.1842203  14.1228187
  43.2615232  71.9589233  13.5905755  43.4036493  71.4995337  15.0257564
  58.3970356  26.7213154  20.1216125  59.2968082  26.4230752  20.2546549
  58.4820509  27.5030208  19.5757759   6.5160250  22.8560992  70.6162879
   6.2492609  23.5850116  71.1764242   6.1345505  23.0584260  69.7620214
  40.2331734  48.6758995  25.4133749  39.7589731  48.4401703  24.6160030
  40.3727484  47.8430748  25.8641005  55.9038471  14.7858926  69.3552190
  55.1296028  14.2271873  69.2872004  55.8655450  15.1412078  70.2432029
  21.7423629  27.7374669  50.1381103  21.6257620  26.7965861  50.2699463
  21.4836406  27.8857490  49.2285482  55.4761791  57.3928833   8.3874911
  54.7759485  57.6159525   7.7741784  56.2712860  57.7330780   7.9772472
  20.7457256  33.5564280  34.5392036  20.2244163  32.9512286  35.0666523
  20.1682806  34.3058372  34.3936920  28.6020923  33.2999349  21.0758138
  28.6292601  33.4217787  20.1267886  29.5077491  33.1073880  21.3185930
  11.3423872  10.8931991  59.8933832  10.9779501  11.0919925  60.7558803
  12.0460558  11.5317174  59.7777287   0.3038835   5.5331727  69.7432102
  -0.2521515   4.8618385  69.3477799   0.2712488   6.2647697  69.1268195
  52.0945549  45.4274797  32.0072198  52.3251486  44.9806499  31.1927247
  51.8994236  46.3258553  31.7406082  80.3156519  19.5617331  12.7628005
  80.3435755  20.3647173  13.2830536  81.1835623  19.1737689  12.8743565
  47.4693679  15.0732490  68.6444959  46.6046762  14.6690580  68.7163590
  47.3996210  15.6551095  67.8876604  58.2135630  37.6696205   1.0423584
  58.4250307  37.7906704   1.9680259  58.2746601  38.5475707   0.6659215
   8.9580274  50.3892994  35.4370022   8.1386065  50.5221605  34.9604225
   9.5603234  51.0315561  35.0615335  75.5078125  31.5535450  12.3967385
  76.3052416  31.5921712  11.8686819  75.7702684  31.0925770  13.1935179
   3.5266996  58.5879230  30.9749007   4.0370489  58.7294912  30.1775718
   3.1259943  57.7271986  30.8531308  51.7752314  65.6663513   4.2500076
  51.5480995  64.8389721   4.6743658  51.5516663  65.5324268   3.3289689
  79.6684383  69.5830448  51.5681104  80.4520916  69.0360410  51.5142695
  79.4851183  69.8287924  50.6613366  45.4443073  42.2344923  13.2225835
  44.6860456  42.8015375  13.0821192  45.0723648  41.3587379  13.3272195
  54.6121836  61.7079639   1.9108000  53.9991188  61.3221216   2.5365096
  54.7394228  61.0276651   1.2495629  11.1040735   0.9303399  60.0958054
  11.7634630   0.2815982  59.8497085  11.4573192   1.7623063  59.7807126
  79.7385710  75.9791517   0.7616057  79.1956490  76.0001612  -0.0264461
  79.9720841  76.8944931   0.9160537  41.9900227  54.8051977   5.0134748
  42.5470495  54.6006155   4.2624092  42.2222662  54.1483688   5.6698787
  73.0742906  81.9891532  69.1146169  73.1686615  82.2262509  70.0371741
  73.1098818  81.0326369  69.1082933  35.3415895  16.4560390  22.9667616
  36.0671353  15.8342552  23.0233216  34.5723057  15.9510624  23.2302642
  35.6948900  65.0597334  14.5897985  35.8905959  64.2421675  15.0475264
  36.2726688  65.7058382  14.9959385  38.1515264   4.8588916  59.1810743
  37.5059080   4.1567250  59.1012566  38.3527851   4.8940440  60.1162176
  18.1479501   2.9244062  54.0520768  17.4337673   2.4486896  54.4761853
  18.8958072   2.3291513  54.1031699  16.4647674   3.6672755  65.6575577
  16.1628055   3.0278894  66.3027195  17.4040174   3.7491103  65.8229165
  68.2947849  55.2793009  60.4041426  67.4704050  55.6750674  60.6869881
  68.9399074  55.9809549  60.4920809   0.8279085  15.1512262  50.8031766
   0.9570479  16.0418769  50.4771440   1.2082028  15.1602145  51.6815440
  41.3150930  65.1557779   6.1055309  41.6560602  65.6575871   6.8459129
  41.9897127  65.2354956   5.4311681  10.2798355  58.0423927  27.0637751
   9.3529844  58.2665825  27.1469331  10.3476274  57.1625185  27.4345326
  53.6438084  54.5569420  19.2016745  54.4223976  54.0124321  19.3180406
  53.9103794  55.2239418  18.5689962  48.2932758  24.2723823   7.7228612
  48.8089323  24.9816012   8.1067085  47.5641489  24.1501880   8.3308679
  64.9793720  62.1762848  28.1647897  65.4323626  62.7226448  28.8070679
  64.5357704  61.5089655  28.6883688  31.5839243  10.1658698  64.7622834
  30.6599331  10.1604625  65.0121747  31.7926311   9.2465039  64.5966510
  72.7647899  70.8195121  53.7883393  72.4757980  70.4823191  54.6362881
  72.2658228  71.6276510  53.6692790   2.0448208   3.7316247  65.3302102
   1.7428517   2.9698964  65.8249931   2.8598666   3.4428378  64.9196820
  48.1522942  35.9371686   8.3399463  47.8932953  35.4211974   9.1034412
  48.5737562  35.3063202   7.7563095  19.4986725  17.5602838  67.2962628
  18.7085867  18.0799075  67.1479876  19.4313812  17.2769471  68.2080875
  74.0453790  78.2465751  70.1557901  74.6287273  77.6925118  70.6743925
  73.4759306  78.6650903  70.8013934  18.3911847  81.2238772  65.2165340
  17.5406884  81.0021813  64.8374043  18.9450788  80.4682143  65.0205706
  76.8978739  13.3302248  22.6933813  77.3202896  14.1889323  22.7137780
  77.2987414  12.8488577  23.4171343   2.3062349  21.2136436  24.8608851
   1.5640092  21.7741776  25.0869989   1.9073987  20.4238367  24.4956875
  52.9010773  66.8747520   8.3555084  53.5877514  67.0236635   7.7054828
  52.9943132  65.9528303   8.5955006  45.8473635  72.2139025  31.5359306
  45.6311178  71.2829161  31.4836001  45.9691906  72.4830389  30.6254625
  20.8635330  12.2673198  56.3061265  21.4227533  11.4908000  56.2833015
  20.8884430  12.5536653  57.2191529  46.1031961  32.3171592  20.0479507
  46.0450840  33.0199790  19.4007254  45.2537155  31.8784046  20.0019979
  59.1436958  35.1060057   3.2066467  59.0518761  36.0585785   3.2267952
  58.2554340  34.7768068   3.3439538  84.1239548  45.7074356   0.5716266
  84.8325443  46.1653137   1.0238197  83.8971233  46.2808084  -0.1605117
  60.8250093  71.6082907  16.6315007  60.9923029  71.9017315  17.5271213
  60.5879450  72.4059534  16.1584568  26.6164398  28.3859559  66.5872951
  26.2347507  28.1449672  67.4313719  26.5260267  29.3380090  66.5466167
  39.5495439  59.7787285  29.5923209  38.6820698  59.6189594  29.9640656
  39.4811368  59.4772530  28.6864138  39.5628881  29.4924279  64.8119984
  39.8313236  28.9729711  65.5698471  38.7574148  29.9268600  65.0925641
   6.6202545  23.9007779  24.8736064   7.0847392  24.3207570  25.5975549
   5.6942558  23.9916297  25.0983397  61.4505911  50.9519529  39.1669416
  61.6807604  51.8773174  39.0835619  61.6704655  50.7310629  40.0719786
  44.5139360  72.4184561  19.4661951  44.8785067  71.5569448  19.2634141
  45.2502966  72.9107904  19.8289764  48.9403009  74.0607738  36.9511747
  48.0088043  74.2292023  36.8091059  49.2279911  73.6174870  36.1530781
  68.4703325  69.0349658  70.2806495  68.7285088  68.7003191  71.1394794
  68.6767148  68.3235200  69.6744454  69.3035721  59.6849044  65.8943338
  70.1646827  60.1009114  65.9350733  68.9433407  59.7932704  66.7745159
  16.0031414  16.0560867  38.3788673  16.5414667  16.6182395  38.9360277
  16.5856123  15.7988092  37.6641886  48.7268400  43.7830734  22.3857546
  48.8936710  44.1669369  23.2465982  49.3986464  44.1632271  21.8197227
  70.3260612  63.2853699  28.9030623  69.7664165  62.5752544  29.2173314
  71.0238552  63.3469772  29.5553827   4.3471002  70.4152901  50.7787268
   4.9398803  70.9847744  50.2882902   3.9396714  69.8625238  50.1118772
  38.4790230  75.3057098  30.1516056  39.3389630  75.5205870  30.5129385
  38.0297160  76.1483049  30.0853515   6.1636448  10.5313750  70.5564883
   6.3336110   9.6810456  70.9618057   5.2879047  10.4462787  70.1795652
  46.6678524  35.2434897  35.0630879  45.8635378  34.7762918  35.2890038
  46.8006897  35.0561762  34.1338396  84.3857002  56.4303160   1.1085701
  84.2635918  55.5142164   1.3577236  85.0047398  56.7733383   1.7530510
  79.8691510  12.1552154  52.9645793  79.4928455  11.7901918  52.1637134
  80.8041929  12.2340079  52.7755801  46.9393730  53.1094980  16.1137283
  46.5349960  53.4011984  16.9308102  47.7855396  53.5564566  16.0923517
  67.2117710  61.8174887  18.4857595  66.7468834  62.4275684  19.0583980
  66.5386391  61.4873171  17.8906882  19.1608524  10.5973216  50.9765176
  19.4446182  11.5069171  51.0678725  19.1929483  10.2458974  51.8662946
  48.2652521  38.6909914   8.5915762  48.2538033  37.7342153   8.6176169
  47.4002838  38.9496136   8.9096630  61.1068725   3.9507266  15.2347438
  61.7707252   4.6370908  15.3014056  60.9694290   3.6620113  16.1369531
  25.7971549  48.1213522  14.8863637  26.2349796  47.6348877  15.5848551
  25.6646109  47.4761295  14.1918504  69.9850988  44.3990469  12.6385200
  69.5718861  43.5555649  12.8229761  69.5430326  45.0151539  13.2226610
   9.0111160  21.8367644  67.2069721   9.1033625  21.9838782  68.1482909
   8.1137085  21.5211888  67.1006803  68.7287056  23.7968990  44.1064541
  69.3724441  24.5052978  44.1045277  68.4513890  23.7277528  45.0199906
  30.4981112  36.1225390   4.3746042  30.2840662  35.3687692   4.9243721
  29.7543883  36.2022471   3.7773150  81.4153265  27.2308990  59.1729979
  82.2708606  27.3845979  59.5738332  81.6094517  26.7382356  58.3756082
  41.3694382  31.1103272  18.3617055  41.2477779  30.1610184  18.3461070
  40.8058977  31.4355874  17.6596665  50.1567745  60.7645130  19.7490013
  50.4929590  60.0421667  20.2794981  49.3138599  60.9819412  20.1470637
  51.5176868  29.2244911   8.6216539  50.7679367  29.6800089   8.2387596
  51.1303711  28.5947323   9.2296177   9.7103131  36.2509680   8.8892853
   9.5983684  37.1878433   9.0504277   8.8508356  35.8719182   9.0732729
  41.5718746  45.3821345  69.3710813  41.9531393  44.7154685  68.7997477
  42.2208309  45.5031367  70.0642258  53.7173080  44.0715647  18.1972432
  53.0159569  44.7170496  18.1095743  54.4927263  44.5885706  18.4155500
  85.6075573  51.7110300  22.4414706  85.6718254  51.9535303  23.3652091
  85.1323414  52.4362564  22.0359588  69.7415184  75.6698783  61.2061135
  69.2170452  76.1340697  61.8585621  70.3389763  75.1274331  61.7209236
   1.1809182  15.0965997  59.2737297   1.9268608  15.5224487  59.6961705
   0.5047702  15.7734271  59.2426793  54.0728617  73.7766123  11.3468480
  54.8007393  74.3389034  11.6118979  54.0325499  73.1016874  12.0244050
  44.5605993  27.5946522  31.2672544  45.1566267  27.0084929  31.7335153
  44.4139767  28.3198094  31.8746114  57.2263527  76.5164471  16.5276730
  58.1115532  76.5893888  16.1708367  56.7423010  76.0198689  15.8678722
  52.3106121  73.0147035  63.2522611  52.9125117  73.7502725  63.3658008
  51.4434336  73.4182890  63.2155208  40.1898479  66.8871927  29.9015188
  39.3118691  66.6892624  29.5756149  40.7233906  66.1445236  29.6186757
  22.7849460  57.5287199  16.9934618  23.2887840  58.3398962  16.9273531
  23.4424591  56.8343163  16.9520199  25.2751207  35.6252909  21.0521221
  25.8373857  36.3467813  21.3341546  25.5613923  34.8787284  21.5783548
  36.6712856  20.6894609  61.5825848  36.3865852  21.4620563  62.0707200
  35.8845901  20.1491185  61.5093128  49.2660522  39.5891905  11.3466489
  48.7097931  39.5709229  12.1254122  49.3094492  40.5143595  11.1049604
   7.4991631  15.2756473  56.8948643   7.5760889  15.7471343  56.0653989
   6.5561890  15.2007934  57.0412569  26.7758918  53.4150887  36.7745185
  26.3448715  54.1527271  36.3428426  26.0622740  52.9292822  37.1880102
  81.2287354  20.2754450   8.2134879  80.3982234  20.6073689   7.8724474
  80.9765970  19.6719575   8.9123863  64.3410540  53.9523649   9.7859299
  63.5444069  54.3476152  10.1399970  64.6338749  53.3499575  10.4697394
   7.0216512  29.8497602  68.5697292   7.4649310  30.5322047  68.0657451
   6.2125063  29.6825095  68.0864678  33.2610011  44.0453291  24.4002032
  32.7705836  44.0866327  23.5792184  33.8774347  44.7757530  24.3479705
  32.4786496  32.6667595   8.1788033  32.5150084  32.2260189   7.3298877
  33.3085394  33.1399632   8.2387334  56.2248564  22.4878120   5.4151434
  56.8763971  23.0536580   5.8293176  55.7565451  22.0861912   6.1470050
  25.1502943  79.7139597   9.4842130  24.9123168  79.0332747  10.1137125
  25.7940078  79.2964363   8.9119005  38.5580349  50.4436207  27.3848534
  39.1824222  50.3774166  26.6623664  37.6994872  50.3876543  26.9653296
  83.3346604  31.1654588  57.5454537  82.7325629  30.8111306  58.1997983
  84.1644167  30.7203599  57.7175717  35.7496166  39.5989418  23.6076522
  34.9093914  39.4819593  23.1642938  35.9605193  40.5239868  23.4809828
  77.4441814  59.5944738  36.0038066  78.1195545  59.0265751  36.3747358
  76.6664314  59.4192457  36.5335488  68.5228443  76.5395975   0.5343895
  68.7323856  77.0470476  -0.2497145  68.8493156  77.0728731   1.2591410
  84.7407150  47.9191732   9.6516526  85.5392647  47.8081751   9.1356754
  84.8506355  47.3248911  10.3939331  31.5771365  73.1462812  30.6718421
  31.9870830  73.2888651  31.5249825  31.0591960  73.9367771  30.5198836
  38.8216329  69.6165895  17.9812610  38.3465910  69.6795797  18.8098729
  39.5640588  70.2118063  18.0849648  23.2268428  79.5988710  50.5810825
  23.3095741  78.6476286  50.5137984  23.3120631  79.9110158  49.6802298
  41.2574863  26.9818068  36.1620855  41.4616108  27.7938128  36.6259956
  40.3072500  26.8950248  36.2378931  31.8240213  12.1977874  69.1477842
  32.1958875  12.7783605  68.4837955  32.1285057  11.3247272  68.9002119
   0.6956338  78.5616930  64.2242311   0.5220222  78.8636787  65.1157997
   0.7749843  77.6111705  64.3044947  78.7806796   8.7808582  52.9097812
  78.1879853   8.2037183  53.3912961  78.2166099   9.4778749  52.5747899
   6.6809558  60.6800254  59.5588712   7.1285390  61.1133678  58.8321535
   6.1672448  59.9867292  59.1445391  74.4063031   3.9182826  50.9599213
  74.6330225   3.9527770  51.8892436  73.7336909   3.2396623  50.9025053
  18.5451603   0.8192989  30.7794969  18.1054401   1.5956184  30.4327886
  19.0923977   1.1517211  31.4910190  63.0603002  53.7939961  45.0349657
  62.4866914  54.2297108  44.4046037  63.6560534  54.4818158  45.3319756
  33.5859299  46.3534594  32.3407960  33.9334321  46.4115572  33.2307959
  34.1349506  46.9483519  31.8300009  77.8676510   6.1763800  14.7538829
  78.3521986   5.4931487  15.2171707  78.2711077   6.9945849  15.0437021
  73.8160706  56.5228367   4.7775900  74.5634413  56.9207764   5.2240390
  73.2042789  56.3063383   5.4812026  28.3134627  43.9791107   4.0456852
  28.2048416  43.3169079   3.3631015  28.2156134  44.8137569   3.5874033
  50.6331491  58.3896017  36.0942101  49.8594904  58.0795288  35.6235266
  50.9753180  57.6103258  36.5322447  31.2451100  61.6613245  25.4756045
  31.5834928  60.8645487  25.8841133  31.8356943  61.8226194  24.7397900
  81.9374371  42.9077339  12.5762570  82.0575047  41.9588375  12.6137900
  82.3874664  43.1745863  11.7747009  13.7008476  47.5094743  46.0457007
  13.6505794  48.4000493  45.6984536  12.8596496  47.3747249  46.4821140
  20.5269266  22.5218511  14.2543232  20.9507680  22.3614573  15.0974488
  19.6005846  22.6316261  14.4689679  12.7037811  41.1373397  63.5387073
  12.2758388  40.7382270  62.7812032  12.1537447  40.8904525  64.2821716
  82.7880930  78.6249311  65.2378623  82.0781015  79.2633255  65.1700620
  83.0305837  78.6338313  66.1637951  37.9868412  67.8315973  52.2691059
  37.3623061  67.2258854  51.8699789  38.1846976  67.4442339  53.1217670
  31.3970780  27.1951818  24.7909594  31.9927979  27.7118444  25.3335524
  31.0348392  26.5412712  25.3887987  25.9381723  14.4948932  53.8623719
  25.1380109  14.7789689  53.4204738  26.4670372  14.0995380  53.1693880
  58.1364489  58.2311058  11.0718477  58.8846636  57.8245831  10.6346476
  57.9616785  59.0219784  10.5617440   1.1394073  27.6865602   6.6529787
   1.6010889  26.8494248   6.6051793   1.6988641  28.2377172   7.2002131
   9.8314024  18.9275111  10.8080769  10.2429128  18.0792368  10.9733677
   9.1505648  18.9978827  11.4772153  66.9399118  73.0800629  27.3472857
  66.5410709  72.5761509  26.6378975  66.5363884  72.7338791  28.1432486
  32.8963447  15.9636712  32.2623062  31.9960761  15.7303917  32.0357418
  33.3211040  15.1263392  32.4485493  37.8353763  59.6548653  14.8297751
  38.1559873  58.7575769  14.7386205  38.3582735  60.0249529  15.5410039
  64.2137909   8.7407514  63.8031320  63.8767242   7.9407951  64.2064850
  64.5809364   8.4514590  62.9678188  22.1722173  32.5126287  65.0385950
  22.6044321  32.8005429  65.8426653  22.1542883  33.2924911  64.4838623
  79.8563598  78.6862834  60.0814621  80.3823541  78.7064631  59.2819933
  79.1288399  79.2826684  59.9046235  63.2468510  33.0950570  22.3035836
  62.6757479  33.5545540  21.6880059  63.5213757  33.7695599  22.9248047
  79.6776104   0.5164278  26.8012094  79.5897246  -0.1069128  27.5222826
  78.7841273   0.6392325  26.4805245  56.1586523  19.0942420  54.4437027
  56.3218308  18.8452471  55.3534317  55.7552338  19.9603690  54.5011187
  47.2361851  72.3757410  29.0390968  48.1594467  72.2458315  28.8224339
  46.7730379  72.2224665  28.2155466  43.2278347  20.8457681  64.9339209
  42.7776193  21.4829942  64.3794153  42.8398656  20.0039693  64.6949945
   5.3785705   6.6116878  66.9667281   6.1466550   6.2375327  67.3983346
   5.7290983   7.0486995  66.1905943  16.2898206  19.1670772  68.8207195
  15.7570696  19.8561593  69.2176792  16.7299699  19.5970555  68.0874936
  19.3831813  69.9476624  17.3309565  19.1661763  69.6249723  18.2056069
  18.5648203  69.8765612  16.8395698   7.0972341  12.6889610  24.0433788
   7.5387925  11.8753326  23.7999296   6.5530115  12.9021931  23.2853651
  23.4344006  31.0214043  14.1614521  24.1527224  31.1361670  13.5392988
  23.7667847  31.3871861  14.9811816  34.7463321   2.3323651  69.3131140
  35.5648803   2.2470542  69.8019191  34.0716743   2.4109050  69.9875763
  39.7785091  19.7405454  66.1368255  39.4254446  18.8568183  66.0338489
  39.5099926  20.0047084  67.0167966  55.1072359  73.2727003  23.3924079
  55.3934956  73.1498766  24.2975068  55.8830690  73.0767107  22.8671408
  17.2199154   1.5231391  63.2846616  18.1300401   1.2836667  63.1098692
  17.1227979   2.3934718  62.8982346  62.6860046  63.4932137  48.2568073
  62.9018831  62.9930449  47.4697495  62.2065687  64.2554474  47.9322004
  35.0390077  16.5881289  28.9174843  35.6173826  16.5751780  29.6800804
  35.4647566  17.1871031  28.3041310  77.5331211   5.6212748  44.7342968
  78.2553912   5.8406771  44.1457224  77.4459553   6.3868273  45.3022337
  11.7388368  75.1178598   2.6127487  11.4284730  75.2047491   3.5140550
  12.2603155  75.9062433   2.4619520  14.6838378  74.6639283  59.9795978
  14.2385673  73.8201888  60.0575070  14.9598693  74.8723896  60.8721123
  23.7104225  61.8833685  24.9093175  24.3621039  61.9501591  25.6072283
  23.1524634  61.1512709  25.1718855  80.0746918   2.3201884   1.2415782
  79.5768738   2.6975192   0.5163000  80.4772568   3.0736674   1.6733658
  45.3775739  33.5284206  64.9664466  45.7892275  32.6678296  64.8880361
  44.4455242  33.3391353  65.0745861  58.7468958  76.1986589  42.3651934
  59.0823030  76.1291599  41.4713812  59.3000746  75.6070185  42.8752804
  39.4459057  13.6668988  50.5414121  39.2828798  14.5312949  50.9188680
  38.6904239  13.5060569  49.9760692  76.5335989  73.7943697  24.4787836
  75.8108425  73.3368397  24.9083424  76.9114161  74.3435574  25.1657152
  68.9195490  46.8795681  41.6388750  69.6333265  46.8603897  41.0013962
  69.3505335  47.0524979  42.4758816  59.8430681  80.2537632   8.7435645
  59.5818520  81.1738396   8.7817770  60.3543568  80.1832294   7.9374391
  72.5936460  49.6607113  25.7508683  72.7149868  48.7649393  26.0656691
  71.7203808  49.9058437  26.0567331   3.5973478  78.1473780  49.8938417
   3.8816667  79.0244532  50.1509953   3.9390588  78.0352974  49.0067673
  58.9611721  74.5951414   1.7539571  59.3925810  74.9624157   2.5254673
  59.3834925  73.7458897   1.6249323  68.4576512   2.5190104  33.8658619
  68.1853605   2.1503676  34.7062159  68.0592156   3.3891142  33.8456392
  57.4085093  76.4692831   0.5426998  57.9030848  75.7698393   0.9697936
  56.6371012  76.5897369   1.0964633  65.0399876  50.7086086  14.3751514
  64.9419546  50.0518942  15.0646055  65.9778166  50.8994246  14.3577302
  70.8397436  78.7085104  20.1932240  70.4986715  77.9228115  20.6205177
  70.1409245  79.3556213  20.2887726   3.0344700  28.5762521  63.7286959
   2.4095416  28.9125606  63.0863605   2.7554249  28.9620372  64.5590798
   3.8835382  57.8104682  49.5464413   4.4479465  58.5695226  49.6931116
   3.9488792  57.6414640  48.6065475  55.6174278   5.2930328  65.1976238
  55.6272125   6.1346646  65.6534652  56.5416622   5.0772449  65.0732653
   4.8221803  47.0290327  11.9876635   5.0033212  46.9642973  12.9253364
   5.4743124  47.6483536  11.6599429  66.5221882  54.0489817  36.9932389
  66.8929482  54.6326971  37.6550889  67.2481728  53.8740826  36.3944173
  54.3912125  72.0810413  41.3941860  53.8076115  72.6553679  40.8984184
  54.1294098  72.2035313  42.3067045  66.4139557  69.2729092  39.5146656
  65.8988619  68.5219336  39.8095250  65.8129978  70.0152540  39.5779824
  83.7475395  43.0476904  20.0296330  83.1371021  42.5730276  19.4654524
  84.1736412  43.6758518  19.4464660  16.2855935  62.9144239   5.8514643
  17.1060455  62.6678038   5.4245341  16.3741732  62.5883532   6.7470449
  16.2646675  18.6455938  35.5715982  15.9547042  18.7715455  34.6747748
  15.5358982  18.2151767  36.0186641  47.0332336  41.4234543  18.9142764
  47.2966766  41.5486002  18.0025923  47.8274584  41.1192751  19.3534946
  23.7672996  33.3996268  67.4880500  23.4357309  34.2782994  67.3030476
  23.9997720  33.4218808  68.4163244  64.9465752  67.2356939  40.6570053
  64.5106268  67.3023653  41.5065575  65.1111650  66.2994194  40.5450821
  45.2699995  25.0834199  56.0231869  45.0984954  24.8760911  55.1045839
  46.1326790  24.7067138  56.1967210   4.1098212  77.3862751  58.4804909
   3.7158345  77.4884350  57.6141374   3.3802890  77.4978740  59.0900449
  33.1669737   9.3771590   9.1168457  32.7974535   8.5070075   9.2669314
  34.1063810   9.2670573   9.2638826  45.5629158  34.7183847  18.1123817
  44.6725655  35.0427794  18.2475686  45.9814167  35.3865170  17.5695312
  51.9890023  10.9050215  37.5350213  52.6248861  11.4068736  37.0250845
  51.1501050  11.3301981  37.3569369  26.3213586  46.1757442  69.7022337
  25.8125114  45.7075282  69.0403606  26.7977333  46.8440410  69.2096136
  50.2714491  53.7125969  19.7113645  50.5222368  53.1125975  19.0089834
  51.0393238  53.7479258  20.2817607  72.0551491  67.3688602  22.1158624
  71.7805386  66.7008543  21.4876986  72.2150898  66.8845940  22.9258871
  46.5481364  73.1462915  56.9743947  46.9926952  72.3561032  57.2813193
  46.5724360  73.7412079  57.7238707  81.2008737  79.8113306  67.8854428
  81.2599968  78.8582857  67.9520871  80.6984876  80.0746401  68.6564849
  67.6765966  23.5514426   2.7701908  67.3380852  23.1526875   1.9685446
  67.1139717  23.2083321   3.4644264  15.7156133  53.4398694  66.8686346
  15.6545066  54.1924579  66.2803240  14.8083781  53.1645317  67.0003353
  64.4698143  52.0359898  11.8930006  64.6666956  51.8159866  12.8035319
  63.6466360  51.5831661  11.7097962   2.8897285  50.3163124  51.6515927
   2.7653980  49.7880377  50.8631138   2.4601745  51.1482687  51.4526872
  80.1002407  14.1582465  27.1952701  80.2958488  14.8586702  26.5728736
  80.7977295  14.2163718  27.8482389  82.6483892  43.9176555  37.2794811
  82.2770380  44.6786667  36.8331711  83.4672760  44.2378612  37.6578013
  43.6707817  74.8252638  60.6222050  43.1477510  74.1229589  61.0087763
  43.6233341  75.5378516  61.2595419  64.5491457  44.2737532  14.6695888
  64.7264957  44.2194176  15.6086457  64.8836803  45.1327944  14.4119740
  35.8115816  13.8660976  60.4975490  36.3917255  13.8581678  61.2588642
  35.9844684  14.7066089  60.0734214  32.9861379  53.6039877   8.4863901
  32.2083044  53.6602211   7.9313719  33.7050414  53.4419441   7.8755295
   7.8090495  18.0269134  18.2884645   8.3487082  18.7542379  18.5983026
   7.9683959  17.9953194  17.3451507  79.9617599  36.9804893  48.5347573
  80.6466984  37.4794401  48.0896346  79.6087621  37.5866343  49.1860740
  67.3485565  26.7505383  25.1868105  67.0790672  27.0834017  24.3307686
  67.5598335  27.5349188  25.6931138  27.9568815   1.0955163  36.9204204
  27.1862697   0.6306811  36.5943615  28.5752630   1.0758897  36.1900393
  73.4245991  70.6493695  42.8552453  73.0575727  70.9779294  43.6759583
  72.7994655  69.9866040  42.5616686  48.8039875  69.7366381  14.6506488
  47.8623009  69.9070549  14.6302676  49.0945435  69.8893452  13.7514865
  26.7316008  27.8812003   4.0651798  27.5240397  28.1380820   4.5366517
  26.9315886  27.0126963   3.7159857  79.6921324  70.9018166  68.0479575
  79.1403269  70.1216610  67.9922656  79.5910620  71.3279278  67.1968142
   1.6821170   3.4743425  58.2309238   1.2615823   3.5960599  57.3797087
   1.0438203   3.8051196  58.8629000   0.8824944  23.9885064  55.5269675
   1.6900968  23.8595697  56.0243492   0.2312112  24.2290851  56.1858921
  33.9117288  10.2054044  39.9202530  34.0265941   9.2898246  39.6657817
  33.1955051  10.1895066  40.5550758  39.7266626  13.8818443  23.2499194
  40.2460623  13.1264699  22.9744816  40.3249454  14.4006717  23.7876058
  65.0661469  25.8998156   1.5167172  64.4787645  25.5803633   0.8317605
  64.5389509  26.5277648   2.0106553  57.4491190  74.6811564  47.1495048
  56.9002889  75.1224168  46.5011947  58.3351682  74.7382267  46.7918889
  39.1744280  11.4927578  13.2199407  39.5760202  11.5219843  12.3515511
  39.1938138  10.5668068  13.4617484  49.4030905  44.2881346  17.4973607
  49.4808960  45.1210165  17.0320833  50.3040218  44.0522623  17.7185392
  70.9261417   7.8145987  11.5525460  70.6646347   7.0493150  12.0645881
  71.5130854   8.3009684  12.1314847  67.4871445  53.5694218  14.0412199
  67.0681190  53.1498671  14.7926319  67.0910740  54.4399166  14.0012896
  20.6035566  74.2954881  39.4303362  20.8600663  74.2720802  38.5084431
  20.3205203  73.4016116  39.6229665  23.6141872  74.5967443  44.4869654
  23.5258197  73.9553650  43.7819449  24.1472530  74.1545065  45.1476471
  30.6395483   7.2106239  53.5061960  31.1544227   7.9870387  53.2863991
  30.8061027   6.6012975  52.7870182  38.7454449  80.0161941  48.7255709
  39.1276764  80.7647998  48.2676188  39.2935931  79.9052818  49.5024006
  86.4283848  49.3052387  47.5057745  85.8782101  48.7966347  48.1014776
  86.4520741  48.7876749  46.7009115  39.1090679  29.0814924  38.2448220
  38.8427567  29.4769406  39.0748429  38.4705544  28.3840752  38.0960178
  27.2786355   8.5224134  20.0475001  26.5714002   8.4217936  19.4103765
  27.5656438   9.4298500  19.9454355  41.2948846  11.8217155  70.2564334
  40.8724260  11.1179706  69.7639827  40.6692361  12.5454398  70.2244588
  41.3913726  75.2406924  35.6812143  41.7817592  75.1041358  34.8179722
  41.0431671  76.1317067  35.6483746  54.5909882  29.5250988  14.7130072
  55.0033855  30.0726175  15.3811264  53.7553024  29.9556804  14.5328319
   5.3713321  51.1706264  44.3470852   5.8015775  51.9142420  44.7691719
   5.4442357  50.4590829  44.9831836   8.2151794  71.7247207  55.9116642
   7.9747533  71.0763033  56.5734665   7.8885125  72.5544794  56.2595431
  46.2973796  65.8661349  64.2032395  46.4369892  65.0501902  63.7226395
  45.3579389  65.8785160  64.3863497  65.6481050  70.3325875  62.6601068
  66.3317775  69.9803002  62.0902674  65.9255384  70.0919540  63.5440515
  51.4051771  32.1515584   6.4587504  52.0990562  31.7595387   5.9285790
  51.8697357  32.6300788   7.1453607  20.8515119  19.3550082  69.2497037
  19.9609947  19.0040132  69.2531134  21.2660217  18.9639922  70.0188092
  67.2857475  49.9211216  39.1304398  66.3525963  50.0845337  39.2673969
  67.7121115  50.7393837  39.3851852  76.5880346  38.3776426  25.4197693
  76.8001318  39.1458726  25.9499264  75.8179188  38.6398959  24.9154067
  80.8261226  80.3624423  64.4528971  80.5577492  81.2808211  64.4248645
  80.9915184  80.1332243  63.5383831  42.4444055   2.1862622  60.6991248
  43.2747793   2.4552509  61.0920010  42.6329803   2.1189519  59.7631006
  54.4880294   5.8183070  55.9992449  55.3673648   5.4911538  56.1888711
  54.6033001   6.3881656  55.2388446  27.6036262  81.1906655  56.4708917
  26.8492984  81.0751231  55.8930652  28.0454921  81.9704659  56.1348896
  74.6773075  23.0312606  56.7355291  75.5652177  22.7103492  56.8932132
  74.1696738  22.7065583  57.4792413  53.1808949  42.0958853   7.8660971
  53.3014488  42.9916716   7.5510454  52.3852587  41.7931080   7.4284583
  76.2625933  28.4827352  31.0410094  76.3822842  29.0445995  31.8066549
  75.3919077  28.1023216  31.1568522  57.4458073  78.8754876  52.1125571
  57.3525618  79.0173729  51.1705343  56.6331052  79.2148645  52.4874882
  51.5538286  76.6371353  69.0600174  51.2909578  77.5162561  68.7874824
  50.9778737  76.0516985  68.5683153  65.9888433  59.5031734  65.6287996
  66.7489861  59.3171437  65.0776116  65.6684731  58.6410148  65.8938999
   4.6726655  76.9062407  35.3002850   3.8329648  77.1929200  34.9411957
   4.7837495  77.4276741  36.0952703  81.5557646  59.2390402  67.5046162
  81.5324997  60.1928706  67.4278216  82.1773886  58.9597292  66.8324540
  41.9730473  39.6038198  32.8502131  41.9165421  39.3217516  33.7631631
  42.2506285  38.8210082  32.3744130  65.7936907   3.3585480   8.2409734
  66.7048740   3.4975299   7.9827827  65.8246946   3.2764387   9.1941410
   0.8522081  71.2066777  67.6696853   1.4637851  70.6242306  68.1201960
   0.8835267  70.9258111  66.7551555  10.6339192   0.0227853  55.1540176
  10.5672431   0.9425517  54.8974709  10.1834821  -0.0239114  55.9973196
  63.7781763  36.5167737   9.3103808  64.4548655  35.8798647   9.0808690
  63.7184668  36.4694571  10.2645445  18.0183124  74.8907025  70.0392994
  17.7874040  75.5722101  70.6705358  18.1130456  74.0976913  70.5669267
  68.1226777   5.4303619  63.6365269  68.0007612   4.6818610  64.2205743
  67.2810703   5.5258151  63.1906371  41.4992762  26.5097213  26.7916846
  40.7505989  25.9429049  26.6061115  41.2975359  26.9026327  27.6408911
  14.7414279  15.8877826  47.0970535  15.5310464  15.3789806  47.2810555
  14.8580647  16.1941516  46.1977386  74.8541569  62.8908165  58.9822821
  74.8178028  63.6729605  59.5328824  75.5154203  63.0941279  58.3207480
  84.8166275  37.8172898  12.4464846  84.3564129  38.4364653  11.8798637
  84.4655800  37.9862237  13.3208191  30.1841617  75.5224943   9.6881539
  29.9185395  75.1972866   8.8279688  29.4689584  75.2686596  10.2714956
  80.6964706  63.4270580  63.7840800  80.4511999  64.3417342  63.6446504
  80.2497410  63.1800516  64.5938043   2.1039581  42.2537337  70.6272047
   2.5173568  41.5083072  70.1916909   1.3140010  42.4231103  70.1138702
  31.0499572  80.9665377  71.0533738  31.9669055  80.9281666  70.7814024
  30.5866241  80.4303963  70.4098600  14.9610925  38.9190221  15.2784097
  15.1570535  39.8027658  15.5895877  14.5856882  39.0494609  14.4076121
   0.9232894  44.7106457   5.1504683   1.4961469  44.1935110   5.7167155
   1.3617992  44.7080898   4.2996246  23.5756397  42.9868603  17.2235227
  22.7903748  43.4891033  17.4410987  24.1268539  43.6018515  16.7396045
   0.2529477  64.3558009  53.8718490   0.7633065  64.9893673  54.3761889
  -0.3728915  63.9971812  54.5010929  75.7831119  25.2603073  64.2836438
  76.0533117  24.5116968  63.7518476  74.8508190  25.3650220  64.0936588
  55.4666328  20.6105777  49.9333517  55.7424163  21.4578935  50.2829663
  55.6830406  19.9844762  50.6242959  25.7248783  19.9781819  66.8662415
  25.3760528  20.7485267  66.4177741  24.9617433  19.4184371  67.0095442
  84.6867441  49.8242767  53.4963529  84.0832733  50.2907915  54.0746395
  84.7143005  50.3551908  52.7003614  14.3456649  15.2880355  63.8200710
  14.2545795  15.1926013  64.7681366  14.5336675  16.2175151  63.6898778
  13.0497694  42.4666071  14.4872010  13.2490814  41.5847301  14.1728711
  12.1294641  42.5995445  14.2600465  40.0383472  67.1965981  16.9837642
  39.4602942  67.8331518  17.4043465  40.7326174  67.7260828  16.5915000
  14.7789812   2.6481219  59.2987852  14.2249918   1.8675300  59.2986576
  15.0755167   2.7312204  60.2050917  53.7789488  37.4891233  16.3804293
  53.4489775  37.3853374  15.4879153  54.4665813  38.1508398  16.3061261
  81.7105770  68.9296579  22.7765489  81.4959812  69.2242002  21.8914342
  81.1612511  69.4667816  23.3474898  58.7201691  44.5128965  10.8373117
  58.9290047  45.2878618  10.3157353  59.4829607  44.3921041  11.4028096
  15.8879673  42.6764250  32.3345494  15.2493954  43.3314657  32.0528150
  15.9678817  42.0831013  31.5876794  11.3488328  21.1265206  21.0794020
  11.2665462  22.0739102  21.1885548  10.9267700  20.7584310  21.8556786
  71.3675786  42.9114692   2.8749736  71.2073255  42.1749847   2.2849496
  71.1744500  43.6869113   2.3480590  34.1238165  71.7698288  23.3991838
  33.6501718  72.3623514  23.9829707  34.9864388  72.1721601  23.2979894
  43.5721135  52.7835894   5.6962317  43.7353205  51.9201994   5.3165650
  44.2138743  52.8599453   6.4023113  25.1554945  19.7664965  59.5314360
  24.3913162  20.1023425  59.0629625  25.2498445  20.3493918  60.2847958
  24.4562564   4.7561205  20.2547455  24.5049268   3.8003577  20.2742147
  24.2999977   5.0065840  21.1652851  40.3414392  77.2246885  22.3352742
  39.4949722  77.0132303  22.7289844  40.1705122  77.2397757  21.3935781
  26.4060783  71.9731569  37.4023700  25.9695768  71.8737507  36.5563107
  27.1539736  71.3774443  37.3574805  49.1456867  27.5241030  19.8667824
  48.8083518  28.4127081  19.9799848  49.4526530  27.4980868  18.9605117
  49.7069955   2.5421084  41.6702700  49.6809101   1.9962061  40.8844280
  50.6236410   2.8066481  41.7478180  24.4593692  73.6002493  61.8030167
  25.0454211  74.3567371  61.7806911  25.0405145  72.8508043  61.9327784
  84.1338825  58.8754511  45.2627611  84.2715853  58.0830526  45.7817745
  84.6778836  59.5381117  45.6884146  68.8198710   2.5754298  13.6946046
  69.6389294   2.9523028  14.0160811  68.9559937   1.6292418  13.7438607
  46.0973776  29.3023337   5.7813174  46.5033102  28.7225569   6.4257663
  45.8613146  28.7252081   5.0550663   5.8244675  74.9707556  17.0398605
   6.6681314  75.1685762  16.6332519   5.5773175  75.7812071  17.4851859
  64.4726681  52.4950647  36.1265182  65.1928067  53.0134964  36.4854956
  64.8927283  51.7054081  35.7856059  45.3721881   2.0081461  20.7982063
  45.6159091   2.8062380  21.2671137  46.1554087   1.4592112  20.8365035
  16.0773111  16.3878859  61.4247227  15.8811140  15.4529704  61.4853239
  15.3809500  16.7434538  60.8725595  82.1144354  58.3194733  24.2139244
  81.5394097  57.5557852  24.1653275  82.0429837  58.6157370  25.1213145
  15.9095204  21.9617022  44.3889427  16.5021384  22.6928938  44.5632935
  16.0874188  21.7207564  43.4798050   4.3918541  49.4705057  32.4452186
   5.2379549  49.2822552  32.0391345   3.7486783  49.2531776  31.7704415
  52.6970935  25.3907431  37.5498986  52.1238375  25.3889788  36.7833447
  52.4978876  24.5697154  37.9998446   3.3171535  20.4858160  41.8174219
   4.2504331  20.4906249  41.6048241   3.2630074  20.0120473  42.6473856
   4.3239191  79.7084713   6.8604988   4.8089564  80.2873516   6.2723982
   3.5453334  80.2101707   7.1020269  34.0660102   2.1649874  28.4557772
  33.7343422   1.3404788  28.1002164  35.0139344   2.0410193  28.5037899
  19.9322736  41.4323425  37.7018189  19.0599084  41.8073702  37.8225136
  19.9702740  41.2086964  36.7718911   2.2516400  47.2960758  50.3824520
   2.0993385  46.4655018  49.9316931   1.6583428  47.2734261  51.1332607
  43.6915100  31.1505450  20.0918221  42.9243255  31.0375823  20.6529832
  43.4142125  30.8195723  19.2375422  53.3327675  10.7166613  39.7513008
  53.3810997  11.6650618  39.6311831  52.6142717  10.4395426  39.1827917
  77.1346634  76.2997007  20.2586174  77.0820760  76.5180206  21.1891031
  77.4306535  75.3895569  20.2425027   6.7436469  51.1387634  33.8387609
   7.1579981  51.2176991  32.9795098   6.5701628  52.0417118  34.1048670
  83.4222015  72.8466272  28.3793187  82.7223074  72.9910183  27.7425051
  83.5331213  71.8961477  28.4019113   6.9104457  13.2551135  10.2642906
   7.6452685  12.7675570   9.8920566   6.3265205  13.4118308   9.5221978
  85.8971986  59.6820402  25.1560187  85.3956167  58.9654636  25.5448222
  85.7010719  60.4388905  25.7082367  30.5610155  15.0002707  21.2746954
  29.8849494  15.2971209  20.6655598  30.0785458  14.5445670  21.9644690
  19.0464115  17.2885359  15.1732922  19.8063112  17.6100958  14.6881318
  19.2213339  16.3562811  15.3019261  73.7149155  66.2131500  18.5267305
  74.0713870  66.8440056  17.9012907  72.7809679  66.4186859  18.5683048
  11.3598013  52.3818398  44.4841957  11.5013385  53.1522703  45.0343180
  10.4668629  52.4835587  44.1547346  73.1960260  17.4533769  66.5265228
  73.8959979  16.8458339  66.7656107  72.3977994  16.9265815  66.5659441
  56.5338027  29.2224666  56.7233269  56.8522652  29.5854493  55.8968548
  57.1517964  29.5436879  57.3799328  20.8801150  40.4564142  57.4076033
  20.7913041  41.3710928  57.1398306  21.3941216  40.0512028  56.7091513
  78.5052067  50.8056784  41.1913538  77.8827208  51.1659575  41.8229723
  79.1557204  51.4980793  41.0745382  27.8957582  74.9519348  11.1164701
  27.7941990  75.8490229  11.4345109  27.1352983  74.8101521  10.5527079
  48.9269615  25.9017600  28.0873299  48.6379493  25.1129187  28.5460663
  48.1434834  26.4491976  28.0353236   1.4519310  22.5832022  17.5678146
   2.1538306  21.9379939  17.6530659   0.8688832  22.2164381  16.9031572
  46.7427826  75.4653358  14.3188834  46.9059467  74.7354126  14.9162292
  47.5473785  75.5392742  13.8056624  66.8765103  73.3989286  37.5324774
  66.6141486  74.3172407  37.5964665  67.2155046  73.3081770  36.6419268
  75.2806675  74.0936756  60.1829624  75.2985882  73.5229778  59.4147062
  76.0239636  74.6841383  60.0600910  15.6854582  60.2064276  49.7456455
  16.5828776  60.1292086  49.4217491  15.6760025  61.0316706  50.2305317
  16.1689043  54.2934799  51.5201092  16.1448574  53.3665800  51.7578220
  15.5986404  54.3591738  50.7541370  30.9680356  16.7678679   3.8349074
  30.6055385  15.8978785   3.6677349  30.8949758  17.2230185   2.9960245
  44.2710829  71.3808203  34.3148994  44.5024586  72.2659922  34.0335202
  45.1052475  70.9120798  34.3410277   7.5267364  50.1834838  11.3255246
   7.1758939  49.8501174  10.4996903   7.5701524  49.4152038  11.8948205
  39.9343503  13.7649191  19.1965032  39.2561508  13.0931605  19.1256702
  39.6646285  14.2997874  19.9430943   3.0601561  64.3502283  19.4621408
   3.7635431  64.1665888  20.0848413   3.4246123  64.1079664  18.6108410
  68.5386515  20.2835501  13.5832727  69.2459107  20.0925768  14.1993439
  68.9552689  20.7990111  12.8926456   3.2222673  47.6809931   9.9663746
   3.7920195  47.5666571  10.7269943   2.6520744  48.4128094  10.2020764
  42.1777296   6.0612334  69.9262285  41.4448774   5.4496802  69.9981451
  42.6326812   5.9896029  70.7653475  52.6397443  29.6282423  46.4275312
  52.0898342  30.4031886  46.5428162  52.0365477  28.8907088  46.5193415
  41.8388580  26.6001960  69.5900519  42.6053702  26.9803020  70.0192509
  42.1993636  25.9462377  68.9912145  50.4265213  21.0721529  20.4288650
  51.1090255  21.0710562  19.7577322  50.8994580  20.9471167  21.2516212
   0.3121492  37.1546650  24.5415139  -0.5437267  36.8922257  24.2026401
   0.7143413  36.3372517  24.8352957  19.9682331  66.9302845  46.7897463
  20.3144026  67.8184557  46.8766356  20.1737976  66.5103245  47.6249790
  39.8531235   7.3809947  26.3934946  39.6682454   6.6002215  25.8715296
  40.3870750   7.0618380  27.1210027  10.8835483  57.7030897  33.5330963
   9.9383646  57.5639915  33.4738326  11.2426829  57.2310019  32.7818394
  17.7709234  28.2616425  31.2392807  17.1889055  28.9856005  31.0082579
  17.8655100  27.7621865  30.4282141  18.1942070  58.8446283  54.2959976
  19.0231383  58.4490633  54.0264893  17.5272453  58.3532619  53.8164663
  42.9875434  16.1170329  16.5118945  42.7763296  16.8409480  17.1014476
  42.8940022  16.4877165  15.6343532   1.9880477  78.0264425  28.3804131
   1.3438743  78.7040138  28.1750584   1.9019687  77.3908949  27.6698494
   8.2969368  63.1396866  34.3681502   8.6537755  62.9586506  33.4985971
   9.0666050  63.2987976  34.9145269  37.9104233  54.8119640  35.4663777
  38.3689499  54.0307951  35.7758307  38.4057117  55.0911188  34.6963167
  60.3388283  22.4419805  66.5172691  59.4063242  22.2351905  66.5797622
  60.6441002  21.9447347  65.7584636  61.8400240  22.5034560  23.8341832
  62.5786972  21.8997992  23.7554336  61.0957694  21.9436587  24.0554214
  59.6796465   2.0514334   5.6265306  59.5652438   1.1927069   6.0336190
  58.7889457   2.3499335   5.4427224  20.3876352  46.5244341  37.8758049
  21.2942696  46.5744019  37.5729060  20.3332424  45.6843042  38.3312845
  16.2126446  74.6850920  32.9787540  15.3620780  74.3027639  33.1946039
  16.4572549  75.1814890  33.7597728  38.5362000   8.4109438   8.6435205
  38.5448587   8.0631388   9.5352542  39.4102860   8.7818755   8.5226113
  24.6396303  77.3557711   3.4506407  23.9917684  76.7316341   3.1235963
  25.3844810  77.2610092   2.8569657  33.4259295  79.8890162  11.5719652
  32.7699924  80.5845547  11.5250278  33.4790421  79.5492077  10.6786895
  86.0847950   3.0180586  14.6104372  86.8104697   3.5999430  14.3845296
  85.4292155   3.1780947  13.9315879  24.9579037  15.0306834   0.4130507
  25.6335342  15.5258883  -0.0501170  24.8479376  15.4942454   1.2432591
  64.6952987   0.9792269  24.8077774  65.2111268   1.0730494  25.6086206
  63.8563538   1.3916052  25.0135589  16.1838770  56.4770269  53.4283876
  16.3226807  55.8224726  52.7439022  15.7178020  57.1881771  52.9887581
  33.1773049   7.2791899  61.9743156  33.1465784   7.5522936  61.0574150
  32.3115281   7.4984587  62.3186779  30.9483838  79.9788094  33.1432104
  30.9846568  80.2530670  32.2268605  31.6302991  80.4937744  33.5745192
  47.4093914  17.2987689  38.5275483  47.2091818  16.3715399  38.3995342
  47.7034200  17.6011694  37.6682830  83.6482253  51.2825727  55.6160784
  83.2886341  52.0660877  56.0320425  84.0151017  50.7743025  56.3394737
  82.5761830  50.7432556  39.5493484  83.3584964  50.5446529  40.0639105
  82.7875432  50.4413462  38.6659384   2.7235910  62.2148657  62.3406839
   3.0609116  62.9651785  61.8513203   1.9017133  62.5261641  62.7199459
   7.8789335  74.4809628   3.7821543   7.0822078  74.4326496   3.2538307
   8.0979842  75.4125786   3.8005641  41.6287266  11.5281078  47.3322598
  41.7939316  11.1841556  48.2101194  41.2729894  10.7839843  46.8464963
  70.4988610  27.3968101  25.0024080  70.0097191  26.6869092  24.5864606
  70.8708298  27.0015073  25.7908273  18.9382064  15.2750397  32.3447180
  19.1430759  14.7847247  33.1408668  19.3925810  16.1103678  32.4542785
  79.0710604  20.5303597  60.0665951  78.6054796  21.3289595  59.8181915
  79.0852433  20.5491924  61.0235023  74.3749582  64.0075827  23.0347633
  74.8814725  64.8058605  23.1845140  74.1491270  64.0380812  22.1050835
  16.3534486  32.1294689  13.4797370  17.1219194  31.5670204  13.5763586
  15.8183050  31.9382358  14.2499864  73.7167334   5.0849396  24.8760796
  73.9482581   4.8710436  23.9722681  73.3648586   4.2692897  25.2326345
   4.2984390  65.5105448  27.7572036   4.8316634  65.5098104  26.9622803
   3.8161206  66.3365650  27.7213168  11.0533023  51.6194773  28.3466601
  11.2334239  51.1911964  29.1835356  10.1497412  51.3776159  28.1434083
   3.1433114  32.9378176  -0.0509074   3.4180254  32.8027773   0.8560261
   3.8717359  32.6033616  -0.5741366  34.8186135  59.3528700   0.8670656
  35.2146840  60.1154947   0.4454444  34.1956591  59.0189266   0.2215882
   6.2070906  51.8908978   5.4650599   5.3992760  51.3799381   5.5159253
   6.2939888  52.1098423   4.5372975   1.1323798  50.4713345   7.2813040
   1.3379838  49.5619965   7.0643741   1.9769636  50.9209538   7.2538882
  50.5483198  75.6968594   8.1090623  50.8735323  75.0564051   8.7417400
  50.3186512  75.1772070   7.3387086   3.6441204  29.2532110   4.5135990
   3.8458320  29.5049191   3.6123845   3.3175442  30.0563645   4.9192142
  76.4932334  64.2764759   9.3208969  75.9797656  63.4776974   9.2003322
  76.1934375  64.6297836  10.1584697  13.3967376  46.7586470  19.1908216
  12.9974139  45.8972931  19.3126249  13.2814264  46.9465494  18.2593560
  67.7509462   3.2232305  61.3984982  68.0780434   3.0647870  62.2840123
  67.1038120   3.9206811  61.5034334  23.1369734  15.3681064  31.8900824
  23.8970971  15.9336519  32.0264697  22.5161815  15.9135866  31.4070725
  33.9575028   7.9190499  19.2052746  33.2537794   8.2515788  19.7624350
  33.7386060   8.2351142  18.3286786  63.6953711  61.4034224  34.4442987
  63.7245440  61.7718458  33.5613251  64.5391392  61.6389179  34.8300838
  69.0817546  47.7513599  25.6715989  68.4693777  48.1442547  26.2935781
  68.8155782  46.8333149  25.6208491  14.9842203  42.5090218   6.1855346
  15.1057959  42.5119925   7.1349776  14.0348470  42.4852753   6.0657072
  69.9726271  44.1948462  21.1560392  70.1811170  43.5599279  20.4707336
  69.0333402  44.3517971  21.0594082  72.3142790  48.3027267  66.4935589
  72.0195841  47.3933029  66.4452314  72.9997503  48.3680344  65.8286572
  23.8370156  59.2761040  21.8649554  22.9457736  59.0026569  22.0820904
  24.3550944  58.4734535  21.9247842  12.5614536  22.9509521  30.2222729
  12.2034442  23.3527446  29.4306755  12.9819465  22.1481299  29.9142265
  83.0917009  38.4164476  55.8874035  83.9233872  38.6558151  56.2963438
  83.2696101  38.4465075  54.9473619  71.5364849  36.7661262  27.9975295
  71.9358730  36.9418168  28.8495016  71.7269194  37.5472450  27.4780846
  11.1706734  80.6324959  48.8354683  10.8908796  79.7174263  48.8599062
  10.6793928  81.0521126  49.5417213   8.3327144  47.5735331  27.8064156
   8.9725333  46.8630457  27.7609253   7.5065416  47.1387005  28.0175734
  84.3586103  39.1306424   1.5472734  84.7666993  39.8921514   1.9593398
  85.0210157  38.4422565   1.6070515  29.0152454  28.6589432  31.7408919
  29.2364645  27.9681873  31.1162710  28.1144857  28.8989496  31.5234947
  56.1932278   3.0419005  18.3019519  55.5218625   3.7229002  18.2602584
  56.6301966   3.0839575  17.4513519  11.9192028  56.8492270  12.8129756
  11.1933637  56.2289333  12.7449727  11.9135058  57.3170424  11.9779027
  17.4786127  64.1148663  18.7145221  16.5426683  64.0586472  18.5219610
  17.9070187  63.8676596  17.8950167  13.6444722  55.4694469  60.0743656
  13.3453857  56.3755043  60.1507728  14.2812001  55.3669496  60.7816867
  16.2003672  20.3904533  20.8746624  16.8419266  19.8056817  20.4713321
  15.5087924  19.8075986  21.1880875  75.0334894  20.9365702  24.6385002
  75.6023788  20.3020477  24.2026377  75.2260768  21.7681217  24.2053008
  26.5775834  63.4189804  57.3117701  26.9231496  62.9160078  56.5743176
  25.6510662  63.1816800  57.3503379  70.5855500  33.8018632  20.1502299
  70.2321910  34.4451332  20.7646990  71.2788319  33.3589220  20.6395078
  85.0084352  46.5393353   6.8278313  84.5969985  45.7719898   6.4301741
  84.4502358  47.2721577   6.5677989  60.6731286  13.9113160  60.4343323
  60.1310524  14.1508552  59.6826641  61.1449560  14.7143813  60.6549923
  14.8425245  16.9963428  57.1844165  14.4733095  17.5523397  56.4982836
  14.1714716  16.9804975  57.8668146  53.0160856  57.3140574  37.8651667
  53.3445596  56.5385914  37.4102044  52.8291344  57.0095253  38.7531662
  30.0195980  68.9355564  20.2058530  29.8673558  68.6051130  19.3204939
  29.7698450  69.8586130  20.1632309  41.7236770   4.8785056  12.3592699
  42.1262157   5.3522433  13.0871224  42.3514760   4.9635542  11.6417277
   6.9906932  51.5859461  51.2120342   7.6386368  52.2829962  51.1094570
   6.3072133  51.7988634  50.5766201  54.2584324  18.3304633  17.5269437
  55.1072669  17.9768122  17.2611475  53.8758660  18.6689127  16.7174232
  15.6246424  64.0710211  14.7300875  14.9835050  63.5537910  15.2175784
  15.4768336  64.9710846  15.0203800  39.5244287  77.7239115  54.1322998
  39.2568241  77.4902661  55.0211362  38.7698393  77.4989422  53.5880427
  15.3043222  57.3771429  24.5251417  16.0951567  57.5507307  25.0357127
  15.6167173  56.9070578  23.7520576  67.3718202  57.1595335   0.5622822
  68.1632757  57.6948023   0.5046480  66.7457747  57.7078342   1.0352178
  24.6454239  56.5562916  27.0094323  25.5881786  56.3911200  27.0223141
  24.5332456  57.2536373  26.3634014  81.9653958  79.8890543  29.3537569
  81.3282799  80.2304268  28.7262368  81.4348244  79.4534254  30.0208020
  68.1123852  40.5136061  25.5108404  68.2699871  40.9753513  26.3343596
  67.2228896  40.1702261  25.5952096  21.4979744  31.0109878  28.1602573
  20.8271027  30.8406425  27.4990869  22.1853876  30.3713679  27.9742980
  30.1605153  37.7391815  26.0986137  31.0566020  37.6761055  25.7680392
  29.6532536  37.1627426  25.5270934   2.7517581   5.6549204  67.4770308
   3.5191822   6.0086478  67.0274067   2.2478414   5.2231825  66.7871761
  25.0485492  76.3975191  21.8005657  24.9208331  75.7148838  21.1418319
  25.1551032  77.2025108  21.2937450  37.2329688  54.0257168   3.9790776
  37.0930028  53.6847925   4.8624861  36.8943787  53.3413601   3.4018046
  81.2763261  50.3823920  53.9287953  81.2704825  50.3184386  52.9737524
  82.0285081  50.9402534  54.1268901  78.4653204  72.3667908  14.3016160
  78.3154088  72.5566530  13.3754897  79.4169122  72.3955059  14.4010174
   3.4851560  25.5954242  29.1462827   3.4709814  26.5327120  28.9525795
   3.2507515  25.5387139  30.0726032  34.9237489  15.5884429  65.9590877
  35.0322174  16.5379735  66.0126035  35.3382801  15.3463145  65.1309757
  10.4699397  52.7529621  35.2444768   9.9612802  53.5441208  35.4221344
  11.3694990  52.9911852  35.4686975  75.7831931  71.6611147  17.1629345
  76.6762459  71.8507004  17.4505925  75.8717656  71.4420176  16.2353659
  43.8315773  62.4327469  22.1337199  44.0056801  61.6783094  22.6965165
  43.9981222  62.1134710  21.2468386  14.0157390  73.1547022  25.9788346
  13.3761227  72.6261425  25.5016041  13.5731423  73.9904308  26.1268163
  25.0833416  66.0989380  13.7357962  25.6148481  66.7607594  14.1782022
  25.7180142  65.5532265  13.2714486  12.2052062  77.2792721  31.3488340
  12.1870577  76.3258839  31.2654448  12.5680351  77.5855350  30.5176950
  61.7994070  58.4609413  17.4979532  60.9819459  58.5868692  17.0161521
  61.9013357  57.5107479  17.5525057  83.9651507  74.6871471  66.8828773
  83.4146574  74.8859787  66.1254740  83.6066845  73.8711023  67.2318888
  11.5641260  42.3905822  70.4602306  12.0336485  42.6029750  71.2668715
  10.8901381  41.7677280  70.7323223   7.8517312  40.2354050  15.4118729
   6.9489020  40.4633188  15.6336534   7.8593731  40.1901340  14.4557750
   7.2657824  67.1946192  12.3787630   8.0835205  67.6918888  12.3626637
   7.4624872  66.4275122  12.9164302  83.8873618  56.1831808  14.8353851
  83.7544015  56.4378071  15.7484674  84.5776110  56.7675495  14.5218539
  86.2764586  50.1944780  27.1878195  86.5310890  49.6652174  27.9436469
  87.0980655  50.3654480  26.7274237   8.8348001  43.6322546  20.7620096
   8.0478114  43.9615679  21.1960983   9.4576156  43.4859562  21.4739990
  39.5773983  28.8489389  26.4588976  39.5707059  28.9107466  27.4140763
  39.0888095  28.0484486  26.2672520   1.8756683  37.1972680   1.3950115
   2.0686550  38.1158233   1.2072759   0.9277763  37.1240902   1.2837562
  72.4100768  16.4822360  69.8235810  72.3385798  17.4153253  70.0247366
  72.6849996  16.0799810  70.6474987  37.7578711  63.9416790  11.0085821
  38.6386704  63.8335800  11.3673878  37.8717351  63.8503170  10.0625813
  74.7910511  15.6010314  68.8336800  74.0047132  16.0115501  69.1933702
  75.4286122  16.3128015  68.7777464  29.6843624  68.1922865  23.3530736
  28.8822985  68.6123991  23.0425453  30.3835511  68.6093330  22.8496456
  10.4464555  54.0256643   2.5953311   9.8580241  53.8267469   1.8670362
  10.9749210  53.2343674   2.6992688  38.4917164  25.9783459   9.5504618
  37.9146242  26.6419792   9.9283326  37.9050851  25.4009366   9.0618968
  85.8405780  18.6542293  67.6627840  85.1847815  18.9973088  68.2697941
  85.3310393  18.2039615  66.9890933  38.6103248  30.6473514  68.4795612
  39.2325544  30.2676889  69.0999816  38.0424976  29.9173471  68.2327957
  32.3545218  49.2611217   6.0801941  32.2346544  48.9064980   5.1992244
  31.4652371  49.3763351   6.4150518  21.9139624  68.9819813  40.9955215
  21.9956493  68.0825853  41.3127756  21.2743473  69.3857193  41.5821362
  34.0566635  80.9428215  15.4892206  34.8828411  80.7734489  15.0364816
  34.3173504  81.2214375  16.3670862  40.8856392  53.2887363  26.1423874
  40.8559608  53.3588362  27.0965576  41.6754055  53.7678480  25.8914804
   1.4729346  55.5192852  29.6848941   1.6967484  55.3907871  30.6066465
   0.7121816  56.0999727  29.7018456  70.3838884  67.6402855  11.7595947
  70.3318381  68.3782196  11.1521637  69.5442545  67.6486540  12.2191358
   0.7892824   9.5774783  19.3782461   1.3182140   9.3289317  20.1363254
  -0.1141333   9.4285239  19.6573210  83.9289235  53.4799739  58.8711302
  84.8701572  53.3515330  58.9886538  83.5251688  52.8025790  59.4136719
  57.2677244  32.3443814  65.8480911  57.7890776  32.0078202  66.5768911
  56.9392788  33.1882926  66.1581950  24.3142962  50.7711697  31.1141062
  23.7406063  51.4866590  30.8399010  25.1720047  51.0016537  30.7571149
  47.4461091  15.8526362  25.2968836  47.1128166  16.2845362  24.5103621
  46.7356134  15.2727450  25.5710149  28.3061647  36.2936974  20.3289318
  28.1127310  36.9269300  21.0201859  28.7299299  35.5653834  20.7830381
  45.0410807   3.8044680  15.3056169  45.2425135   3.7739218  14.3703496
  44.1052986   3.6094130  15.3555727  25.6133175  36.8720913  30.1831126
  25.2661228  36.1523771  29.6561432  26.3880372  36.5050960  30.6089711
  45.9250593  40.1459789  21.1064363  46.1321497  40.6742477  20.3355408
  46.1163521  39.2469788  20.8391690  21.8962264  43.2108259  48.4303141
  22.7637362  43.6047316  48.5225058  21.6111135  43.0463552  49.3291426
  32.4220130  16.4224661   9.5503569  32.9654873  15.6346739   9.5663232
  31.7582536  16.2420786   8.8846862  11.6841972  65.1888943   4.0255257
  11.7470658  65.0743675   4.9737674  12.5298107  65.5591631   3.7724072
   1.3932960  61.0542202  30.8897924   1.8893600  61.7232323  30.4180121
   1.3959697  60.2968121  30.3045034  70.7789266  50.8676624   7.6989579
  70.6792867  51.5505266   7.0356327  71.4897322  50.3169155   7.3708373
  56.4366222   5.4826869  13.8678312  57.3528028   5.5247153  13.5938263
  56.3951874   4.7236670  14.4495630  40.5794835  17.4968565  33.0567241
  40.7829416  16.8627203  32.3691797  40.4564596  18.3239687  32.5909114
  12.0936716  28.6121011  28.4152484  12.6881552  28.9559507  27.7484727
  12.6124966  27.9590273  28.8848734  16.4835000  37.1607208  46.6044235
  15.5273604  37.1306396  46.6379499  16.7135990  36.6235113  45.8463383
  28.4754762  75.8386595  47.6070659  29.2232840  75.4294546  48.0424587
  27.8559563  76.0190423  48.3140938   1.7464586  60.3586054  24.8784804
   0.7934167  60.2702332  24.8669267   2.0216884  59.8822594  25.6617928
  48.0810511   2.4408282  34.2134523  47.4215889   2.4051798  34.9063230
  48.1790722   3.3739317  34.0238738  15.8903408  76.1951733  17.5768185
  15.9296143  75.2388477  17.5882983  15.1324558  76.3971949  17.0281553
  17.0872915  58.0293941  17.0500052  16.4790356  57.7993011  17.7523685
  17.9534304  57.8444529  17.4130940   5.2582401  50.6653118  28.8715053
   5.5492753  51.5217161  29.1847157   5.4556841  50.6730461  27.9349208
  27.0074270   5.8053626  18.2591391  26.2795768   5.1914729  18.1611645
  27.2896648   5.6991995  19.1676009  72.2818886  41.9327422  61.2014787
  72.1320855  41.4950629  60.3634910  73.1240796  41.5917655  61.5026055
  29.2431092  48.2248020  12.0769095  30.0413060  47.8733253  12.4713457
  29.5512652  48.9054680  11.4786077  65.9869348  10.0492116  66.0546662
  66.8723189   9.6984311  66.1509971  65.5096232   9.3679687  65.5810492
  53.1290605   6.5086862  64.5995061  53.2979333   7.4371835  64.7595243
  53.9218461   6.0655042  64.9016838  11.0666299  47.5790882  14.7138679
  10.3026521  47.1308517  14.3510282  11.3375723  47.0319939  15.4510987
  58.0789996  14.7101534   5.0869566  58.3331538  13.8073863   5.2783978
  57.3499108  14.8850287   5.6819999  61.9547432  22.0665094  47.0380227
  62.5044047  22.3653718  46.3136045  61.0984876  21.9094869  46.6400258
  17.3024273  69.5607376  10.5055666  17.2178614  68.8381290  11.1275923
  18.0093920  70.1001596  10.8597612  66.7835837  44.3418952  69.9242256
  66.0156690  44.2365810  70.4858741  66.4538663  44.1950294  69.0376885
  39.9225032  22.7079078  55.3725831  40.2863108  23.5749456  55.5517976
  40.3140973  22.1417113  56.0376458  11.1415136  48.7144566  19.4976032
  10.7228732  48.3206797  20.2630520  11.5578818  47.9793406  19.0476382
  86.6841221  19.7898520  13.9425886  86.6832137  19.6934260  12.9902577
  86.5209055  18.9064158  14.2729294  36.5013909  45.5900049  20.7585788
  37.2951698  45.9111834  20.3308105  36.8204784  45.0279236  21.4646101
  11.0996425  25.1593852   4.5535168  11.6577363  24.8500466   5.2670097
  10.6537342  25.9261179   4.9134058  67.9415237  57.5729513   7.0210737
  68.7498927  57.2069025   7.3799360  67.2828173  56.8957853   7.1752894
   4.4241785  18.2933255  66.6296677   3.6772989  18.5315105  66.0804246
   4.8328756  17.5583001  66.1725722  49.9080937  15.1331826  70.0727397
  49.8325496  14.7660371  70.9534937  49.0038871  15.2186938  69.7705295
  16.2393463  60.5443954   7.5208110  16.7282379  60.1557446   8.2461870
  16.1274660  59.8277569   6.8961948  73.3570765  61.9660671  54.3344371
  73.1364535  62.3478086  53.4848313  72.6286076  62.2127326  54.9042813
  71.7019033  54.2920351  40.3481102  70.7471454  54.2241526  40.3404236
  71.9984722  53.5593271  39.8082805  19.6375263  71.2297201  11.2149286
  19.5253122  72.1795940  11.2521088  20.4361415  71.1027527  10.7027531
  15.2730036  57.2002792  38.7749076  15.5575097  58.1026268  38.9200473
  14.3979478  57.1600485  39.1607714  72.9032397  35.1039028  10.7025230
  73.0173635  34.4374204  10.0250208  73.3056712  35.8906722  10.3347301
  35.7098722  14.2174216  68.8281578  35.8340286  14.3852731  67.8940044
  34.7761845  14.0252563  68.9149536   0.1550317   6.0568465  12.7060342
  -0.0199985   5.3885878  12.0434451   1.0065532   6.4192999  12.4615502
  31.4098062  10.5375899  16.4311111  30.9157172  11.2489069  16.0235190
  30.7930389  10.1384963  17.0447505  37.4541140  77.5329971  19.7284734
  36.8425274  76.8881321  20.0839210  36.8960142  78.2432365  19.4117475
   4.5320511  39.5102310  22.8718472   4.9139631  38.6445141  23.0164409
   3.5987315  39.3417048  22.7424431  27.0460615  16.8127669  55.3315020
  26.6093004  16.0184706  55.0239849  26.5679019  17.0576037  56.1237478
  76.3884865  49.3428489  61.0739021  76.5021335  50.2767917  60.8976201
  75.5448019  49.2846652  61.5222804  75.5283582  54.8030472  21.7358351
  76.1992311  54.8695087  21.0563183  75.9393906  54.2857504  22.4284315
  60.2063968  13.1896611  46.0637967  59.3096440  13.5122367  46.1533133
  60.1185114  12.2365304  46.0568969  17.9675961  41.2621355  44.4022083
  18.4788585  40.4639196  44.2691708  17.7268815  41.2408066  45.3284025
  27.9758859  23.8221335  17.6585674  27.4764681  23.8477635  18.4747529
  27.3102570  23.8067460  16.9708657   8.3766049  57.2810793   7.9131263
   7.7839386  57.7370453   8.5106844   8.3921736  56.3790989   8.2331574
  39.6412992  18.5742295  22.9461718  39.4389009  18.7419724  22.0257759
  40.5769777  18.3724964  22.9527378  55.8629322  68.9576912  23.5816026
  55.9494829  69.4344139  24.4071198  56.3742590  69.4694090  22.9547668
  13.4623742  59.0984678  42.4374580  13.1346107  59.4701195  43.2564068
  12.7223110  59.1597939  41.8334913  72.7256929  22.6283026  30.8138895
  72.4966776  22.4862552  29.8954082  73.3880400  23.3189726  30.7915306
  80.6135606  32.8999110  65.4899387  80.6424832  31.9458266  65.4184155
  81.4280056  33.1314250  65.9363870   9.6100616  56.1134624  39.1686201
   9.7377926  56.6963863  39.9170327  10.0104189  56.5769196  38.4329891
  15.9629416  53.9900160  20.9332180  16.8575108  53.7473488  20.6942844
  15.6132007  53.2141352  21.3713098  51.4855051  51.0425901  30.2959442
  51.9739008  51.8019295  30.6139183  50.6138802  51.1408138  30.6791615
  78.4127849  46.0874653  50.4203892  78.6111986  46.9368219  50.0261164
  78.2738316  46.2804127  51.3475895  74.3123436  73.7390041  17.2641337
  74.2618727  74.0330696  18.1736434  74.9319255  73.0096054  17.2822762
  17.3754930   6.6179490  30.0961876  18.1646991   6.9890755  30.4907131
  17.4406326   6.8471891  29.1691303  13.8379908  58.0796242   2.9936141
  13.5908067  58.8618374   3.4868410  13.0048060  57.6938915   2.7229747
  38.4451789  43.5499323   9.1300976  38.4477049  43.8298262  10.0454593
  38.6860520  44.3353404   8.6388206   7.8193480  32.2700572  29.5305872
   7.9287070  32.3912048  30.4737711   7.1474016  32.9055238  29.2838025
  75.1338470  29.3138528  50.4618502  75.9362435  29.7457623  50.1688528
  75.3271222  29.0301204  51.3553667  32.0902300  43.3613300   7.4661493
  31.6255498  43.7465763   6.7232561  32.7837777  42.8352213   7.0681137
  59.3467307  55.3662014  13.4880888  59.7154784  55.4475737  12.6085234
  58.8851070  56.1923552  13.6316419   3.2642120  78.1678057  30.8201337
   3.0297834  78.1883860  29.8923111   3.7967429  77.3781157  30.9151626
  12.0060814   2.9985941  15.7494259  11.5553642   3.6999453  16.2197387
  12.3930204   2.4583663  16.4383852  29.6362615  48.4930038  15.1893759
  28.9626932  48.4988880  14.5093012  30.2929354  47.8737450  14.8707366
  13.1745565  21.8524493  32.6671720  14.0914894  21.6863383  32.4483776
  12.8955138  22.5190581  32.0394778  66.6204404  55.8203793  10.2232397
  67.0708084  55.0169706  10.4838765  67.2469651  56.5186310  10.4133689
   7.6817161  60.8146238  12.8672647   7.2071159  60.0492096  13.1914937
   7.0292532  61.5149403  12.8583634   6.0600680  67.7886009   2.4794327
   5.1212418  67.6196671   2.4000692   6.1727488  68.0971146   3.3785182
  46.8078065   9.7255743  43.7913132  47.4806941  10.3643836  43.5559893
  47.2434032   9.1338385  44.4047785  13.6772907  62.0016146   6.4029455
  14.3296099  62.6262522   6.0858601  14.1025150  61.5652800   7.1412033
  64.9870491  69.8099804  12.1658766  64.7361040  69.0435553  12.6814771
  65.6295728  69.4771910  11.5392613   0.0924373  64.2994881  36.3604236
  -0.4406107  63.5962868  36.7313671   0.4910652  63.9122391  35.5810881
  83.3607339  10.7261487  68.9845994  83.6001014  10.5881568  68.0681433
  83.7843608  10.0072881  69.4536496   8.7259930  64.1152048  20.3227305
   8.2324791  64.4789124  19.5876193   8.7021500  64.8011017  20.9899712
  27.1646196  30.8840979  19.2092669  27.4159123  30.3454722  18.4589541
  27.3341257  31.7827261  18.9264965  60.7685675  30.9366246  69.4067609
  61.6099178  31.3890668  69.4672467  60.9780478  30.0943109  69.0032065
  54.3187666  20.8107127  36.5632534  53.6062622  20.2249564  36.3074088
  54.3287564  20.7722319  37.5196266  29.7449432  15.7695139  14.7350478
  30.0937782  16.5463484  15.1721692  30.2719331  15.6848467  13.9404750
  16.2881434  59.7969627  42.1312857  16.2185168  59.8002386  41.1766243
  15.3851652  59.8809052  42.4375820  57.8716898  56.0158348  35.2833009
  57.7024460  56.5756464  34.5255446  58.7631083  55.6940126  35.1490068
  26.4781977  31.1686839   4.1708279  26.2655283  32.0924986   4.3033943
  25.7598234  30.8319891   3.6352888  82.8132915   8.2402440  62.5301747
  83.1822991   9.1231509  62.5532458  83.2027053   7.7981111  63.2845674
  49.5022440  60.8631706  10.3811097  49.2711258  60.0323963   9.9656188
  50.0418377  61.3138819   9.7315460  75.5026818  14.2054881  28.5878325
  75.1931763  14.8054732  27.9092622  75.6734419  14.7668208  29.3441272
  10.2199101  66.8537188  51.9849920   9.9184954  65.9452629  51.9759274
   9.4930744  67.3433971  52.3699045  65.9547352  74.8259020   2.8369281
  65.9203410  74.2227459   2.0944646  66.7907047  74.6348143   3.2622206
  56.0477352   2.0096243   8.0809128  55.7892299   2.8418005   8.4770143
  56.1344409   1.4088000   8.8209927  77.1392846  67.0576143   3.8602632
  77.6273107  66.2347937   3.8923633  77.8037935  67.7234697   3.6833644
  83.7584495  46.0758563  66.5578632  82.8530478  45.7897826  66.4368610
  83.6926269  47.0168754  66.7202817  36.7105031  70.0199413  66.2935114
  37.2261620  70.5912399  65.7243490  36.3686609  70.6027079  66.9715643
  22.4716210  80.5293941  24.2684078  23.1163430  81.2207890  24.1182828
  21.6413617  80.9944153  24.3716002  49.0663171   8.8453806  50.2783394
  49.8905373   8.3838595  50.1237535  49.3097711   9.5949496  50.8215714
  10.3919554  64.2193174  35.5726981  10.1670730  64.5909500  36.4256620
  11.3358235  64.0670395  35.6191111  47.0814287  31.5500232  69.2881767
  46.4550375  30.8300182  69.2142951  46.5387940  32.3382398  69.3103927
  14.6147918  12.6359864  56.7425744  14.5625543  12.9169294  55.8290247
  15.2996111  11.9672414  56.7487101  39.3278766  62.7408075  30.0826430
  39.7291374  61.9677258  29.6857023  39.8079872  63.4791088  29.7076297
  80.9396606  54.8376846  31.9702840  80.9468507  54.7949219  31.0140657
  81.1539858  53.9481592  32.2514319  86.3267184   8.8636149   5.7446885
  86.9403172   9.0264071   5.0282896  86.8793583   8.8004054   6.5236807
  20.2238178  69.3306541  55.2122450  20.7108283  68.5144186  55.0990295
  20.8954239  69.9860764  55.4009104  61.8465495  52.3085642  15.4185379
  61.2430739  51.8510532  16.0039711  62.5942778  51.7167902  15.3352380
  77.3506021  73.1109047   7.9516727  77.8405886  72.2934771   8.0408865
  77.4468773  73.3484268   7.0294219  84.1760635  32.1281215  50.9926061
  83.9161324  32.9010507  50.4913585  84.8697280  31.7258140  50.4699103
  34.2085052  45.5669498  19.6309209  34.4161129  45.1724720  18.7838566
  35.0604677  45.7155609  20.0411749  26.7124748  29.2498275  70.5861016
  26.0376978  29.8677655  70.3049266  26.3377428  28.3876439  70.4059549
  73.3349967  78.9092875  19.4322360  73.5198187  77.9777050  19.3129694
  72.4089360  78.9409256  19.6723211  60.7006025  71.1949205  45.6953239
  60.0820065  71.4064455  46.3944864  60.2071190  71.3375902  44.8876381
   7.0156091  33.7829185   5.1469761   7.1556753  34.4195318   5.8479303
   7.4916613  34.1423321   4.3983585  32.0083857  57.0103741  40.2647257
  31.3667345  56.6212082  39.6705294  32.5911498  57.5107384  39.6935391
  36.2293452   2.6704634  13.7926686  36.2685478   2.8937090  14.7226441
  35.3709221   2.9832972  13.5072327  80.9975290  45.6555080  49.5773554
  80.0568997  45.7433605  49.7314024  81.4042663  46.1333132  50.3001976
   7.6725799  77.8534460  21.6445136   7.2312528  78.3122063  22.3593545
   8.4702933  78.3598232  21.4913130  29.1183233  65.8303308  21.1285901
  29.6079803  65.7840633  20.3074169  29.3901491  66.6589737  21.5231752
  75.8729696  63.6085701  16.3934112  75.7538044  63.8934898  17.2994196
  75.0422787  63.8165379  15.9657049  48.2443571  71.4636183  36.2938166
  48.0141592  72.0917416  36.9784355  49.2009878  71.4338112  36.3079524
  35.2721858  54.3954182  34.6727395  36.2095618  54.5449257  34.7960663
  35.2252245  53.6723089  34.0473270  33.2214689  31.9979024  14.8121512
  34.0619755  31.5417862  14.8538315  32.8712106  31.9363117  15.7008338
   9.2596436  67.8097296  16.3501775   8.9890933  67.0084620  15.9018469
   8.5090333  68.0438519  16.8960738  28.5268664  40.0584126   3.5072586
  28.4300733  40.8618879   2.9960945  29.4327974  40.0784254   3.8156760
  40.7645882   1.3319529   1.2631552  41.1203277   2.2173155   1.3394353
  41.5013099   0.7587374   1.4750367  57.5586367  26.7089868   4.8465720
  56.6493607  26.7704749   5.1392555  57.5712776  27.1671939   4.0062639
  13.5088491   9.7846528  49.2182652  12.6201820  10.0253793  48.9564363
  13.9858865  10.6142875  49.2375485  18.0714929  80.0732899  19.8694885
  17.1554875  80.2262115  20.1013947  18.0322587  79.5953941  19.0410554
  23.4461737  45.5178404  37.6380944  23.9300680  45.5212307  36.8122220
  23.4289455  46.4356327  37.9093671  11.2567663  77.9679871  56.0605335
  11.5465307  78.6734200  56.6390085  10.4687846  78.3117819  55.6396770
  35.9668136  75.1308584  34.0496707  35.7584572  74.9363279  34.9634409
  36.7654490  74.6330023  33.8748884  78.1513499  16.4807721  52.0118813
  77.8141772  15.7555648  51.4859335  78.0119323  16.2047502  52.9177551
  26.1645865  67.6613617  58.5478020  26.8973255  67.0768213  58.3537960
  25.4636359  67.3681211  57.9656410  71.4080191  73.5257339   4.5264152
  72.2111368  73.1068516   4.8358858  70.7537699  73.3095312   5.1908267
  81.7556518  54.5441532  22.6680684  81.2303233  54.9008036  21.9517851
  81.3816165  54.9356651  23.4574008   3.6649204   9.1409052  38.5153246
   4.2512203   8.8386954  39.2089725   3.9949442  10.0091589  38.2841420
  31.4542461  -0.0084650  35.6631303  31.5690664   0.8243407  36.1208081
  30.8383547   0.1889552  34.9574852  78.3724731  74.8071289  39.6143007
  78.8646119  75.4039812  39.0505624  78.9705151  74.6110916  40.3355122
  79.9563264  75.2226734  37.6263142  79.2827743  74.9664307  36.9963145
  80.7556629  74.8051310  37.3054528  47.1705437   0.4141654  44.7632742
  47.7183104   0.2002562  44.0080070  46.6391778   1.1549986  44.4716215
  76.2813329  62.0758486  23.4228182  75.4475927  62.5423145  23.3635092
  76.1774766  61.3244963  22.8389359  37.4163747  55.3015137  17.5527442
  37.4746513  55.2448034  18.5064840  37.2218633  54.4076109  17.2710931
  75.7574760  14.4812699  53.6977641  74.9258219  14.0084525  53.7297992
  76.1644911  14.1948434  52.8801279  52.6665210   4.6699496  67.8916622
  53.3090871   4.1710731  67.3872195  51.8354493   4.2238732  67.7286701
  63.3898831  20.8720339   9.7063458  63.0873800  20.1937998   9.1024244
  63.3570767  21.6803111   9.1946518  24.5394087  18.4914816  50.1990557
  23.6227811  18.2915152  50.0092125  24.5604608  18.6446703  51.1436844
  33.3915544  62.1428728  24.1085768  34.2236710  62.5890875  23.9513946
  33.4866905  61.2972641  23.6702538  34.2962021  28.0616225  20.7386541
  33.4705776  28.1641997  21.2119985  34.0410281  27.7115572  19.8850882
  28.6599422  72.3307371  11.5519989  28.2888627  73.2097292  11.4751649
  28.9258671  72.2623348  12.4689698  33.7552166  54.0389824  24.1361499
  32.8120780  54.0624094  24.2979360  33.8372087  53.6942053  23.2469726
  22.5601363  56.5914249  43.3208513  22.1935272  57.4272346  43.0323219
  23.3361816  56.4687777  42.7740955   7.7677824   0.1039034  18.5323937
   7.5735028   0.6567865  17.7755483   7.1939130  -0.6550688  18.4281858
  50.0547147  37.8992499   3.4249580  50.1485110  36.9470347   3.4516943
  49.5744682  38.1151522   4.2243204   2.7705157  67.7541447  28.1504750
   2.4378306  68.4409571  27.5726819   2.8831473  68.1868935  28.9968061
  27.3848271  69.4284964  49.6554518  28.1587553  69.1194630  50.1263714
  27.1616912  68.7099218  49.0637684  25.0477784  80.4757531  70.0772965
  25.2831482  80.4527505  71.0048221  24.6533637  81.3388140  69.9516124
   8.0385256  52.0584488  13.5618770   7.1584922  51.9979858  13.9335191
   7.9670423  51.6343689  12.7067292  43.7128353  76.9286060  10.8878207
  43.8822985  76.1987877  10.2921057  44.1767788  76.6943550  11.6916335
  59.7489238   8.0661238  33.0067706  60.1382804   7.7662028  32.1853805
  58.8418889   7.7629698  32.9666233  34.6284318  57.6715422  21.9435334
  34.2934799  58.4400272  22.4055624  33.8654137  57.3133469  21.4899564
  37.0737648  68.8211584  13.4246540  36.4952898  68.2006645  12.9812777
  37.3235011  68.3783054  14.2356682  17.5904775  52.1643782  25.4640555
  18.4562397  51.8645239  25.1869702  17.7635360  52.9517555  25.9801173
  82.3975705  51.5586921  66.6373370  82.4474358  52.1428176  67.3940028
  81.5092491  51.2034007  66.6671635  28.6219144  73.1166220  43.4513807
  29.4107485  73.6078978  43.2219839  28.5099506  73.2679653  44.3898821
  51.1885667  19.1006506  67.5047350  51.4401245  18.3996142  68.1059885
  50.2968932  18.8781489  67.2370768  73.8031208  55.1249572  59.3927102
  72.9439425  55.1028033  58.9713411  74.4129764  54.8509856  58.7076907
  26.9873095  54.5873022  15.4445374  27.5846028  55.1029682  14.9027216
  26.6274643  53.9317417  14.8470604  67.3928355  63.0133125  68.3898271
  67.0906525  62.7323600  67.5261225  67.1951532  62.2740813  68.9648860
  13.6116946  69.7442007  22.6509047  13.2077062  70.3654909  23.2567310
  14.3248582  69.3495464  23.1527758  40.7119894   9.2597712   4.4154403
  39.9983621   8.6864413   4.6951887  40.4397714   9.5786036   3.5549325
  29.3795604   4.1086997   6.6282499  28.5402622   4.5642794   6.6934973
  29.9758787   4.6265925   7.1690041  37.5753522  72.0277929  57.2143793
  36.7736983  71.8742466  56.7143726  38.2784438  71.9500256  56.5695190
  22.6461625  67.9743767   5.1838011  22.0277262  67.8124523   5.8962256
  23.5068750  67.9390383   5.6011260  22.2693181  68.0673838  20.1089072
  21.3930249  67.7045965  19.9795663  22.7254510  67.4101734  20.6345010
  15.9501517  72.0709753  35.5621409  15.8437479  71.1251211  35.6634974
  15.0562012  72.4130535  35.5540109  50.2153068   6.3444968  62.2573314
  50.9492802   6.0524102  61.7167775  50.3610253   5.9256860  63.1056194
  65.1969766  52.1470404   7.4428248  64.7642254  52.4498224   8.2411230
  66.1301899  52.2751188   7.6129478  10.8064628  76.9459724  27.0603228
  10.5959332  77.7925539  27.4542952  10.8642721  76.3441801  27.8024387
  44.3070400   4.4505538   0.5289366  45.1781679   4.5401133   0.1424818
  44.4304693   3.8452948   1.2601389  71.8199145  49.5831823  62.2630787
  71.9270026  50.2886677  62.9010868  71.2060201  49.9345970  61.6181993
  51.2708140  23.4802760   0.3426156  50.8515311  24.2249812   0.7737267
  51.3283253  22.8103961   1.0239197  15.0711762  78.7992509  67.2534232
  15.9329258  78.3953030  67.3556231  15.1310741  79.2867143  66.4318259
  36.4657473  12.1047517  70.7407067  36.2548494  12.3198529  69.8321450
  35.9455036  11.3236114  70.9288641  69.3378448  80.7177067  25.8839393
  69.9260020  79.9636412  25.8428407  68.8970804  80.7242584  25.0342846
  52.0883417  65.3909302  34.7553897  51.7035246  64.5183706  34.6730089
  51.6873598  65.8972216  34.0489101   1.3601875  24.9430820  65.6440697
   1.0106206  24.0878698  65.3937702   0.5899977  25.5081960  65.7048057
  86.4668011  21.4613267  63.2883589  86.6311359  20.6287833  62.8455357
  85.5607366  21.6758844  63.0664538  26.9730527   6.4543856  46.1832047
  27.5101817   5.8929385  46.7422247  26.2052986   5.9216918  45.9757805
  67.3008395  21.1267603  24.0790224  68.1018401  20.7801188  24.4720459
  67.1024680  20.5205477  23.3653140  37.9581046  75.3498125  25.6975365
  37.8297997  74.5116138  26.1416006  38.4128618  75.1238489  24.8861384
  57.4476624  13.4249629  11.5979970  58.0918908  13.4156741  10.8901036
  57.9493952  13.1997145  12.3814237  47.4455225  34.6001168  66.5257160
  47.4745332  35.4933997  66.1830257  46.8623423  34.1329166  65.9275062
  47.0132888  30.2092398   9.2830426  47.5576377  30.0260485  10.0487816
  46.2247897  29.6837271   9.4184494  27.9364944  53.9264679   7.1844560
  27.7439594  54.5941830   7.8427261  27.6499796  54.3152428   6.3580221
  66.6998482  72.0689154  14.2445195  65.7694244  71.8687439  14.1421592
  66.8912983  72.6856470  13.5379660   6.8460935  49.6429539  42.6776743
   7.7469039  49.9199724  42.8451014   6.3180870  50.1696920  43.2776594
  70.0694752  10.5742491  26.4269042  70.2125597  11.4520014  26.0729027
  69.9030066  10.0298441  25.6573963  36.2791473  37.8820456  12.3479366
  35.5649108  37.4121512  12.7783930  37.0615524  37.6299799  12.8383791
  22.9657245  67.7769470  13.0890453  23.6179185  67.1581268  13.4175801
  23.4787750  68.4536839  12.6474106  11.9722068  63.5202646  15.4887366
  12.1367264  62.5773239  15.4937899  11.7202735  63.7242699  16.3893712
  18.0317008  56.3131952  14.9163175  17.7411580  56.9371557  15.5815160
  17.2283447  55.8813715  14.6258354  47.8179693  59.9483013  28.1616139
  47.7128410  60.1731110  29.0860820  47.1698713  60.4878330  27.7087235
  73.3711481   5.5754603  46.3959265  74.1163302   5.1049651  46.7695189
  72.6495505   5.3992117  46.9996405  21.5776593   5.4057063  52.9456854
  22.0103294   5.9840525  52.3175573  22.2001273   5.3289641  53.6687899
  81.3783383  47.8165770  22.7481031  82.0319682  48.5158348  22.7545238
  81.8507278  47.0442915  23.0590010  82.3824119  24.1797038  70.3514966
  83.2660221  24.5427867  70.4117749  81.8207502  24.8507568  70.7393813
  68.6560773  63.8365936  32.0284724  69.4160199  63.4091997  32.4235106
  68.0419242  63.1226587  31.8571687  77.4925679  45.0271654  41.8679619
  77.1651518  44.7523689  42.7244139  77.7895659  44.2169046  41.4538383
  79.6042156  78.4921646  38.4850502  80.3100144  78.8096333  37.9217625
  79.9021518  78.6849737  39.3740344  33.5837317  46.7304754  11.1735320
  33.4477496  47.5659561  11.6204274  32.9254389  46.7205858  10.4787052
  12.7112722  18.6760207  70.7534930  12.9646253  19.2195769  71.4995455
  12.4977588  19.3026658  70.0621452  52.2965098   7.4821127  29.2731452
  52.5802350   6.8553580  29.9386621  52.1929551   8.3062209  29.7489142
   0.9963634  37.6694632   7.3611403   0.9816612  38.1503391   8.1886506
   1.8252453  37.1909857   7.3768669   3.8457608   7.5944301  64.4486205
   3.9188695   6.8032905  63.9147798   4.7031641   8.0134698  64.3744825
  21.2488127  65.2288532   8.6999118  21.6400242  64.6270609   8.0666411
  21.2724948  64.7521162   9.5296067  12.0990276  59.6586800  39.8227334
  11.2276292  59.4172287  40.1367378  12.2806239  59.0366268  39.1182446
  82.7924656  41.7332745  35.8257294  83.1027421  42.1104050  35.0024867
  82.8996121  42.4361563  36.4665937  41.9992876  59.1178322   7.4371797
  41.5697813  58.4059381   6.9628823  42.0379734  58.8126421   8.3435977
  35.4510617  77.6224136   5.3889012  36.0074067  77.0429945   4.8683339
  35.8138680  77.5719261   6.2732404  16.4810169  43.3825064  11.9624853
  16.4957893  43.8614845  11.1338758  15.7943726  42.7256489  11.8472254
  71.1810278  74.4019413  34.4998240  71.1207342  75.1671171  35.0717521
  71.7626965  73.8005733  34.9648523  66.7425918  29.5555878  13.5082567
  67.5675416  29.7605157  13.9483619  66.0680151  29.9151325  14.0843678
   5.0883240  75.2031040  28.5773635   4.4469208  75.4064846  27.8965783
   4.9457955  74.2767286  28.7716579   9.6045255  21.4821597  69.8513163
  10.3652548  22.0063993  69.6009275   9.8419809  21.1048242  70.6983490
  20.7329053  16.7784823  18.3584368  20.3786207  16.1514891  17.7278793
  20.9171003  16.2554110  19.1386318  24.3187857  81.7428684  67.2601414
  24.5039773  82.4224281  66.6119623  24.3411517  80.9252071  66.7629814
  31.7477941  58.0979987  68.0264391  32.4116611  58.4635993  68.6111170
  31.1718416  58.8360091  67.8268103  60.2211953  22.8683222  13.9300001
  60.3690052  23.8110388  13.8547504  60.8828783  22.4759234  13.3604145
  62.3261953  26.2581957  40.1255035  61.6258335  25.8509863  40.6353140
  62.6005793  27.0088137  40.6523037  56.8470312  40.7823409  14.2186904
  57.7262879  40.6869639  13.8525736  56.4129973  41.4086283  13.6393678
  31.9516087  75.7834482  47.3096085  32.7947593  75.4596806  47.6266336
  32.0830083  75.9142208  46.3705301  58.8678313  19.6235693  50.8189344
  59.6090198  19.1654433  51.2151575  58.1068254  19.3217886  51.3149500
  47.7690590  14.8666228  20.8158684  47.1093536  14.1741789  20.7766151
  47.2968650  15.6616152  20.5683565  41.5875959  56.9227600  23.4538460
  42.2272444  56.8801641  22.7430224  40.9844160  57.6183128  23.1919098
   2.0033598  13.3902093  45.7882111   1.9587445  13.5333987  46.7335884
   2.3457169  14.2123433  45.4373352  57.3355508  14.9556101  30.4885054
  56.4646650  14.7096289  30.1765966  57.5176525  14.3412436  31.1995769
  69.9212599   9.6015872  15.5481243  70.2421046   8.7009943  15.5952001
  70.1277590   9.9745215  16.4051616  29.5247054  74.6589375   0.4564486
  28.9340854  74.0767956   0.9344733  30.2888179  74.7455502   1.0264176
  35.1112199  67.0381403   7.4377126  35.7858729  66.7492485   8.0522174
  34.9566531  66.2779522   6.8769479  43.0280304  75.7105541  33.5425901
  42.9497623  76.4808035  32.9797173  43.7009573  75.1745892  33.1228948
  51.3262701  70.5613899  11.4169621  51.4566040  69.6484566  11.1604571
  50.3940725  70.6206751  11.6260767  29.8890686  57.3164415  20.7569647
  30.2234578  57.6376438  21.5943670  30.5449295  57.5908422  20.1160407
  13.5813093  80.4112530  42.7229548  13.7367141  80.6425285  43.6387014
  14.4084477  80.6070423  42.2827911  38.7645531  42.3462915   6.5557742
  38.9169145  43.1703234   6.0931855  38.4914827  42.6115751   7.4340039
  72.4708987   1.3277377  41.5490866  73.2794476   1.0770739  41.1022711
  71.7885304   0.8162917  41.1143160  13.4534109  70.4903507  15.9869361
  12.6032877  70.8867979  16.1776018  13.2589042  69.5642662  15.8428514
  39.3661976  71.2703323  24.6878600  39.6986389  70.5097198  25.1644969
  39.0172529  71.8457842  25.3685403  81.2020111  74.5378017  34.6408677
  81.3503742  74.3160963  33.7215924  80.2494049  74.5702219  34.7287011
   9.4668769  62.3154899  64.1291485   9.7532916  61.6198417  64.7209911
   9.2823267  61.8669768  63.3039157  42.2722662   8.4611262  11.5108788
  41.3417936   8.5283602  11.7251945  42.6809621   8.1422652  12.3155689
  18.0530989  76.1796951  13.0641973  18.0280089  75.2313137  13.1913614
  17.2345197  76.4945078  13.4476721  64.0566612   3.0726470   6.0333115
  64.5891238   3.3400477   6.7824543  64.6713353   2.6292742   5.4486543
  51.7044258  70.2432060   8.3575237  52.5072336  70.7388735   8.1961399
  51.7848921  69.9453783   9.2636460   9.0317160  45.3475809  24.7981024
   9.5206964  45.1725245  25.6021452   8.4068900  44.6251392  24.7356653
   7.8203058  26.0750743  69.3243482   7.3613929  26.6953870  69.8907815
   7.3780536  26.1504193  68.4787901  12.8742206  55.9101105  43.7461376
  13.1072414  55.1741314  43.1802177  13.5073078  56.5928316  43.5240507
   9.4268006  59.3317938   6.6391081   9.0191388  60.0490665   7.1244562
   8.9783895  58.5459328   6.9514930  81.1434508   5.8296431  52.6682186
  80.7055188   5.7390536  53.5145283  80.7951880   5.1112021  52.1402121
  68.6537624   4.9507369  46.1640406  68.9151931   5.8586157  46.0102463
  67.8535629   4.8415984  45.6502247  44.7847271  62.4502039  32.6191688
  44.7988081  62.2744894  33.5599971  45.3534698  61.7791986  32.2416544
  43.0482006   4.0867651  28.6170411  43.8996387   4.5136298  28.7122536
  42.4126125   4.7696055  28.8314867  42.1501207  77.6545906  26.0669494
  41.2364149  77.3765278  26.1306310  42.2015619  78.1186867  25.2313662
  45.9008121  70.2804422  15.8432102  45.8834505  70.0550985  16.7733443
  45.2538109  70.9802198  15.7541871  61.4638472   0.2459944   3.5986465
  60.6253171   0.6826151   3.4487864  61.8006063   0.6433047   4.4017467
   3.1822586  72.1374866  64.7142623   3.9313626  71.7000362  64.3096457
   2.5866937  71.4255115  64.9479942  42.6955271  61.2086344   1.9115646
  42.4501610  61.2793541   2.8340748  42.8440809  62.1123600   1.6332760
  17.4986327  72.4799109  31.9686961  16.9960308  73.2106638  32.3287249
  16.8830514  71.7469549  31.9602442  32.3763347  74.4991541  37.6200414
  31.9826436  73.6296749  37.6924443  32.3150945  74.7130346  36.6890550
  35.8063126  29.3460024  36.6139603  35.8343363  28.4733904  37.0063782
  35.2579332  29.2414607  35.8364129  73.1419230   9.2613924  62.3209906
  73.1967354   8.3086623  62.3953676  72.3657465   9.4970454  62.8291750
  56.1333513  65.5487013  21.1183572  55.8339834  65.6045771  22.0258212
  56.7278957  66.2918615  21.0160971   3.7982437   9.8276109  30.9412169
   4.0062115   8.9972997  30.5127716   2.9660043   9.6659672  31.3856053
  81.5442031  30.5369782  24.3382072  82.4027240  30.9587407  24.3022823
  81.3076692  30.3967810  23.4213495  14.7218764  31.7573643  18.0566823
  15.0683606  32.6230407  18.2729745  13.9184439  31.9361830  17.5680590
  46.1837935   6.1395093  68.8622528  46.6146576   6.8721076  68.4219280
  45.2638959   6.2151834  68.6086929  10.8396947  38.7720466   4.7714978
  10.0297034  39.2552328   4.6081719  10.5527020  37.9528427   5.1749492
   4.5277682  13.1677604  31.5865803   4.4856498  12.9845190  32.5251341
   5.3364146  13.6679101  31.4762473  73.0296278  47.4729633  55.0458908
  72.3742485  47.2672606  55.7125187  73.6014926  46.7055893  55.0274038
   1.9021118  38.4304500  37.4017477   1.0159535  38.7905622  37.4374437
   2.4617752  39.1879582  37.2308993  52.7618027  22.8759575  18.7077105
  53.4164238  22.3693824  19.1884243  52.3996305  23.4776807  19.3580866
  15.2513194  51.4657784  22.2433829  14.5776963  51.1855602  21.6237521
  15.3807271  50.7089520  22.8149581  82.7076491  59.0461779  15.4322612
  82.5267538  58.3639479  14.7856748  83.5526379  59.4094229  15.1671600
  55.7262776  21.9692680  67.1492667  55.5554198  21.9836446  68.0909846
  56.0065306  21.0716697  66.9703664  81.6362881  49.3376589  25.4358554
  82.2905671  48.6732578  25.2197003  82.0568254  49.8796797  26.1033821
  23.4648943  33.1120348   9.2218643  23.8926053  32.4192190   8.7185717
  23.4685922  33.8699365   8.6372250  34.2745090  61.6266060  11.6926157
  35.0566196  61.0760403  11.6549695  33.8555598  61.3912678  12.5204611
  78.0327963   7.9611369  60.6151216  78.2693957   7.5692388  59.7744863
  78.7935399   7.8050777  61.1747144  12.6891696  40.3794003  36.5587044
  13.5592282  40.5309248  36.9278526  12.8535020  39.8976040  35.7480884
   8.0304992  68.9436531  25.7608986   8.0838680  68.9710855  24.8055816
   8.6900294  68.2998276  26.0192394  32.4932194  13.8900173  43.1002617
  33.2124209  14.5114064  42.9868698  32.9166722  13.0857110  43.4002876
  15.7772148  44.3331242  46.8995333  15.0672340  44.6793461  47.4401712
  16.5666819  44.7491264  47.2458172   8.3651781  11.9914126  29.2008758
   8.5378772  11.8930113  28.2645392   8.1120080  11.1151171  29.4911218
  69.1014659  21.4476844  68.2400752  68.4984266  21.9999286  68.7376684
  69.8169862  21.2651082  68.8491145  10.4795265  62.3517323   5.8499312
   9.9147707  62.4391270   5.0820476  10.3739870  61.4402103   6.1223722
  33.1795859  15.3103411  17.5082707  32.4831295  14.7027230  17.7572322
  33.9509320  14.9970710  17.9806268  39.0960501  73.0817659  68.5247603
  39.4368552  72.2065218  68.3402939  39.8732303  73.6396344  68.5565103
  62.7029397   7.8415986  67.9426171  63.1128608   8.6257239  67.5774608
  62.7897041   7.1829482  67.2534965  85.1758487  52.3181581   8.7030798
  84.6117545  51.7600918   9.2384231  85.9333907  52.4975157   9.2600286
  50.6805944  39.6855283  14.6256220  49.8174572  39.8217869  14.2348981
  51.2965679  39.9755549  13.9527988   7.4946326  34.1982579  16.7906606
   6.6796529  34.6803617  16.9307160   7.9324657  34.2156267  17.6416790
  58.4334412   1.1903163  69.8151279  57.9949347   0.6019803  69.2004673
  58.8433272   0.6070968  70.4539382  56.5419801   5.1148196  53.3445935
  57.1058769   5.8206245  53.0282156  55.8255840   5.0782653  52.7108173
   9.4140393  42.6615000   0.8984939  10.2062082  42.5415134   0.3747543
   9.7240382  42.6659393   1.8040949  24.1337872  60.1417065  17.9452813
  24.7056651  60.3387690  18.6871386  23.3351994  59.7957182  18.3437610
  48.4379196  47.7814436   9.1394937  48.4522247  47.0167923   9.7151160
  48.8809204  48.4664822   9.6401983  27.9657578  18.2362294  24.2086458
  28.3041024  17.3408914  24.2198706  27.3807812  18.2617378  23.4514260
  41.1347055  18.2052588  41.2121105  40.4534578  18.5822892  40.6553507
  41.7405033  17.7876639  40.5998516  83.0030927  63.7803030  14.1550362
  82.3927182  63.3177900  14.7292817  83.2110998  64.5869207  14.6265614
  19.8830855  47.9759407  20.9224200  19.1625178  48.1694221  21.5220690
  19.8152876  48.6461544  20.2423811  73.4545910  54.4442129  10.2160966
  73.4842956  53.6971521  10.8138001  73.7213468  54.0847683   9.3700045
  41.5651284  74.3276842  69.1598776  42.4502884  74.4239552  68.8085146
  41.2179767  75.2194364  69.1821447  25.3986144  44.4392061  29.1968060
  25.8735919  45.1138830  28.7115836  25.3700280  44.7661924  30.0959682
  73.0943536  37.6632476  29.9841142  73.3883380  36.7537212  30.0348020
  73.7618780  38.1575847  30.4597950  47.1131074  73.5510873  16.4213073
  48.0641907  73.6376368  16.4859724  46.9126462  72.7470498  16.9004428
  19.7954988  39.3186593  35.0960255  20.3956580  38.6366582  34.7944999
  19.8334885  39.9896097  34.4144011  17.6414359  61.4024353  13.9645123
  16.8561184  61.9486856  13.9979267  17.8472257  61.3356256  13.0320847
  15.8954585  31.9302869  37.4575639  15.9865510  32.8713107  37.6072669
  15.0016224  31.8250275  37.1316648  79.4024777   5.6523629  63.3833413
  80.0670265   5.4387733  62.7283709  79.4270300   6.6071292  63.4469299
  38.2087064  33.2677913   8.0577892  39.0222359  33.6959481   7.7911747
  38.4265780  32.3361564   8.0863822  21.0890031  49.2681170  12.8824592
  20.5207038  48.5978651  13.2619703  21.9700050  49.0236139  13.1658077
  32.4728607  28.3271190  65.5015777  32.0745396  27.4605962  65.4196493
  33.3363079  28.1590959  65.8790163  83.4931254  48.3679076  57.1915738
  83.9814853  49.0394946  57.6677136  83.8720178  47.5405379  57.4884514
  34.8987985  48.8767576   0.4516426  34.1046882  48.9516497  -0.0775190
  35.5319428  48.4500408  -0.1256538  19.2301898  67.7711160  59.7308735
  20.0564401  67.9944737  60.1594226  18.6567413  68.5154302  59.9135892
  15.9592914  33.5039493  65.9209974  15.8964443  34.1574069  66.6176124
  15.3407240  33.8037320  65.2548669   5.4301876  23.4073210  29.1444397
   5.6734216  23.9867735  29.8664546   4.5163906  23.6247611  28.9602470
  36.2636828  24.7625943  55.6003420  35.6058621  25.3094264  55.1708333
  35.9937715  24.7397491  56.5184144  19.0124965  69.0968704   8.2794869
  18.2427132  69.4034100   8.7587559  19.2801917  68.3014727   8.7398285
  77.3964887  47.1629190  53.3487034  78.1270331  46.6812706  53.7367105
  76.7556190  47.2365570  54.0558767  62.7772593  39.0793180   8.8958305
  62.7904248  38.1319380   9.0319622  62.3725152  39.1921020   8.0357754
  74.3892287  24.0963050  42.5960700  73.9101910  23.5639497  41.9609658
  75.2037751  23.6161681  42.7451221  59.7550815  32.3803397  61.4919458
  59.6336182  32.6756688  62.3943095  58.8974868  32.4988815  61.0836445
  28.3164835  60.9288692  22.5482655  27.4125361  61.1532259  22.7691126
  28.7716794  61.7703819  22.5184321  10.5618000   6.7965194  62.1387975
  10.1526808   7.3934623  62.7653073  10.1754164   7.0327207  61.2955002
  56.1846113  60.0931168   9.5234555  55.7908344  60.2962351   8.6749774
  55.4512501  59.7985411  10.0634897  36.8211274  79.3439276  54.5816271
  37.4785386  79.5993145  53.9344649  36.3621460  80.1574786  54.7906796
  73.7282598  25.8012128   9.1279221  74.4276487  26.3788557   8.8222873
  73.7548947  25.0551128   8.5288727  75.5845808   3.7285014  67.6640199
  74.8278093   4.2393895  67.9512883  75.7923817   4.0754052  66.7964314
  42.9142475  37.4435019  15.1337242  43.2217646  36.8269253  14.4692683
  42.8072453  36.9119143  15.9225190  65.3621220  16.9804498  70.5877658
  64.4690531  17.2831556  70.7521721  65.4053592  16.8662711  69.6383843
  38.8823462  74.2448807  34.6290970  39.0811443  73.7279558  33.8483953
  39.2346168  73.7287712  35.3541946  73.1141948  56.2966108   7.5530905
  73.3271849  57.0156240   8.1479764  73.5846567  55.5432129   7.9098618
  43.7320185  60.4944372  27.8724790  43.5457087  60.1262617  27.0087862
  44.4813776  61.0726547  27.7297926  73.0803382  67.7945900  12.5443196
  72.1771562  67.6903343  12.8436959  73.0069005  67.9090309  11.5968263
  68.1862508   2.2816440  54.2172007  68.1208836   2.0683547  53.2863585
  67.3188084   2.6138707  54.4482843  40.5970240  56.6201067  30.4964852
  41.0428858  55.8074474  30.7352829  40.9108639  56.8149233  29.6134305
  64.4191551  71.0008574  31.1401582  65.3308153  71.0081673  31.4317989
  64.3077659  70.1462507  30.7236624  17.1866560  34.2670655  32.5441051
  17.9939306  33.9839840  32.1146822  17.4043083  34.2838573  33.4760809
   3.4725502  54.1270351  16.3907242   3.8734853  53.3297396  16.0446000
   2.9184163  54.4453049  15.6780720   6.4098847  36.2654614   0.9678082
   7.2328967  36.0916805   0.5109886   5.7308966  36.0035157   0.3460436
  76.7975997  45.7821512  34.0518618  76.5173244  46.5608168  33.5708618
  76.9674468  45.1293421  33.3727288  78.5279392  49.6946975  69.9918417
  77.9000186  49.9883338  70.6519358  78.1044554  48.9439078  69.5756681
  28.7833571  43.7311792  31.3413596  27.8992701  43.3687115  31.2844515
  29.1586232  43.5847044  30.4730558  46.4801598  38.4002256   3.8586500
  46.5752649  39.3384218   3.6944008  46.8008566  38.2798314   4.7524568
  32.8292087  17.9031981  29.3320227  33.0272416  18.8165320  29.1250443
  33.6570144  17.4420393  29.1967487  28.3487487  11.4781010  25.1396394
  29.2493391  11.2957883  25.4078436  28.0082393  12.0569575  25.8217001
  65.5859917  14.7696515  68.1863917  66.0547500  15.5734225  68.4109868
  65.7535028  14.6478578  67.2518660  13.5721421  35.5277348   7.2300416
  12.7975833  35.0436974   6.9436848  13.6144423  35.3752041   8.1740636
  23.8311624   5.5252954  58.0355911  24.3284416   6.2241193  57.6106326
  23.4377908   5.0372478  57.3121957  50.2133608  50.0003862   3.8114917
  49.6628761  49.3197632   3.4242618  50.3848267  49.6922636   4.7013736
  60.5414032  74.4176276  64.5180522  59.6882151  74.2167766  64.1333960
  61.1381697  74.4555290  63.7706147  46.3308429  69.8499091  35.0962798
  46.8131148  69.5622428  34.3211071  46.9302474  70.4476197  35.5431430
  46.6216469  36.8736744  16.8170965  46.4956856  37.8128052  16.6814518
  47.1293497  36.5879512  16.0576022  52.1630095  78.8422592  62.5071291
  51.9902276  78.3717568  63.3226071  52.1407341  79.7666438  62.7546112
  17.5837648  36.2158084  14.1471148  18.1326163  36.5089750  14.8744702
  18.1228542  36.3559008  13.3686614  83.0651012  28.7735987  50.4082966
  83.9208418  29.1594481  50.2210522  82.6931631  29.3345881  51.0888767
  27.7940082  14.5441981  65.7326059  28.1680631  15.2075931  66.3124494
  28.4346485  13.8330146  65.7376008   5.0810527  29.4721147  66.8744565
   5.3937292  28.7070342  66.3916360   4.9420833  30.1392099  66.2022160
  10.4090856  59.7607382  57.1101860  11.3652705  59.7756179  57.1516590
  10.1315676  59.6515675  58.0197446  71.6930031  63.5620649  59.5639173
  71.6785263  63.5913165  60.5205612  72.0876669  62.7151282  59.3561391
  84.8401641   3.8722249  68.4316346  84.1352724   4.4705650  68.1839545
  84.5070171   3.4166022  69.2047126  12.5934505  64.6456119  54.8572473
  12.7220535  65.5359050  54.5300297  12.4820661  64.7514316  55.8020358
  13.7348449  49.5584106  24.0384030  14.5868886  49.7384357  24.4357014
  13.1107736  49.6495247  24.7584486  77.1734845   3.2884380  59.6221082
  77.0604109   2.4536105  60.0765399  76.9167184   3.9483997  60.2661232
  74.9756860  15.6635153  30.8973765  75.4653966  15.0945485  31.4912558
  74.9810111  16.5190649  31.3266063  43.0261885  78.1440599  64.4133334
  42.2766243  78.7383731  64.3790476  43.5365843  78.3569534  63.6320494
  36.9307119  13.9777411  22.9333115  37.8329033  13.9745368  23.2531118
  36.7520863  13.0639590  22.7112055  23.8953543  40.3506756  25.6803465
  24.2127824  40.4322004  26.5796947  23.6635852  41.2439537  25.4262543
  27.2637987  48.0505848  23.1278253  26.4082932  47.6298761  23.0421019
  27.8493786  47.5135040  22.5940919  74.6339941  10.7695235  13.8465905
  74.7083092  11.1214770  12.9595506  74.4420815   9.8403109  13.7202811
  41.2074089  55.9059000  17.2379994  40.6774378  55.2160978  17.6374078
  42.0821810  55.5241442  17.1654081  82.1689200  24.1041251  67.3783190
  81.8774509  24.2011710  68.2848839  82.4406194  24.9844285  67.1185507
  39.8787475   4.4033850  37.4616694  40.5052615   3.7217844  37.7048445
  40.1367021   5.1631011  37.9837108  62.7099528  23.0781861  56.7117588
  62.1582472  23.4807321  56.0410790  62.0957186  22.6128455  57.2795658
  71.9828188  42.1461391  19.3351436  71.0506248  42.0067310  19.1683686
  72.4245989  41.7034435  18.6105168  10.9510350  37.5194550  17.4477422
  11.1073446  36.9191313  18.1767213  10.0546134  37.8281045  17.5796342
  25.9344220  72.4579048  16.3116717  25.8943534  73.3243704  16.7164683
  26.5851998  71.9822454  16.8278766   1.9670805  38.6614227  23.0116868
   1.3235000  39.3681073  22.9603553   1.5882561  38.0369449  23.6303544
  20.8888841  49.8436451  35.6507015  21.5252995  50.1044369  36.3164330
  20.8932161  50.5637455  35.0200939  21.8366647  19.5465672  24.3219423
  22.0986438  18.7672269  23.8318133  21.3750458  20.0881672  23.6817789
  12.7506160  39.1851398  41.5457313  13.6986208  39.0614864  41.4985291
  12.5483179  39.7676917  40.8136551  48.1202828  79.7222455  45.9011285
  48.6119031  78.9282043  45.6912796  48.7421035  80.4348977  45.7538168
   5.7481796  63.6627769   9.5854825   5.9224617  64.5958376   9.4619930
   5.6456906  63.3187723   8.6981332  74.1542827   7.6440116  56.2525134
  73.8802921   6.9591590  55.6424837  73.5020708   8.3361980  56.1441843
  40.2970314  50.0047779  19.0962076  40.5250931  49.9371910  18.1690335
  40.8043718  50.7517433  19.4138229  54.0229321  60.4057598   8.0181712
  53.2139063  59.9153852   7.8724200  53.8298988  61.2869215   7.6979655
  29.6274066  25.1079726   2.1721569  29.3025160  24.2107487   2.2474566
  28.8475275  25.6541586   2.2706391  72.6199078  32.4370404  69.3779869
  72.3764371  32.3672076  70.3010672  73.3546197  33.0505248  69.3698197
  31.7955853  78.9997251  57.2024612  32.4940695  79.2228587  56.5871875
  31.1574190  78.5182579  56.6759972  41.5796709  44.0337467  24.2663360
  41.9405746  43.1567669  24.3962812  40.7297945  44.0105772  24.7061110
  22.8826904  31.8500328  20.1780224  23.6725807  31.3557792  20.3971553
  22.7388096  32.4191499  20.9340882  12.5468528  29.6105814  16.2039399
  12.8048742  30.5317926  16.2359810  13.3499753  29.1298032  16.4041376
  26.4474415  81.0460646  59.6944658  27.1428971  81.6238053  60.0087754
  26.1569818  81.4450772  58.8743107  76.1834907  12.4305010   6.1102140
  75.5387878  12.2942972   5.4159236  76.9518119  11.9366205   5.8238649
  48.3100866  70.7065900  67.4364917  48.1620036  70.4705627  66.5207438
  49.2287849  70.9732945  67.4695433  26.0672283  22.2070098  26.6912270
  26.3520479  21.3667750  26.3319016  25.4296684  21.9749904  27.3664427
  85.0557866  60.1736832  17.1780932  85.0302562  60.3110743  18.1250381
  85.1824547  59.2303801  17.0762634   3.6927444  75.8153868  14.8132288
   3.8236195  75.2814960  14.0296042   4.3265587  76.5274239  14.7265327
  19.2128766  35.7760572  33.6369920  19.8632431  36.3915658  33.9752293
  19.0172696  36.0945177  32.7557707  34.5975280  54.7382927  10.5953228
  34.5175576  54.1499758  11.3461328  33.7778807  54.6252060  10.1140535
  84.0399447  62.3072243  10.2639532  84.1818392  62.4478388  11.2000763
  83.2954523  61.7070532  10.2220476  19.7826648  57.0698452  19.4940865
  19.0228307  57.6479101  19.5628273  19.9146569  56.9587040  18.5525680
  70.2366864  60.6780910   3.0843848  69.4190442  61.1648703   2.9807627
  70.1694262  60.2787685   3.9517081  28.1071877  30.4101229   6.3048494
  27.5501752  30.6058264   5.5514097  28.5972095  31.2182260   6.4567679
  12.1162939  65.4952145  22.5315881  11.2080681  65.7964325  22.5065899
  12.1310043  64.7306728  21.9558334  81.9356178  13.6139842   5.5551545
  82.0274758  12.8209039   5.0271193  81.4070295  13.3422633   6.3054816
  25.0026989  58.4231138  25.0525570  25.6934857  59.0225649  25.3348780
  25.3336573  58.0423927  24.2390776   0.9102075  41.3915491   2.4574688
   1.5767375  41.3408613   3.1425965   1.1750239  40.7318926   1.8164095
  45.6909370  30.2184650  57.7692871  45.8997571  29.3510219  57.4226348
  46.3564276  30.7937595  57.3919432  28.8887620  43.7663174  13.7902319
  27.9916501  43.5792875  14.0667129  28.8248825  43.9007235  12.8446698
  21.1462450  16.6278287  53.1287198  21.1916923  17.2776195  53.8301043
  20.3142690  16.8063708  52.6903490  25.1587129  81.4313984  11.6225815
  24.9671435  81.0448265  10.7681239  25.2942586  80.6803226  12.2002971
  18.4687566  20.4310294  61.1686198  18.1750297  20.7349225  60.3097813
  17.6736927  20.4137298  61.7013554  50.0425201  20.9280749  31.4586036
  50.6799459  21.0207530  30.7505576  50.3537606  21.5233537  32.1405141
  83.4871676  42.5859737  24.5175791  83.8740617  42.3449564  25.3592753
  82.6365280  42.9620409  24.7438908  28.9391994  56.7295027   9.6148890
  29.6771574  56.3806200   9.1149551  29.3343544  57.3607016  10.2162814
  19.7518253  67.1387768  32.6575518  19.6767545  67.8580761  32.0304894
  19.2757475  66.4151812  32.2501326  22.6512122  71.4778185  25.0084162
  22.2732234  71.4402676  25.8870220  21.9817305  71.0926771  24.4429994
   6.1757636  47.1973991  32.9322147   5.8805770  46.3068438  32.7424574
   6.2496305  47.6133680  32.0732951  72.5778222  60.6182861   1.5671055
  71.7885661  60.6324625   2.1084979  72.5081849  59.8073483   1.0633564
   9.2960864  16.9191134  34.7264647   8.9859796  16.1781466  35.2470732
   8.9883846  16.7338979  33.8391972  74.7489405   8.6545599  20.3927469
  75.5910921   9.1004504  20.4833269  74.1668272   9.3158663  20.0185156
  44.0161562  42.4894571  16.1926937  43.4076691  42.8698254  15.5592155
  43.6277962  41.6447449  16.4204371  80.0098275  24.9701806  54.2019836
  80.3070139  25.4235240  53.4130685  80.3882026  24.0937682  54.1314964
  18.3513236  76.6074991  10.3700745  18.2527316  76.5892887  11.3220096
  18.7033713  77.4775839  10.1823413  73.8600540  51.1536694  18.2204223
  74.4474923  51.7333078  17.7354789  74.0219712  51.3635540  19.1401851
  61.5273335   5.0847407  58.1353943  61.3613077   4.2481490  57.7008979
  60.7479682   5.2356788  58.6702196  50.7430904  36.7224523  69.0691367
  51.5814524  36.7142459  68.6072775  50.5539339  37.6507922  69.2056747
  50.6738567  41.6391468  23.6198401  49.9947691  41.9559002  23.0242419
  50.9316063  42.4122095  24.1220117  31.0213470  68.3002615   5.8080596
  31.9078255  68.6613417   5.8055347  30.6226897  68.6384535   5.0062305
  83.9906454  36.8499446  24.5037889  83.2040947  36.6567183  25.0139189
  84.4396358  37.5309825  25.0046158  69.3936729  23.1941772   8.2540506
  69.9576521  23.1080914   9.0226537  68.5049009  23.2061481   8.6092609
  18.6938322  64.5573235  28.4527969  18.7441337  64.7975683  29.3779922
  17.9959893  65.1091671  28.0996442  85.5782993  73.5881710   6.7287540
  85.1111395  72.9074717   7.2131556  84.9883262  74.3417501   6.7454517
  86.0415537  60.3998566   3.9371014  86.4641736  59.9708939   3.1930473
  85.2204984  60.7407808   3.5823193  15.1635420   5.9336346  13.2842588
  15.4729950   5.7249993  12.4028158  14.2093420   5.9367901  13.2086134
  38.2628452  71.7885120  64.9654244  38.9614843  72.4262078  65.1119761
  38.0542480  71.8713744  64.0349124  52.5244378  63.5251744  68.8236406
  53.4308337  63.4171255  69.1117455  52.3623298  64.4661553  68.8907873
  15.8026695  28.2286616  55.7873730  15.3352451  28.9948913  56.1200027
  15.5916643  28.2059308  54.8539965   5.6072062   8.4754729   1.5369304
   6.3370019   8.6310059   2.1364631   5.6098980   9.2348826   0.9542453
  65.6119185  21.9113561  64.2666010  65.4340827  21.9382640  63.3264510
  65.3848272  22.7873679  64.5784817  65.6791019  10.3176045   6.8900996
  66.4803934  10.3091919   7.4136442  65.2054548   9.5323712   7.1645033
  37.6210403  61.1489487  31.6115928  38.2120132  61.6784096  31.0761952
  36.7614746  61.5520811  31.4896750  66.4790224  11.5416547  53.6362581
  67.0105415  12.3201057  53.8027887  66.9302814  11.0918447  52.9219262
  63.2393556   4.1563769  65.0089322  62.9035401   4.0591069  65.8999978
  63.8790052   3.4504195  64.9156432  75.4933643  50.0963831  13.3229065
  75.7430744  49.8558617  14.2151093  74.7536242  49.5242500  13.1187499
   7.5999522  37.3228093  67.1388228   7.8466582  38.2145997  66.8937130
   6.7494774  37.4188110  67.5674344  59.7454175  11.5502664  48.2800977
  58.8091741  11.5428754  48.4791605  59.8494195  10.8918925  47.5931065
  61.4706873  64.6476030  15.2503312  61.1539554  65.5159330  15.4991639
  60.7859897  64.2970848  14.6806300   6.1386853  41.6218615  25.4309845
   5.5873454  41.6846514  24.6510386   6.1547387  40.6875324  25.6383610
  75.6555271  60.7816744   5.9199297  75.1526069  60.7311869   5.1070619
  74.9934244  60.7888937   6.6111612  18.7400544  57.3049784   5.0971037
  19.1301799  58.0971003   5.4666638  18.5273099  56.7651558   5.8583945
  24.4502234  36.2930965  36.6186500  24.1675687  35.3807735  36.6819382
  25.3873920  36.2410164  36.4309406  21.8310022  73.0948448  30.4772782
  21.9612193  73.5995531  31.2801147  22.5576997  73.3541822  29.9108124
  36.4968491  71.8298006  11.2518561  36.1275578  72.6034451  11.6776848
  37.0764685  71.4474821  11.9107246  32.8189063  56.4929056  20.4660392
  32.3798990  57.1146584  19.8855829  32.7079892  55.6447649  20.0364089
  43.0767155  13.4464538  16.9742560  42.8596306  14.3784797  16.9534338
  43.9635944  13.3990645  16.6172743  27.4083209  70.1292086  10.9060311
  27.8201723  70.9614992  11.1382103  28.0088115  69.4632101  11.2408245
  64.1966868  26.5122832  14.1354251  64.7269392  26.9180907  13.4495807
  64.7603059  26.5183962  14.9090707   5.7151204  70.4718208  14.6916103
   6.6543090  70.3158140  14.7906935   5.3392959  69.6002340  14.5678127
  49.6572495  54.8013830  10.5151355  49.2127275  55.6242990  10.3115726
  50.0516939  54.5307684   9.6860325  14.1563809  53.9003468  47.1517181
  14.3625104  53.1093311  46.6536903  13.2394505  54.0813541  46.9450617
   8.8400954  72.4758673  29.2860651   9.5642251  72.4906158  29.9118829
   8.8646424  71.5950918  28.9120817  16.4633322  40.8757448  30.3272986
  16.6746628  39.9423265  30.3098488  15.8231008  40.9895372  29.6248817
  84.5150147  79.1341972  34.3307185  85.2900190  79.6830750  34.2109895
  83.9051485  79.4302177  33.6549473  48.2182789  30.2122974  16.9021547
  49.1372776  29.9447322  16.8929791  48.0290794  30.3876805  17.8239334
  18.6750412  29.1139289  54.1075687  17.9194641  29.6885224  54.2307333
  19.0266752  28.9883968  54.9889473  34.2376614  57.9362679  35.0830340
  34.0255904  57.0031786  35.0586081  33.6938262  58.3235264  34.3970990
  57.3114538  53.6889076  14.0810013  57.4811172  53.0516529  13.3872068
  58.0300713  54.3172264  14.0100634  23.5225320  27.6862621  10.9152937
  24.1454291  28.3077478  10.5384851  23.3335805  28.0349469  11.7864692
  32.3953271  78.2743740  26.0129976  31.8750405  78.0617189  25.2382016
  31.7749834  78.6911726  26.6110682  74.5693446   6.8526209   5.0933337
  74.2084647   7.0475901   4.2284745  73.9583779   7.2623862   5.7057369
  46.8818521  59.6252871   1.2965290  46.8395567  60.4773951   0.8625315
  46.1962223  59.6618891   1.9634664  23.3182430   2.5160333  65.1397197
  23.4436798   1.5928098  64.9202798  22.4018812   2.6908132  64.9253134
  82.7210310  27.6693702  15.1981628  83.2476848  28.3905005  15.5428910
  83.3479324  27.1167040  14.7314858  79.1476440  28.9670058  61.4316450
  78.8531064  28.8936397  60.5238466  78.9466166  28.1147548  61.8182908
  52.2185135  41.1504698  12.5686193  53.0931520  41.3004208  12.9274476
  51.8611288  42.0281887  12.4340272  70.5242443  20.2848090  15.7551956
  70.6084967  19.8157347  16.5853202  70.9950924  19.7408141  15.1238430
  86.0838919  63.9290380  30.7040858  86.4174701  64.5179796  30.0272512
  86.2181037  64.4053698  31.5234327  72.1052753  33.9520236  48.0743043
  71.6081177  34.6710130  47.6842777  71.5369307  33.1878730  47.9779093
  24.8699069  58.7874317  29.1925955  24.5726252  58.1067657  29.7963786
  24.5992374  58.4762430  28.3288074  55.1770020   2.9700411  14.9981368
  54.5253373   3.1666792  14.3251574  55.0190902   3.6210001  15.6819117
  63.5421466   6.7312213  65.4344783  63.3897137   5.8097049  65.2251778
  64.4809204   6.7839929  65.6137846  32.2984004  30.9615827  26.1624622
  32.6947165  30.7422090  25.3192306  33.0326724  31.2505865  26.7042661
  18.1100929  67.9927874  21.7053533  18.4005010  67.9834175  22.6173878
  17.3164165  67.4577284  21.7012048  81.6311740  23.2703277  62.4152009
  81.3901471  23.5325404  63.3036725  81.3567900  22.3554250  62.3527406
  19.2440986  31.8905564  67.6249395  19.6123647  32.5295278  67.0147542
  19.1619825  32.3676416  68.4506981  16.4078569  22.5685331  57.7709012
  16.7049980  23.3220025  58.2810204  16.6508579  22.7788612  56.8692665
  57.5256420  14.9238337  26.1027312  58.1278158  14.5028342  25.4892349
  58.0196452  14.9834097  26.9204378  31.2323713  65.4207802   6.9222748
  31.4904737  65.0463724   7.7645552  31.1370277  66.3573122   7.0956039
  78.3378077  32.4020327   7.3445994  79.0815306  33.0011405   7.4092454
  78.4883643  31.9202174   6.5313232  34.8241091  79.2048359  28.1191015
  35.0138378  78.8807011  27.2386622  34.8160291  80.1575565  28.0270052
  79.7653056   5.9120406  34.5345259  79.0851784   5.7682360  33.8765121
  79.9420786   6.8519343  34.4948244   8.0397767  71.6634130   4.8536345
   8.1988561  70.9129572   4.2811504   7.8655821  72.3891640   4.2543241
  59.4097557  16.2063142  39.3236343  60.3626918  16.2346240  39.4093244
  59.1939092  15.2743455  39.3564860  75.9226810  64.1238853  55.8604173
  76.0873102  63.1912013  55.9990744  74.9959289  64.2374583  56.0712783
  69.7320759  49.9302387  11.2628770  70.1297593  50.7940960  11.1541021
  68.9190506  50.0990820  11.7390192  84.4479727  17.1645518  57.5168113
  83.7967514  16.7213746  56.9729952  84.7745275  17.8767558  56.9669370
  62.0256876  78.9835460  57.1937601  61.4086293  79.5053299  56.6807191
  62.2439765  78.2442935  56.6262309  69.7119605   4.9126455  70.6149750
  70.0270390   5.3117772  71.4259313  70.3307103   4.2033502  70.4409677
  41.2950706  27.2644830  29.6449065  40.6766033  26.5399981  29.7389936
  42.1245861  26.8435001  29.4192815  58.0454564  23.9209975   7.1156490
  58.2589698  23.1761874   7.6777047  57.2744155  24.3153990   7.5232941
  37.7155805  66.3187599  12.3914969  37.8360629  65.4770660  11.9518721
  37.1831965  66.1135101  13.1600487  84.9665045  76.7424162  39.8218839
  84.5911621  75.9322245  39.4770114  84.5710729  77.4342950  39.2916290
  46.9980727  71.2708719  61.3775317  47.0957683  71.9229586  62.0714120
  47.5342547  70.5322035  61.6658138  71.3148200   1.1334296  66.8097971
  72.1942257   1.2008306  67.1817313  71.0954188   0.2044030  66.8805067
  24.9193907  45.2362108  31.7806101  25.3893352  45.7505369  32.4370027
  24.2410398  45.8272457  31.4538860  24.2025995  34.0099192  18.7030184
  23.9333344  33.1852889  19.1076350  24.6301293  34.4947314  19.4089973
  65.7982456  53.8621589  59.6903924  66.5780621  53.6570331  59.1745977
  65.8363932  54.8103782  59.8154597  66.0329819  57.7658510  30.1435828
  65.7538462  58.0018520  31.0282373  65.2706957  57.9500818  29.5947552
  75.5553650  78.3581860  58.1394236  76.1909794  78.7925608  57.5706129
  75.6615089  77.4260862  57.9492800  55.7110405  45.8095646  12.1154547
  55.4850340  45.0156546  11.6308308  56.3013697  46.2864113  11.5320504
  46.4932263  14.6189440  29.8933864  46.1902082  15.2527178  29.2431951
  45.9636629  13.8381423  29.7317100  59.6325016  80.9092426   1.5940046
  59.8023415  81.7947960   1.9152002  60.4467154  80.6508350   1.1621351
  49.2924261  69.5435381   7.2638178  49.5594168  69.4272566   6.3519919
  50.0642347  69.9112034   7.6943547  47.2259331  81.9301033  31.1447430
  46.5088987  81.4150906  30.7748103  47.9678631  81.7589569  30.5646753
  20.2750039  64.8687267  11.8778360  20.3940058  65.8175802  11.9195950
  21.0749912  64.5098782  12.2618663  31.8934599   1.1716689  19.1242075
  32.5829512   1.4257372  19.7376263  31.9475514   0.2167929  19.0851593
  16.6467285  22.9244634  61.0480110  17.4822092  23.3831569  60.9596847
  16.1027813  23.5156413  61.5684537  74.3126022  30.2100277   4.8969015
  73.4916770  29.7968030   5.1644093  74.9219560  29.4806528   4.7831762
  67.2284126  66.2095165  32.1689200  67.5732946  65.3197575  32.2438765
  67.5525808  66.6586018  32.9496074  70.0344706  14.6929301  13.2708657
  69.2473412  15.2305258  13.1834388  70.7352639  15.3210104  13.4458745
  82.2208928  18.1072589  64.2984061  82.7463459  18.8654252  64.5539735
  82.6547836  17.3633310  64.7161905  41.8464756  61.6483736  15.9197032
  42.2971821  62.3600149  16.3743055  42.5493670  61.1376381  15.5180490
  72.7726614  37.1092912  52.1801297  73.0605542  37.4897500  53.0099492
  72.1462964  37.7430984  51.8305711  41.7584014  22.5174368  23.0161452
  41.2588144  22.1763361  22.2743273  42.5661791  22.8526152  22.6270700
  48.4399509  57.5263691  34.8237610  47.6068163  57.1159649  35.0554705
  48.4493113  57.5255919  33.8666081  16.7812109  39.3698283  35.7024424
  16.5231609  38.5365125  35.3084461  17.6040983  39.5952769  35.2685492
  86.2120275  67.5232458  15.6548369  85.4017713  67.0285463  15.5324101
  86.0116767  68.3975410  15.3206205  59.2569175  26.2107536  50.9141938
  58.9129710  25.3194925  50.8543126  59.0002190  26.5084096  51.7869703
  52.0653223  58.3415909  66.5746189  51.4291667  58.2337482  65.8675779
  52.8403138  57.8670104  66.2739645   9.6417403  32.2875997  70.7252702
   9.7283888  31.8479558  69.8794340   9.6891975  31.5805122  71.3687029
  86.4095997  19.6127244  52.6575117  86.3630389  20.5483457  52.4608426
  85.6245708  19.4377109  53.1764845  50.1581788   2.5393046  17.1903217
  50.0465322   2.7493704  16.2631547  49.7527480   1.6781081  17.2912920
   3.9076304   4.5542499  56.9284288   3.0539059   4.1579362  57.1025626
   4.5300650   3.9973994  57.3961071  47.9472363   4.8864306   7.9534388
  47.3267746   4.1578520   7.9739285  48.7236417   4.5525492   8.4028280
  47.8131187  21.5189017   6.5017807  48.6467791  21.9347037   6.2818956
  47.1747375  21.9449748   5.9297973  30.2352142  69.8219824   8.8655776
  30.9225035  69.9527454   8.2123035  30.2992702  70.5871725   9.4370764
   5.0581914  71.5727139   2.9973680   4.2467856  71.5025091   2.4944536
   5.1161969  72.4993324   3.2302883  35.1096082  72.2830725  45.8707190
  34.2824340  72.7535486  45.9740162  35.0573301  71.8957090  44.9969625
  33.2308793   5.3817854  69.3419839  33.9924002   5.0970182  68.8367875
  33.4843540   6.2334833  69.6977871  85.3480537  60.3628206  34.7325444
  85.8188153  60.9548283  34.1459084  85.8615054  59.5550776  34.7202468
  54.3808294  15.2985419  17.5783086  53.5786343  15.8207453  17.5747514
  54.2552328  14.6714343  18.2904863  69.0190459   3.2328166  22.1244788
  69.5910120   2.8785742  22.8053617  68.2472468   3.5435427  22.5977683
  34.5249271  62.9743576  18.3182025  34.1554070  63.5339451  17.6351571
  33.7626743  62.5923872  18.7532866  50.6956029   4.7917307   9.4022316
  50.8726502   3.9168871   9.7479779  50.2118945   5.2320803  10.1010513
  26.4746391   2.2565115  39.8045993  26.1950434   2.2286261  38.8895702
  27.3440013   1.8559683  39.8017144  33.4266594   2.8753127  13.0624866
  33.5321370   2.0160902  12.6540172  33.2548556   3.4686507  12.3312843
  77.3605322  43.7102863  57.7376418  76.5154134  44.0310546  58.0524663
  77.3329877  43.8517448  56.7913525  48.7983465  58.3480787  32.0532680
  48.1671000  59.0202570  31.7964983  49.6383905  58.6715937  31.7278552
  22.0538425  61.6404963   2.6481536  22.4688864  61.8623400   3.4816730
  21.1169863  61.7514849   2.8100625  50.7150173  35.6807899   9.9113554
  50.4446602  36.3103008   9.2428833  49.8936796  35.3493428  10.2743697
  46.4149714  73.5126781  20.9958172  47.0060587  72.8074360  21.2594080
  46.9084549  74.3149996  21.1660647  83.1794762  33.8101836  69.8026109
  83.5860895  33.6375018  70.6517733  82.3831653  34.2978498  70.0131028
  22.9100323  39.4649482   4.7064140  22.9288697  39.6179485   3.7617084
  22.2899365  38.7446761   4.8200771  48.8191843  78.4413719  13.5569263
  49.6113110  78.7056780  13.0890477  48.6484194  77.5495577  13.2540333
  55.4958677  73.4078455   2.4036910  56.3972998  73.5885906   2.6701295
  55.1652765  72.8056240   3.0702278  30.2378821  58.0145741   5.4084283
  30.3336978  57.1701717   4.9679351  30.2605391  58.6581087   4.7002015
  32.7176213  63.0176878  27.3432112  33.5236788  63.3980989  26.9942260
  32.2508025  62.6964569  26.5717673  32.8193045  50.1238728   3.3880228
  32.4609447  50.8965874   2.9512978  32.6435065  49.4035244   2.7826944
   8.8835847  61.7817068  48.1123161   9.3742013  61.1094284  48.5851526
   8.9951658  62.5738525  48.6379480   2.8947998   1.0488165  27.9117370
   2.3465753   0.3909625  27.4840617   2.8791738   0.8081282  28.8380527
  35.0071025  67.9659891  48.8509369  34.2266059  68.5082006  48.7366247
  35.5436778  68.1531572  48.0806875  10.1592541  35.9993958   5.7549047
  10.3756154  35.3666472   5.0700343  10.6471360  35.6987166   6.5215820
  52.5196028   6.2967528  16.5000868  52.1665812   7.0773543  16.9270086
  52.2525764   5.5726374  17.0662856  19.9235105  33.4286615  61.9446157
  20.8778953  33.4867259  61.9894515  19.7557163  32.6941034  61.3542770
  39.3654799  60.4466963  16.8156958  39.6290445  59.7888708  17.4591517
  40.1792717  60.8937883  16.5831423  43.3670759  54.3806124  33.5546112
  44.2239904  54.4753313  33.9704919  42.7703762  54.8692656  34.1215348
  54.1176558  68.6400127  12.4790263  53.4757710  68.5582399  11.7736685
  54.7204685  69.3193293  12.1767342  84.3604349  13.6438199  51.8218116
  85.1089334  13.1452914  52.1496098  84.5921563  13.8572904  50.9179477
  69.1032290   4.8539992  57.7806167  69.3691634   4.6186134  56.8917374
  69.9256121   4.9295541  58.2645683  35.1263618  42.4254751  33.8566208
  35.8402705  41.8729162  34.1748071  35.4598522  43.3188820  33.9393330
  17.5283039  67.4281549   6.5283805  17.5390875  67.2936106   7.4760163
  18.3068430  66.9695473   6.2124819  17.3257637  27.8816863  58.0273871
  16.8555021  27.7650758  57.2018651  16.6556263  28.1729337  58.6457090
   9.7786522  46.6534301  52.7262144   9.3017959  45.8859893  53.0422525
   9.7330880  47.2784396  53.4497599  25.0970983   7.7058574  69.9363015
  24.7951746   8.2348415  69.1978888  25.6958961   8.2803079  70.4134629
  67.5850773  67.6756191  18.0145824  66.9274902  68.2763577  17.6639831
  68.1071997  68.2131100  18.6101651  59.1222358   1.1440314  36.6534901
  58.4376288   1.4792670  37.2324204  58.8562441   1.4275206  35.7787800
  27.5007534  50.0934669  62.6802848  27.6499319  49.1610595  62.5234483
  26.7194700  50.3005954  62.1675209   8.7442899  50.0661182  45.1860428
   9.3231034  50.7602644  45.5012751   8.0957717  49.9605036  45.8821011
  75.9122991   8.4994861  40.8190863  76.7722773   8.6328384  40.4204790
  75.5109452   7.8054544  40.2961485  25.6358409  47.4678850  19.7840464
  26.2276387  47.0798016  20.4285645  26.1326170  48.1958437  19.4105232
  56.2948465   3.7190118   1.9540559  56.4058971   3.8226417   1.0089837
  55.3760767   3.4730482   2.0617141  65.7572626  19.3618413  53.6107413
  65.5797588  18.5024902  53.9931552  65.6693464  19.2269012  52.6671879
  21.5509820  16.4040220  29.8224473  21.6570473  17.3493743  29.9287081
  21.9545555  16.2113559  28.9761376  86.3778858  65.4221010  48.6675406
  86.8248396  65.2705526  49.5003033  87.0559272  65.7776785  48.0930328
  24.2974067  69.9844074  47.2145748  23.8488007  70.5078030  47.8786850
  23.7076950  69.9974632  46.4607191  56.0679150  68.8777876  17.8548479
  55.8845901  67.9394197  17.8091383  56.4702749  69.0845919  17.0113003
  29.5985365  40.5633974  23.6500645  29.6470737  40.1662064  24.5196128
  28.6608386  40.6409788  23.4741879  18.2787263  32.6445246  28.8061500
  19.0011501  33.2316256  29.0289688  18.1920421  32.7213025  27.8559804
  48.6924887  62.3499346   7.1106553  48.3908558  62.9659891   6.4430302
  48.3422089  61.5039444   6.8316603  81.6091751   7.3822662  56.8190114
  81.9737648   8.2663556  56.8602161  82.3673224   6.8172380  56.6700749
  51.6195059  45.7440233  18.8512266  52.3880291  46.2076902  19.1838133
  51.4909029  46.0948563  17.9699707   0.4955999  81.1931133  21.9802856
   0.0609761  81.2747097  21.1313605   1.2645817  80.6508923  21.8045354
  37.0310879  60.6699753  28.2671142  37.3628044  61.5576220  28.1318903
  36.9372106  60.3122807  27.3842382  74.0779399  45.9686565  16.9685411
  74.4973623  46.8170547  17.1118617  73.4241592  46.1363029  16.2897933
  25.8160281  68.1527901  33.5260701  25.1864457  67.8039265  32.8950739
  25.2961636  68.7222052  34.0932894  13.7366771  23.9480659  49.3460695
  14.1073465  24.0709802  50.2199857  12.9131317  24.4355746  49.3644731
  14.5346844  65.0367737   6.1308348  15.0161874  65.5765629   6.7577457
  15.2099538  64.5195532   5.6918347  32.2487211  58.3577796  59.6213142
  31.5401792  58.8015433  60.0874357  33.0429315  58.8094493  59.9067108
  70.9283781  12.1739138  12.0396113  70.3092718  12.4189223  11.3519263
  70.7668877  12.8031958  12.7425778   1.6860367   5.8269919  22.9876280
   2.3438669   5.1348723  22.9209065   0.9160114   5.3911627  23.3527851
  59.4865156  19.7118700  34.2989945  60.1959253  19.9827612  34.8817325
  59.7454644  20.0398959  33.4378457   9.7278809  58.3703109  43.8129608
   9.5361638  59.2985889  43.9463059   8.9885759  58.0443736  43.2997100
  53.8565398  21.2461127  21.0085797  53.7041021  21.0827960  21.9393420
  54.2712593  20.4445780  20.6895447  59.4756365  57.7770090  24.2387056
  59.9133539  57.1544695  23.6581182  60.1891613  58.2091951  24.7081017
  84.6132634  67.4692488   1.1518208  84.0961942  67.3558760   1.9493279
  84.7903254  68.4091187   1.1127612  58.0154562   2.3074378  24.8792887
  58.3393646   2.6916255  24.0646005  58.0395079   1.3630713  24.7249198
  52.0678521  13.9464701  24.0724111  52.1746421  14.3431414  23.2078409
  51.4469600  14.5186079  24.5233917   4.2116665  12.4267789  34.3658797
   4.9639678  12.9799958  34.5761840   4.4423246  11.5659352  34.7151224
   4.1666388  17.5187989  69.3818551   3.2166481  17.4052640  69.3525168
   4.4089055  17.7431222  68.4834026  12.0579910  45.0434256  23.8404799
  12.7385104  45.6447363  24.1430569  11.3193107  45.6100845  23.6180258
  15.8139848  29.8183747  70.2759715  16.3265276  30.2214690  69.5752236
  15.5731010  28.9581557  69.9321221  19.8308659  49.4872761   2.2459951
  18.8795745  49.4456911   2.3436984  20.1424313  49.8356485   3.0813363
  83.7019252  22.1487113  59.3234364  83.9574265  22.0563289  60.2412681
  82.7832626  22.4155685  59.3562452  49.2976427  69.0971851  38.1789207
  50.0844574  69.2745686  38.6943674  49.6232033  68.9317036  37.2941279
  74.9716330  80.6383228  32.0207882  75.4896927  81.2187862  31.4632010
  75.3713655  80.7185078  32.8868246  84.5671368   3.7795294  16.8219113
  84.9307680   3.2529009  16.1101091  84.2608166   4.5798338  16.3953972
  38.0348682  68.1467438  10.4129219  37.5943303  67.6270819  11.0853112
  38.1024337  67.5580072   9.6612173  76.0825275  79.1517933  68.5957184
  75.4935383  79.1419799  69.3501873  75.5035328  79.2603238  67.8412540
   3.3476806   5.5881728   5.7418698   2.4177910   5.8151759   5.7408798
   3.7174011   6.0895480   5.0151229  42.3241615  66.9363546   8.0798149
  42.5284290  66.1948681   8.6496377  42.2262192  67.6777315   8.6773127
  16.2971115  64.5295095   9.3117642  15.9410954  65.3420401   8.9522111
  17.0443308  64.3258381   8.7492591  32.8150827   1.0837878   3.7034631
  33.2852003   1.9102992   3.8134500  33.3413187   0.4433764   4.1821924
  30.2426672  59.0732479  23.4359074  29.4542265  59.4969177  23.0966425
  29.9149776  58.3460808  23.9651299  31.7181348  58.0145999  64.7921072
  31.4519548  58.6676284  65.4393558  32.3347711  57.4513312  65.2597873
  44.8524714  70.8921337   2.1764189  44.6663189  70.8087206   1.2412070
  44.1245842  71.4100027   2.5202566   4.9166858  75.5744076  23.6812615
   5.7193857  75.3128242  23.2301760   4.8238340  74.9401188  24.3920994
  59.7566175  49.8735285  12.6553297  59.4970036  49.6298122  13.5438311
  59.0857124  50.4945087  12.3716009  21.9029636  36.3525809   6.4776194
  21.3516021  35.6026114   6.7007494  21.2906695  37.0103396   6.1479640
  79.5125628   8.0268801  31.6525412  80.0275088   8.3432616  32.3948121
  79.4636011   8.7758006  31.0584378  22.7933836  64.4727203  66.1006363
  23.5958385  64.8360511  65.7260893  22.1974563  64.3903705  65.3561060
  41.1709881  77.5352192  61.2543297  42.0285273  77.6754761  60.8528471
  41.0180187  78.3242083  61.7742634  49.3339205  49.8035526  10.8088768
  49.6339560  50.0927496   9.9471486  49.8973036  50.2688169  11.4272273
  45.8518648  76.4680433   3.8285699  45.4018450  77.2656775   3.5501957
  45.8872795  75.9256268   3.0406851  10.7977700  41.0598564  18.1176364
  11.5764654  41.5261078  18.4217322  11.1152315  40.5001211  17.4090111
  60.1730776  41.3783682  16.5136063  60.9607029  40.9822501  16.8864000
  60.3476429  42.3193778  16.5296817  46.2350798  69.1251707  23.1379652
  46.9621468  68.7709284  23.6499357  46.0106707  69.9457932  23.5766530
  66.2226916  27.8681410  32.9178691  66.6533733  27.0910872  32.5616145
  66.2681127  28.5122908  32.2112989  16.6937996  31.2923659   6.3081145
  16.8411613  32.0162714   6.9167769  16.8270613  31.6769637   5.4417676
  60.2903318  65.2183914  21.3171434  59.6280813  64.5329046  21.2290311
  60.9786654  64.9669981  20.7013226  29.1706753  70.0271225  28.1546092
  30.0637031  70.1333094  28.4824181  29.0146947  70.8100939  27.6265383
  56.4985705  16.9718970  12.8741693  56.7712689  16.6750754  13.7423658
  57.1256042  17.6588477  12.6480079  50.5623627  14.8963297   9.0809280
  51.4261771  14.9219454   8.6693478  49.9470759  14.9643458   8.3508396
   1.6685748  33.7397643  30.6900613   0.7765603  34.0203782  30.4856221
   1.7986679  32.9518434  30.1623456  33.5641766  46.6760683   6.6249079
  33.6815119  46.3448572   5.7345349  33.2180023  47.5607443   6.5076864
  35.6953365   0.9843768   9.6230823  35.6069553   0.2578200   9.0062052
  36.5366370   0.8321322  10.0535083  39.0220618  39.6675706   5.7728213
  38.3454394  39.4418502   5.1344925  38.9098477  40.6068993   5.9187663
  54.3872379  76.8568165  69.2076920  53.4814071  76.8730385  69.5166202
  54.4267558  76.1014421  68.6211085   4.4285488   3.5522100  36.8480842
   5.1539492   2.9287406  36.8842713   3.8629245   3.3042785  37.5794069
  84.3938970   0.7984563  63.3589755  83.7467598   0.8169147  62.6539193
  84.6127557  -0.1280049  63.4590058  66.9615221  21.7964530  19.3290234
  67.6057768  21.9953370  20.0084448  67.4450922  21.8835449  18.5075557
  28.5797334  33.7468219   2.6245022  28.1449080  33.2180214   1.9555260
  28.1945300  34.6178794   2.5290418  46.3356543   0.3690437   4.5641622
  45.5283546   0.7781729   4.8757938  46.8955898   0.3232438   5.3391516
  42.4603558  70.1300383  36.1502385  43.0268860  70.6423664  35.5733514
  42.4977779  70.5871868  36.9903874  36.2097216  29.4291854  25.1362991
  36.7000222  28.6097264  25.2020454  36.7550230  29.9910426  24.5856690
  47.8856564  34.6444488  20.9579110  48.7868738  34.8470807  20.7069492
  47.7926922  33.7082171  20.7816720   5.9265661  44.9357176  31.7141008
   6.1509007  44.2768717  32.3712373   6.7597783  45.1477242  31.2933373
  74.9489521   6.1112281  49.2659704  74.5768451   5.7920667  50.0881044
  75.8947872   6.0164472  49.3784110  48.1709276  74.8928483  29.9539058
  48.2242321  74.0547402  29.4945971  47.3453807  75.2762158  29.6577088
  27.5321507  59.7543907  12.1743131  27.6950169  60.6967020  12.2162545
  28.1182528  59.4404459  11.4857256  46.4366770  47.5370073   4.8869166
  46.2319326  48.3955765   5.2572823  45.5862188  47.1736336   4.6401134
  53.5520505  71.3532956  65.7301782  53.4855579  71.4819534  64.7839974
  54.4683336  71.1180051  65.8760954  14.5477998  70.4365540  54.3708801
  14.2333329  70.8747530  55.1616573  14.9074125  69.6065426  54.6839094
  33.2898188  36.9832063   2.9937541  33.4811306  37.4316835   3.8174650
  32.9389453  36.1332631   3.2596800  18.7125157  79.8361261  40.5980055
  19.0767788  80.2860530  41.3603107  19.4765912  79.5963605  40.0736658
   9.8995614  29.4597264  53.0434863   9.4030499  29.7019025  53.8251893
   9.7455978  30.1780530  52.4298660  12.7169895  74.3891096  31.0312486
  13.0813599  74.0349865  31.8424606  13.4414029  74.3512630  30.4067302
  39.9786806  36.8620205   9.9474442  39.1787505  36.5687704  10.3837299
  39.7162890  37.6489305   9.4697893  67.8696060  39.5703053  15.2395022
  67.9680383  39.7530413  14.3050766  68.7363934  39.2751741  15.5184424
  20.8668518  33.8072515  25.5020165  20.5849981  32.9421186  25.7992244
  21.6074443  34.0253615  26.0678625  36.1387253  59.7109699  12.7006853
  36.2385941  58.7917852  12.4529934  36.6166854  59.7898531  13.5262537
  36.2971138  73.5305555  66.1091302  36.7195444  74.0064509  65.3940718
  36.6879742  72.6572974  66.0794736  61.7602258  27.7289745  51.2834482
  62.5208672  27.1782466  51.4688031  61.2038948  27.1881982  50.7228343
  82.8449067  54.6168375   4.3818527  83.5675433  55.2444553   4.3927503
  82.0890909  55.1164246   4.6906948  23.8470221  13.0778074  16.5073693
  23.8005996  12.3858345  15.8476341  23.1689286  13.7017083  16.2481999
  76.6239094  27.8789302  64.3965266  77.1846627  28.1046125  63.6543308
  76.4514434  26.9433709  64.2906384  78.2321428  51.0320635  64.3501411
  77.3132967  51.2282355  64.1671978  78.5184263  51.7411776  64.9258415
  82.1645044  30.8904095  67.0190538  82.3967432  30.0720663  66.5801795
  82.9652094  31.1548914  67.4719874  13.0793333  15.5314990  66.4264653
  13.8097047  16.0170909  66.8098546  12.6498222  15.1153251  67.1738298
  76.6502594  75.1465924  27.0101850  76.3648723  75.9358628  27.4704425
  76.5197681  74.4400938  27.6426904  21.0299778  15.3949901  49.2416040
  21.9524097  15.6491395  49.2141907  20.5517149  16.2211295  49.1709535
  74.3457483  53.9722128  67.5110008  74.6554731  54.8652835  67.6617618
  75.0875114  53.4174915  67.7524553  49.9267054  10.3414333   3.8099378
  50.8179951  10.0170088   3.6811855  49.7170877  10.1128387   4.7154966
  34.6967030  37.8038931   5.8150631  35.5650306  37.8992748   6.2063962
  34.1632891  38.4686017   6.2507957  15.6764793  42.8831625   2.4952877
  15.6203043  41.9383717   2.6382822  16.5508175  43.1205797   2.8041494
  60.3909051   7.8174802  65.8897634  59.7324502   7.1773597  66.1597810
  61.2271356   7.3700353  66.0191591   9.5203435  41.6266298  62.9780483
   9.6478099  40.7309055  62.6655483   9.8654151  41.6202021  63.8708591
  15.0778103   8.9677879  54.2408697  15.6987524   8.3745547  54.6636431
  14.2261457   8.7185403  54.5997230  24.1960048   9.1906186  67.3263986
  23.2623529   9.1271897  67.1251563  24.3064546  10.0754806  67.6743169
  35.5915819  74.1089804  62.8578089  36.3235258  74.2301161  63.4626369
  35.8921747  73.4330447  62.2503654   9.6912700  57.7058172   4.4033107
   9.4673306  58.2814598   5.1345527  10.1888132  58.2622671   3.8041094
  79.0717815  72.2511728  70.5106814  79.7688555  72.9060633  70.4727674
  79.2002748  71.7188747  69.7255830  54.0386057  79.1927767  40.4776573
  53.8883018  78.4488869  39.8943305  54.7180128  78.8909101  41.0805750
   0.4258918  29.9790021  58.2620875   1.2031364  30.5366059  58.2274382
  -0.0385714  30.1645538  57.4459509  43.2069588  54.3791151  10.6880581
  42.7804232  54.9754667  11.3034117  44.1393328  54.5812464  10.7658851
  70.5748558  74.6787930  13.1372988  70.6285810  73.9040852  12.5776815
  71.4794254  74.8465586  13.4015679  29.8780990  69.6331215  13.1871378
  29.9261522  68.8432264  13.7256432  30.2133298  69.3612909  12.3327613
  68.1321954  76.8004306  50.6260983  67.7470611  76.3079364  51.3509111
  68.9150428  76.3036497  50.3882138   1.1504435  13.0323812  57.2161297
   0.4158735  12.5384828  56.8518393   0.7413745  13.6904737  57.7780954
  36.2732744  52.0408773  17.8092921  36.4968324  51.4571428  17.0843732
  36.5030718  51.5454197  18.5953844  31.2668610  56.2234783   8.4373838
  31.6553307  56.5122843   7.6116014  31.6333795  55.3511953   8.5823643
  16.7413711  43.1835529  55.5781404  17.5621938  42.9398605  56.0060434
  16.0637283  42.7445193  56.0922269   2.2430753  29.3336364  39.5763604
   3.0121541  28.7991353  39.7739999   2.5940323  30.2108976  39.4231526
  26.9232774  49.3328333  38.7369347  26.6306973  49.1655207  37.8410363
  26.3985062  48.7400246  39.2749214  21.1504674  70.4718590  29.7540021
  21.5169120  71.3130903  30.0265479  20.7764387  70.6423235  28.8895512
  19.8496544  20.1025844  22.1156979  19.9137866  19.2267001  21.7349768
  19.1921771  20.0161481  22.8059745  83.8743210  48.8931036   5.4715049
  83.1218910  49.4636393   5.3147089  84.5344162  49.4681740   5.8585495
  80.1741098  75.0441153  60.5644922  80.8493208  74.5453270  61.0244195
  80.6458782  75.7762201  60.1673893  60.0015687  76.0240920  66.8722652
  60.5372380  76.8173607  66.8685041  60.3905081  75.4692419  66.1961744
  19.7217870  78.9517927  10.3212833  20.2570057  79.7423315  10.3907442
  19.1275918  78.9982653  11.0702848  35.0239921  68.3700800  23.3100247
  35.5608249  68.3820009  22.5176215  34.2244911  68.8357496  23.0647135
   3.9106202  12.1143409  38.4670870   3.5377359  12.9316016  38.7976496
   4.8497891  12.2880098  38.4035818   5.1613426  78.4300949  23.6943460
   5.2199244  77.4859478  23.5481071   4.3425583  78.6877285  23.2707310
  69.6002744  68.2506974  44.9543349  68.7325357  68.0240662  44.6198146
  69.4552349  69.0337379  45.4854099  45.3250599  67.4196529  14.2697775
  44.8257303  68.1613255  13.9279878  46.1160612  67.3949432  13.7313187
  19.0960788   9.2735454  53.4573273  20.0256204   9.4764253  53.5623257
  19.0623903   8.3177062  53.4190111  52.9146003  81.9605668  25.1370542
  52.5746630  81.2245114  24.6282403  52.1968244  82.1975930  25.7242934
  48.5925292  80.8968861  56.7332355  47.9324840  80.2287347  56.5484492
  49.0626334  80.5641658  57.4977819  46.0952568  51.7669678  13.7766492
  46.3587809  52.0233679  14.6604168  46.9183207  51.5732145  13.3280277
  50.3325558  53.9471388  39.2126107  50.5905247  53.0253649  39.2166877
  49.3859243  53.9303112  39.0717816  17.9214096  28.5528537  50.6196205
  18.8359737  28.8304826  50.5673496  17.9586124  27.5971719  50.5806367
   5.7341813  80.1964719  39.5940129   5.1912021  80.9846957  39.5836060
   5.7564639  79.9331124  40.5140011  63.3121109  13.3926475  16.1839008
  62.8112936  12.9173028  16.8468213  63.5384893  14.2223835  16.6040480
  12.4123514  57.6790571  15.5532813  12.4872911  57.5327730  14.6102977
  11.9994855  56.8826199  15.8871412  40.7516098  39.1727686  23.1173444
  39.7959304  39.1644120  23.1706738  40.9649658  38.4489417  22.5284600
  22.0975661  56.6472292  11.7356575  22.2048688  56.7401743  12.6822722
  22.5772309  57.3886681  11.3662958  22.5884843  80.5819416   8.7787879
  23.5319901  80.4206371   8.7817824  22.4269390  81.0430431   7.9556721
  20.3827381  23.4611198  39.3671219  21.3166284  23.4539481  39.5769469
  19.9741697  23.9084121  40.1082246  44.7934198  71.1541080  24.4097948
  44.8665905  71.9969368  23.9620018  43.9139605  70.8438492  24.1941023
  14.9326324  76.7357635  13.4163833  14.7766531  75.7954168  13.3289039
  14.2808831  77.0284128  14.0534163  27.6818681  70.6050444  22.5325823
  27.6460600  71.4352179  23.0077267  27.5934386  70.8519506  21.6120124
  29.5209551  13.6649247  69.5554000  30.2435207  13.0646249  69.3716337
  29.8988676  14.3231889  70.1385854  25.1493621  56.7842007  22.6690316
  24.6496797  56.0648394  22.2829342  25.7659912  56.3558960  23.2627940
  86.7834448  86.7834448  86.7834448 109.4712190 109.4712190 109.4712190
